 Entering Gaussian System, Link 0=g16
 Input=mol_bp_ma_half_tune_n7.gjf
 Output=mol_bp_ma_half_tune_n7.log
 Initial command:
 /opt/ohpc/pub/libs/gaussian/g16-A.03/sandybridge/g16/l1.exe "/mnt/gpfs2_4m/scratch/rdu230/ondemand/projects/init_structures/wtuning/mol_bp_ma_half/tuning_mol_bp_ma_half_ocycle0/Gau-75266.inp" -scrdir="/mnt/gpfs2_4m/scratch/rdu230/ondemand/projects/init_structures/wtuning/mol_bp_ma_half/tuning_mol_bp_ma_half_ocycle0/"
 Entering Link 1 = /opt/ohpc/pub/libs/gaussian/g16-A.03/sandybridge/g16/l1.exe PID=     75267.
  
 Copyright (c) 1988,1990,1992,1993,1995,1998,2003,2009,2016,
            Gaussian, Inc.  All Rights Reserved.
  
 This is part of the Gaussian(R) 16 program.  It is based on
 the Gaussian(R) 09 system (copyright 2009, Gaussian, Inc.),
 the Gaussian(R) 03 system (copyright 2003, Gaussian, Inc.),
 the Gaussian(R) 98 system (copyright 1998, Gaussian, Inc.),
 the Gaussian(R) 94 system (copyright 1995, Gaussian, Inc.),
 the Gaussian 92(TM) system (copyright 1992, Gaussian, Inc.),
 the Gaussian 90(TM) system (copyright 1990, Gaussian, Inc.),
 the Gaussian 88(TM) system (copyright 1988, Gaussian, Inc.),
 the Gaussian 86(TM) system (copyright 1986, Carnegie Mellon
 University), and the Gaussian 82(TM) system (copyright 1983,
 Carnegie Mellon University). Gaussian is a federally registered
 trademark of Gaussian, Inc.
  
 This software contains proprietary and confidential information,
 including trade secrets, belonging to Gaussian, Inc.
  
 This software is provided under written license and may be
 used, copied, transmitted, or stored only in accord with that
 written license.
  
 The following legend is applicable only to US Government
 contracts under FAR:
  
                    RESTRICTED RIGHTS LEGEND
  
 Use, reproduction and disclosure by the US Government is
 subject to restrictions as set forth in subparagraphs (a)
 and (c) of the Commercial Computer Software - Restricted
 Rights clause in FAR 52.227-19.
  
 Gaussian, Inc.
 340 Quinnipiac St., Bldg. 40, Wallingford CT 06492
  
  
 ---------------------------------------------------------------
 Warning -- This program may not be used in any manner that
 competes with the business of Gaussian, Inc. or will provide
 assistance to any competitor of Gaussian, Inc.  The licensee
 of this program is prohibited from giving any competitor of
 Gaussian, Inc. access to this program.  By using this program,
 the user acknowledges that Gaussian, Inc. is engaged in the
 business of creating and licensing software in the field of
 computational chemistry and represents and warrants to the
 licensee that it is not a competitor of Gaussian, Inc. and that
 it will not use this program in any manner prohibited above.
 ---------------------------------------------------------------
  

 Cite this work as:
 Gaussian 16, Revision A.03,
 M. J. Frisch, G. W. Trucks, H. B. Schlegel, G. E. Scuseria, 
 M. A. Robb, J. R. Cheeseman, G. Scalmani, V. Barone, 
 G. A. Petersson, H. Nakatsuji, X. Li, M. Caricato, A. V. Marenich, 
 J. Bloino, B. G. Janesko, R. Gomperts, B. Mennucci, H. P. Hratchian, 
 J. V. Ortiz, A. F. Izmaylov, J. L. Sonnenberg, D. Williams-Young, 
 F. Ding, F. Lipparini, F. Egidi, J. Goings, B. Peng, A. Petrone, 
 T. Henderson, D. Ranasinghe, V. G. Zakrzewski, J. Gao, N. Rega, 
 G. Zheng, W. Liang, M. Hada, M. Ehara, K. Toyota, R. Fukuda, 
 J. Hasegawa, M. Ishida, T. Nakajima, Y. Honda, O. Kitao, H. Nakai, 
 T. Vreven, K. Throssell, J. A. Montgomery, Jr., J. E. Peralta, 
 F. Ogliaro, M. J. Bearpark, J. J. Heyd, E. N. Brothers, K. N. Kudin, 
 V. N. Staroverov, T. A. Keith, R. Kobayashi, J. Normand, 
 K. Raghavachari, A. P. Rendell, J. C. Burant, S. S. Iyengar, 
 J. Tomasi, M. Cossi, J. M. Millam, M. Klene, C. Adamo, R. Cammi, 
 J. W. Ochterski, R. L. Martin, K. Morokuma, O. Farkas, 
 J. B. Foresman, and D. J. Fox, Gaussian, Inc., Wallingford CT, 2016.
 
 ******************************************
 Gaussian 16:  EM64L-G16RevA.03 25-Dec-2016
                17-Jan-2021 
 ******************************************
 %mem=30GB
 %nproc=8
 Will use up to    8 processors via shared memory.
 ----------------------------------------------------------------------
 #P LC-wHPBE/TZVP iop(3/107=0176600000, 3/108=0176600000) scf=(conver=6
 ,fermi,ndamp=35,noincfock,novaracc,vshift=500,xqc)
 ----------------------------------------------------------------------
 1/38=1,172=1/1;
 2/12=2,17=6,18=5,40=1/2;
 3/5=19,7=101,11=2,25=1,30=1,74=-71,107=176600000,108=176600000/1,2,3;
 4//1;
 5/5=100002,6=6,8=3,10=500,13=1,18=-1,22=13,38=1,93=35/2,8;
 6/7=2,8=2,9=2,10=2,28=1/1;
 99/5=1,9=1/99;
 Leave Link    1 at Sun Jan 17 21:40:28 2021, MaxMem=  4026531840 cpu:               1.9 elap:               0.3
 (Enter /opt/ohpc/pub/libs/gaussian/g16-A.03/sandybridge/g16/l101.exe)
 -------------
 H19 C24 N1 O2
 -------------
 Symbolic Z-matrix:
 Charge =  0 Multiplicity = 1
 C                    -6.53811  -0.21734   1.25551 
 C                    -7.25866   0.08729   0.10788 
 C                    -5.15139  -0.25905   1.21922 
 C                    -6.5807    0.34869  -1.07578 
 C                    -4.458     0.00066   0.03573 
 C                    -5.194     0.30457  -1.11091 
 H                    -8.34564   0.12102   0.13596 
 H                    -4.59391  -0.47628   2.12835 
 H                    -7.13614   0.58116  -1.98219 
 H                    -4.67151   0.48876  -2.0477 
 C                    -2.97448  -0.04496  -0.00277 
 C                    -2.24032   0.91837  -0.6946 
 C                    -2.26558  -1.0513    0.65461 
 C                    -0.85628   0.87593  -0.73981 
 C                    -0.88157  -1.09437   0.62889 
 C                    -0.15564  -0.13324  -0.0774 
 H                    -2.76203   1.72742  -1.20229 
 H                    -2.80904  -1.82389   1.19526 
 H                    -0.30638   1.63919  -1.28492 
 H                    -0.35263  -1.88507   1.15502 
 H                    -7.05947  -0.41619   2.18974 
 N                     1.25703  -0.16083  -0.10381 
 C                     1.9654   -1.37789  -0.17457 
 C                     3.19     -1.50855   0.47802 
 C                     1.4615   -2.45601  -0.91209 
 C                     3.90305  -2.69689   0.39022 
 C                     2.17862  -3.63831  -0.97461 
 C                     3.40295  -3.77506  -0.33284 
 H                     3.60076  -0.69016   1.06207 
 H                     0.51484  -2.3581   -1.43523 
 H                     1.78281  -4.47165  -1.55144 
 H                     3.96392  -4.70643  -0.39806 
 C                     1.97286   1.06837  -0.04581 
 C                     2.97148   1.35095  -0.97234 
 C                     1.68309   2.0122    0.93926 
 C                     3.67678   2.54399  -0.91012 
 C                     2.36561   3.215     0.99216 
 C                     3.37144   3.4833    0.06927 
 H                     3.20527   0.62157  -1.74439 
 H                     0.90427   1.79831   1.66775 
 H                     4.46088   2.7476   -1.6392 
 H                     2.1399    3.9546    1.756 
 O                     4.02299   4.68033   0.17324 
 H                     4.69529   4.73835  -0.51784 
 O                     5.09721  -2.75171   1.05375 
 H                     5.47965  -3.63149   0.94109 
 
 ITRead=  0  0  0  0  0  0  0  0  0  0  0  0  0  0  0  0  0  0  0  0
 ITRead=  0  0  0  0  0  0  0  0  0  0  0  0  0  0  0  0  0  0  0  0
 ITRead=  0  0  0  0  0  0
 MicOpt= -1 -1 -1 -1 -1 -1 -1 -1 -1 -1 -1 -1 -1 -1 -1 -1 -1 -1 -1 -1
 MicOpt= -1 -1 -1 -1 -1 -1 -1 -1 -1 -1 -1 -1 -1 -1 -1 -1 -1 -1 -1 -1
 MicOpt= -1 -1 -1 -1 -1 -1
 NAtoms=     46 NQM=       46 NQMF=       0 NMMI=      0 NMMIF=      0
                NMic=       0 NMicF=      0.
                    Isotopes and Nuclear Properties:
 (Nuclear quadrupole moments (NQMom) in fm**2, nuclear magnetic moments (NMagM)
  in nuclear magnetons)

  Atom         1           2           3           4           5           6           7           8           9          10
 IAtWgt=          12          12          12          12          12          12           1           1           1           1
 AtmWgt=  12.0000000  12.0000000  12.0000000  12.0000000  12.0000000  12.0000000   1.0078250   1.0078250   1.0078250   1.0078250
 NucSpn=           0           0           0           0           0           0           1           1           1           1
 AtZEff=  -0.0000000  -0.0000000  -0.0000000  -0.0000000  -0.0000000  -0.0000000  -0.0000000  -0.0000000  -0.0000000  -0.0000000
 NQMom=    0.0000000   0.0000000   0.0000000   0.0000000   0.0000000   0.0000000   0.0000000   0.0000000   0.0000000   0.0000000
 NMagM=    0.0000000   0.0000000   0.0000000   0.0000000   0.0000000   0.0000000   2.7928460   2.7928460   2.7928460   2.7928460
 AtZNuc=   6.0000000   6.0000000   6.0000000   6.0000000   6.0000000   6.0000000   1.0000000   1.0000000   1.0000000   1.0000000

  Atom        11          12          13          14          15          16          17          18          19          20
 IAtWgt=          12          12          12          12          12          12           1           1           1           1
 AtmWgt=  12.0000000  12.0000000  12.0000000  12.0000000  12.0000000  12.0000000   1.0078250   1.0078250   1.0078250   1.0078250
 NucSpn=           0           0           0           0           0           0           1           1           1           1
 AtZEff=  -0.0000000  -0.0000000  -0.0000000  -0.0000000  -0.0000000  -0.0000000  -0.0000000  -0.0000000  -0.0000000  -0.0000000
 NQMom=    0.0000000   0.0000000   0.0000000   0.0000000   0.0000000   0.0000000   0.0000000   0.0000000   0.0000000   0.0000000
 NMagM=    0.0000000   0.0000000   0.0000000   0.0000000   0.0000000   0.0000000   2.7928460   2.7928460   2.7928460   2.7928460
 AtZNuc=   6.0000000   6.0000000   6.0000000   6.0000000   6.0000000   6.0000000   1.0000000   1.0000000   1.0000000   1.0000000

  Atom        21          22          23          24          25          26          27          28          29          30
 IAtWgt=           1          14          12          12          12          12          12          12           1           1
 AtmWgt=   1.0078250  14.0030740  12.0000000  12.0000000  12.0000000  12.0000000  12.0000000  12.0000000   1.0078250   1.0078250
 NucSpn=           1           2           0           0           0           0           0           0           1           1
 AtZEff=  -0.0000000  -0.0000000  -0.0000000  -0.0000000  -0.0000000  -0.0000000  -0.0000000  -0.0000000  -0.0000000  -0.0000000
 NQMom=    0.0000000   2.0440000   0.0000000   0.0000000   0.0000000   0.0000000   0.0000000   0.0000000   0.0000000   0.0000000
 NMagM=    2.7928460   0.4037610   0.0000000   0.0000000   0.0000000   0.0000000   0.0000000   0.0000000   2.7928460   2.7928460
 AtZNuc=   1.0000000   7.0000000   6.0000000   6.0000000   6.0000000   6.0000000   6.0000000   6.0000000   1.0000000   1.0000000

  Atom        31          32          33          34          35          36          37          38          39          40
 IAtWgt=           1           1          12          12          12          12          12          12           1           1
 AtmWgt=   1.0078250   1.0078250  12.0000000  12.0000000  12.0000000  12.0000000  12.0000000  12.0000000   1.0078250   1.0078250
 NucSpn=           1           1           0           0           0           0           0           0           1           1
 AtZEff=  -0.0000000  -0.0000000  -0.0000000  -0.0000000  -0.0000000  -0.0000000  -0.0000000  -0.0000000  -0.0000000  -0.0000000
 NQMom=    0.0000000   0.0000000   0.0000000   0.0000000   0.0000000   0.0000000   0.0000000   0.0000000   0.0000000   0.0000000
 NMagM=    2.7928460   2.7928460   0.0000000   0.0000000   0.0000000   0.0000000   0.0000000   0.0000000   2.7928460   2.7928460
 AtZNuc=   1.0000000   1.0000000   6.0000000   6.0000000   6.0000000   6.0000000   6.0000000   6.0000000   1.0000000   1.0000000

  Atom        41          42          43          44          45          46
 IAtWgt=           1           1          16           1          16           1
 AtmWgt=   1.0078250   1.0078250  15.9949146   1.0078250  15.9949146   1.0078250
 NucSpn=           1           1           0           1           0           1
 AtZEff=  -0.0000000  -0.0000000  -0.0000000  -0.0000000  -0.0000000  -0.0000000
 NQMom=    0.0000000   0.0000000   0.0000000   0.0000000   0.0000000   0.0000000
 NMagM=    2.7928460   2.7928460   0.0000000   2.7928460   0.0000000   2.7928460
 AtZNuc=   1.0000000   1.0000000   8.0000000   1.0000000   8.0000000   1.0000000
 Leave Link  101 at Sun Jan 17 21:40:28 2021, MaxMem=  4026531840 cpu:               0.6 elap:               0.1
 (Enter /opt/ohpc/pub/libs/gaussian/g16-A.03/sandybridge/g16/l202.exe)
                          Input orientation:                          
 ---------------------------------------------------------------------
 Center     Atomic      Atomic             Coordinates (Angstroms)
 Number     Number       Type             X           Y           Z
 ---------------------------------------------------------------------
      1          6           0       -6.538108   -0.217341    1.255514
      2          6           0       -7.258661    0.087287    0.107878
      3          6           0       -5.151390   -0.259049    1.219222
      4          6           0       -6.580697    0.348691   -1.075777
      5          6           0       -4.458004    0.000662    0.035726
      6          6           0       -5.193998    0.304569   -1.110911
      7          1           0       -8.345644    0.121015    0.135956
      8          1           0       -4.593910   -0.476283    2.128350
      9          1           0       -7.136138    0.581164   -1.982188
     10          1           0       -4.671509    0.488761   -2.047704
     11          6           0       -2.974479   -0.044963   -0.002770
     12          6           0       -2.240322    0.918366   -0.694597
     13          6           0       -2.265576   -1.051297    0.654611
     14          6           0       -0.856277    0.875925   -0.739808
     15          6           0       -0.881570   -1.094369    0.628888
     16          6           0       -0.155643   -0.133238   -0.077397
     17          1           0       -2.762026    1.727417   -1.202285
     18          1           0       -2.809037   -1.823891    1.195264
     19          1           0       -0.306381    1.639189   -1.284917
     20          1           0       -0.352632   -1.885069    1.155020
     21          1           0       -7.059465   -0.416189    2.189743
     22          7           0        1.257026   -0.160831   -0.103806
     23          6           0        1.965402   -1.377887   -0.174570
     24          6           0        3.190004   -1.508547    0.478017
     25          6           0        1.461496   -2.456008   -0.912094
     26          6           0        3.903051   -2.696891    0.390217
     27          6           0        2.178621   -3.638306   -0.974610
     28          6           0        3.402953   -3.775056   -0.332839
     29          1           0        3.600761   -0.690157    1.062074
     30          1           0        0.514840   -2.358097   -1.435231
     31          1           0        1.782807   -4.471654   -1.551437
     32          1           0        3.963923   -4.706428   -0.398055
     33          6           0        1.972861    1.068372   -0.045814
     34          6           0        2.971482    1.350948   -0.972341
     35          6           0        1.683086    2.012203    0.939258
     36          6           0        3.676780    2.543988   -0.910119
     37          6           0        2.365608    3.214996    0.992156
     38          6           0        3.371443    3.483300    0.069272
     39          1           0        3.205268    0.621566   -1.744392
     40          1           0        0.904271    1.798314    1.667748
     41          1           0        4.460878    2.747602   -1.639197
     42          1           0        2.139895    3.954598    1.756001
     43          8           0        4.022986    4.680331    0.173244
     44          1           0        4.695287    4.738350   -0.517835
     45          8           0        5.097214   -2.751708    1.053752
     46          1           0        5.479651   -3.631493    0.941087
 ---------------------------------------------------------------------
                    Distance matrix (angstroms):
                    1          2          3          4          5
     1  C    0.000000
     2  C    1.388907   0.000000
     3  C    1.387820   2.407410   0.000000
     4  C    2.399401   1.388887   2.771153   0.000000
     5  C    2.421206   2.802925   1.396029   2.421237   0.000000
     6  C    2.771099   2.407383   2.397707   1.387846   1.396003
     7  H    2.152924   1.087869   3.394285   2.152945   3.890794
     8  H    2.146811   3.391285   1.088342   3.859318   2.150586
     9  H    3.387914   2.151117   3.859302   1.088182   3.403140
    10  H    3.859277   3.391323   3.385604   2.146919   2.150466
    11  C    3.783179   4.287651   2.505601   3.783004   1.484726
    12  C    4.854248   5.149600   3.677408   4.394165   2.508718
    13  C    4.394439   5.150358   3.045384   4.855356   2.509258
    14  C    6.120437   6.506231   4.855302   5.758458   3.786816
    15  C    5.758321   6.506539   4.390628   6.121140   3.787059
    16  C    6.520704   7.108855   5.162803   6.519995   4.305930
    17  H    4.907306   4.962487   3.939391   4.061913   2.718583
    18  H    4.060862   4.963282   2.817077   4.909497   2.718936
    19  H    6.981040   7.258269   5.774784   6.409069   4.654551
    20  H    6.407147   7.258094   5.067163   6.982473   4.654340
    21  H    1.088181   2.151123   2.146475   3.387902   3.403109
    22  N    7.912968   8.521930   6.544299   7.914180   5.719014
    23  C    8.700672   9.343974   7.337791   8.765218   6.573033
    24  C    9.844180  10.576308   8.466964  10.066291   7.808032
    25  C    8.585093   9.140560   7.286933   8.518803   6.478740
    26  C   10.766369  11.507179   9.413460  11.015157   8.792593
    27  C    9.625893  10.203632   8.364289   9.624554   7.635945
    28  C   10.677307  11.348213   9.378059  10.827304   8.728490
    29  H   10.151731  10.928950   8.764171  10.455224   8.153178
    30  H    7.846465   8.293878   6.599870   7.602799   5.697073
    31  H    9.757857  10.260868   8.573545   9.664894   7.840180
    32  H   11.540314  12.214011  10.270526  11.713349   9.657832
    33  C    8.705349   9.284780   7.356447   8.645352   6.519408
    34  C    9.892177  10.364340   8.565984   9.605173   7.618184
    35  C    8.524020   9.184298   7.207429   8.667050   6.525002
    36  C   10.800872  11.254136   9.504088  10.491073   8.575421
    37  C    9.546018  10.158300   8.284069   9.619170   7.603182
    38  C   10.644300  11.159458   9.379032  10.496761   8.569138
    39  H   10.229202  10.640027   8.910231   9.812574   7.891773
    40  H    7.721516   8.484944   6.411314   8.102659   5.886344
    41  H   11.753635  12.144017  10.469298  11.313204   9.481429
    42  H    9.641748  10.295886   8.438352   9.852424   7.881956
    43  O   11.691673  12.180964  10.471901  11.522207   9.687384
    44  H   12.405354  12.842148  11.178033  12.113142  10.321572
    45  O   11.909846  12.713073  10.548678  12.268699   9.995705
    46  H   12.497273  13.296171  11.156602  12.859300  10.619285
                    6          7          8          9         10
     6  C    0.000000
     7  H    3.394295   0.000000
     8  H    3.385653   4.289744   0.000000
     9  H    2.146517   2.482172   4.947488   0.000000
    10  H    1.088349   4.289857   4.286812   2.467231   0.000000
    11  C    2.505277   5.375519   2.711137   4.650757   2.710448
    12  C    3.045368   6.212934   3.931088   5.073520   2.815338
    13  C    3.678464   6.213738   2.814904   5.774081   3.932277
    14  C    4.390898   7.578091   4.901499   6.408358   4.051726
    15  C    4.856023   7.578426   4.051158   6.981744   4.902457
    16  C    5.161865   8.196724   4.968019   7.270895   4.966089
    17  H    2.819102   5.962232   4.393771   4.588573   2.427988
    18  H    3.941678   5.963121   2.423318   5.882541   4.397045
    19  H    5.069545   8.303823   5.874395   6.946307   4.578173
    20  H    5.776485   8.303680   4.573892   7.870218   5.877517
    21  H    3.859246   2.482113   2.467051   4.290175   4.947446
    22  N    6.545729   9.609797   6.270206   8.632733   6.272817
    23  C    7.413798  10.424049   7.010057   9.483849   7.144340
    24  C    8.723736  11.655199   8.023620  10.818905   8.495404
    25  C    7.208045  10.194089   7.059147   9.180895   6.897465
    26  C    9.696311  12.571228   8.952684  11.757451   9.466516
    27  C    8.361839  11.230583   8.092832  10.275401   8.068983
    28  C    9.547581  12.386633   8.993841  11.522562   9.290739
    29  H    9.113678  12.009675   8.266518  11.232310   8.915774
    30  H    6.307599   9.333960   6.506893   8.214370   5.947936
    31  H    8.466533  11.248352   8.376535  10.259829   8.155378
    32  H   10.463545  13.233095   9.874885  12.396752  10.211857
    33  C    7.285719  10.363497   7.087696   9.325276   6.963560
    34  C    8.233418  11.437587   8.377841  10.187067   7.766279
    35  C    7.376550  10.237056   6.856178   9.400076   7.184963
    36  C    9.151285  12.308686   9.314432  11.041794   8.672484
    37  C    8.369057  11.181982   7.959357  10.298882   8.135977
    38  C    9.212163  12.190141   9.130441  11.092346   8.839566
    39  H    8.429084  11.713660   8.776707  10.344219   7.883733
    40  H    6.865938   9.524739   5.967909   8.913566   6.827066
    41  H    9.973170  13.193071  10.323615  11.802622   9.416461
    42  H    8.679164  11.281287   8.069416  10.554568   8.536710
    43  O   10.283440  13.182252  10.230543  12.082016   9.904348
    44  H   10.853944  13.849661  10.976515  12.625733  10.398864
    45  O   10.951513  13.776985  10.012502  13.037633  10.749308
    46  H   11.559847  14.348113  10.622692  13.618008  11.355854
                   11         12         13         14         15
    11  C    0.000000
    12  C    1.394853   0.000000
    13  C    1.395493   2.387587   0.000000
    14  C    2.424467   1.385433   2.764907   0.000000
    15  C    2.424977   2.765668   1.384915   2.399172   0.000000
    16  C    2.821205   2.415097   2.414640   1.395739   1.396274
    17  H    2.150652   1.088341   3.378724   2.137944   3.853801
    18  H    2.151102   3.378607   1.088374   3.853152   2.137314
    19  H    3.405733   2.146670   3.852133   1.087245   3.386123
    20  H    3.405958   3.852753   2.145912   3.386314   1.087105
    21  H    4.651025   5.772746   5.073595   6.980786   6.408009
    22  N    4.234297   3.707444   3.711718   2.438321   2.445798
    23  C    5.119436   4.819888   4.323815   3.655275   2.971730
    24  C    6.354061   6.062456   5.477556   4.851927   4.095366
    25  C    5.130096   5.013697   4.280052   4.062454   3.117474
    26  C    7.381570   7.210266   6.389823   6.057489   5.051499
    27  C    6.356967   6.353639   5.394244   5.444632   4.290407
    28  C    7.395551   7.348852   6.366015   6.319675   5.144720
    29  H    6.692081   6.308050   5.891550   5.056143   4.521319
    30  H    4.424690   4.344498   3.715626   3.580848   2.794201
    31  H    6.680249   6.780270   5.740635   6.018314   4.822735
    32  H    8.368209   8.379672   7.298955   7.383345   6.130284
    33  C    5.071246   4.265481   4.790401   2.919364   3.644235
    34  C    6.184100   5.237096   5.987030   3.864124   4.836271
    35  C    5.178056   4.388518   5.005795   3.249424   4.040369
    36  C    7.194803   6.140130   7.119414   4.833223   6.031976
    37  C    6.335120   5.416109   6.305796   4.341831   5.408027
    38  C    7.261168   6.217257   7.258180   5.032557   6.273463
    39  H    6.454981   5.553792   6.203533   4.191663   5.027836
    40  H    4.607928   4.030316   4.381171   3.121964   3.554725
    41  H    8.109306   7.010311   8.058435   5.708258   6.960366
    42  H    6.726558   5.866041   6.758714   4.968333   5.990968
    43  O    8.445348   7.357619   8.522282   6.254149   7.590088
    44  H    9.053766   7.919987   9.129527   6.766643   8.150885
    45  O    8.578749   8.388421   7.567125   7.198655   6.218773
    46  H    9.231813   9.109043   8.168722   7.955263   6.855625
                   16         17         18         19         20
    16  C    0.000000
    17  H    3.394207   0.000000
    18  H    3.393888   4.285118   0.000000
    19  H    2.149959   2.458618   4.940396   0.000000
    20  H    2.150946   4.940862   2.457496   4.286703   0.000000
    21  H    7.272052   5.879531   4.586584   7.867781   6.943333
    22  N    1.413185   4.574376   4.581072   2.660702   2.673694
    23  C    2.461184   5.748712   4.987046   3.936574   2.719986
    24  C    3.659688   6.980082   6.049990   5.024031   3.626344
    25  C    2.950783   5.951756   4.803955   4.476050   2.808913
    26  C    4.823274   8.156826   6.816330   6.271123   4.399411
    27  C    4.305727   7.297452   5.733863   5.841531   3.743849
    28  C    5.098205   8.309038   6.688121   6.631716   4.459842
    29  H    3.964735   7.173357   6.510653   5.118591   4.131074
    30  H    2.691330   5.242475   4.272357   4.083539   2.772303
    31  H    4.975162   7.694537   5.969929   6.463601   4.309922
    32  H    6.163417   9.342352   7.531313   7.699927   5.385606
    33  C    2.444462   4.918427   5.724684   2.656342   3.946230
    34  C    3.575282   5.750454   6.942083   3.305325   5.103646
    35  C    3.002903   4.942300   5.912726   3.007336   4.402207
    36  C    4.748519   6.496951   8.097952   4.101793   6.333838
    37  C    4.325658   5.772443   7.225551   3.848085   5.781524
    38  C    5.053830   6.505338   8.223896   4.331393   6.623214
    39  H    3.826790   6.093060   7.126970   3.684882   5.229576
    40  H    2.810666   4.656592   5.208864   3.195189   3.925558
    41  H    5.661336   7.307668   9.043472   4.907224   7.241489
    42  H    5.034009   6.143340   7.628715   4.537903   6.377741
    43  O    6.379201   7.526498   9.488201   5.488005   7.950748
    44  H    6.888968   8.071289  10.114969   5.933793   8.494093
    45  O    5.977323   9.323085   7.961763   7.344943   5.519252
    46  H    6.710562  10.061670   8.487307   8.137159   6.091904
                   21         22         23         24         25
    21  H    0.000000
    22  N    8.630736   0.000000
    23  C    9.378863   1.409975   0.000000
    24  C   10.448678   2.427192   1.393769   0.000000
    25  C    9.294570   2.441920   1.400074   2.412018   0.000000
    26  C   11.340928   3.698257   2.411066   1.388635   2.777630
    27  C   10.282869   3.701415   2.407285   2.769277   1.384198
    28  C   11.274201   4.209523   2.799647   2.416588   2.417577
    29  H   10.723204   2.670685   2.162559   1.086097   3.404706
    30  H    8.618674   2.674231   2.157361   3.396874   1.086009
    31  H   10.422524   4.577693   3.391238   3.857316   2.138885
    32  H   12.108589   5.298710   3.888858   3.404834   3.404522
    33  C    9.422555   1.423630   2.449656   2.897645   3.665132
    34  C   10.664963   2.445238   3.015821   3.213721   4.095925
    35  C    9.159312   2.447772   3.579529   3.857360   4.841644
    36  C   11.560223   3.717714   4.341768   4.311254   5.468770
    37  C   10.171122   3.718373   4.755627   4.822429   6.050113
    38  C   11.336060   4.216682   5.066315   5.011839   6.315565
    39  H   11.041698   2.664454   2.828325   3.078428   3.633858
    40  H    8.282366   2.664787   3.822092   4.192298   5.006530
    41  H   12.545464   4.591413   5.039067   4.920622   6.050002
    42  H   10.194123   4.601641   5.673883   5.708058   6.976735
    43  O   12.363717   5.582485   6.407545   6.252116   7.659408
    44  H   13.117715   5.999586   6.706598   6.502409   7.897571
    45  O   12.431008   4.774896   3.633787   2.348270   4.143722
    46  H   13.004874   5.564877   4.321270   3.156551   4.578386
                   26         27         28         29         30
    26  C    0.000000
    27  C    2.392211   0.000000
    28  C    1.391168   1.389086   0.000000
    29  H    2.137698   3.855145   3.391388   0.000000
    30  H    3.863550   2.149250   3.400623   4.305980   0.000000
    31  H    3.378644   1.088057   2.143619   4.943189   2.467462
    32  H    2.159471   2.158843   1.089217   4.288857   4.299601
    33  C    4.253582   4.801856   5.058294   2.640057   3.974543
    34  C    4.371428   5.051860   5.183729   2.949737   4.472848
    35  C    5.235003   5.986376   6.169971   3.315918   5.109062
    36  C    5.404524   6.361556   6.351264   3.788802   5.856965
    37  C    6.138116   7.132383   7.189751   4.096427   6.354283
    38  C    6.211310   7.295875   7.269554   4.296043   6.674251
    39  H    4.006946   4.448941   4.621888   3.123025   4.026459
    40  H    5.552624   6.177610   6.427147   3.718923   5.201527
    41  H    5.837139   6.813970   6.735788   4.455879   6.456081
    42  H    7.015439   8.069072   8.105931   4.918273   7.257746
    43  O    7.381386   8.597614   8.493181   5.459893   8.027064
    44  H    7.532264   8.758460   8.612922   5.758714   8.287178
    45  O    1.367227   3.663126   2.416691   2.547437   5.229543
    46  H    1.913794   3.816640   2.440527   3.492323   5.649582
                   31         32         33         34         35
    31  H    0.000000
    32  H    2.478442   0.000000
    33  C    5.744120   6.118555   0.000000
    34  C    5.970845   6.164945   1.391239   0.000000
    35  C    6.946503   7.220154   1.394688   2.398215   0.000000
    36  C    7.295043   7.274146   2.414085   1.387322   2.770885
    37  C    8.117519   8.199772   2.416532   2.775069   1.383960
    38  C    8.272349   8.224419   2.793055   2.406627   2.402405
    39  H    5.291646   5.547585   2.145607   1.087528   3.384211
    40  H    7.102639   7.479350   2.147323   3.382834   1.087658
    41  H    7.700482   7.572976   3.398369   2.147938   3.860747
    42  H    9.059160   9.109358   3.406573   3.861914   2.156071
    43  O    9.578714   9.404314   4.158996   3.674618   3.630539
    44  H    9.714682   9.473810   4.593816   3.827868   4.316057
    45  O    4.553078   2.685707   5.056050   5.045352   5.862101
    46  H    4.537092   2.290462   5.946451   5.897189   6.801854
                   36         37         38         39         40
    36  C    0.000000
    37  C    2.405842   0.000000
    38  C    1.390951   1.391189   0.000000
    39  H    2.148032   3.862590   3.392125   0.000000
    40  H    3.858527   2.144509   3.388398   4.280423   0.000000
    41  H    1.089873   3.395973   2.155687   2.471366   4.948382
    42  H    3.385267   1.086930   2.141001   4.949432   2.486788
    43  O    2.420226   2.358967   1.366822   4.562846   4.501772
    44  H    2.450810   3.166715   1.916353   4.546703   5.271849
    45  O    5.823986   6.562547   6.543914   4.773683   6.217754
    46  H    6.694316   7.521588   7.471605   5.520247   7.137573
                   41         42         43         44         45
    41  H    0.000000
    42  H    4.286160   0.000000
    43  O    2.685542   2.564730   0.000000
    44  H    2.296841   3.509220   0.965891   0.000000
    45  O    6.156241   7.362977   7.560718   7.663707   0.000000
    46  H    6.956193   8.328675   8.473363   8.532172   0.965905
                   46
    46  H    0.000000
 Stoichiometry    C24H19NO2
 Framework group  C1[X(C24H19NO2)]
 Deg. of freedom   132
 Full point group                 C1      NOp   1
 Largest Abelian subgroup         C1      NOp   1
 Largest concise Abelian subgroup C1      NOp   1
                         Standard orientation:                         
 ---------------------------------------------------------------------
 Center     Atomic      Atomic             Coordinates (Angstroms)
 Number     Number       Type             X           Y           Z
 ---------------------------------------------------------------------
      1          6           0       -6.538108   -0.217341    1.255514
      2          6           0       -7.258661    0.087287    0.107878
      3          6           0       -5.151390   -0.259049    1.219222
      4          6           0       -6.580697    0.348691   -1.075777
      5          6           0       -4.458004    0.000662    0.035726
      6          6           0       -5.193998    0.304569   -1.110911
      7          1           0       -8.345644    0.121015    0.135956
      8          1           0       -4.593910   -0.476283    2.128350
      9          1           0       -7.136138    0.581164   -1.982188
     10          1           0       -4.671509    0.488761   -2.047704
     11          6           0       -2.974479   -0.044963   -0.002770
     12          6           0       -2.240322    0.918366   -0.694597
     13          6           0       -2.265576   -1.051297    0.654611
     14          6           0       -0.856277    0.875925   -0.739808
     15          6           0       -0.881570   -1.094369    0.628888
     16          6           0       -0.155643   -0.133238   -0.077397
     17          1           0       -2.762026    1.727417   -1.202285
     18          1           0       -2.809037   -1.823891    1.195264
     19          1           0       -0.306381    1.639189   -1.284917
     20          1           0       -0.352632   -1.885069    1.155020
     21          1           0       -7.059465   -0.416189    2.189743
     22          7           0        1.257026   -0.160831   -0.103806
     23          6           0        1.965402   -1.377887   -0.174570
     24          6           0        3.190004   -1.508547    0.478017
     25          6           0        1.461496   -2.456008   -0.912094
     26          6           0        3.903051   -2.696891    0.390217
     27          6           0        2.178621   -3.638306   -0.974610
     28          6           0        3.402953   -3.775056   -0.332839
     29          1           0        3.600761   -0.690157    1.062074
     30          1           0        0.514840   -2.358097   -1.435231
     31          1           0        1.782807   -4.471654   -1.551437
     32          1           0        3.963923   -4.706428   -0.398055
     33          6           0        1.972861    1.068372   -0.045814
     34          6           0        2.971482    1.350948   -0.972341
     35          6           0        1.683086    2.012203    0.939258
     36          6           0        3.676780    2.543988   -0.910119
     37          6           0        2.365608    3.214996    0.992156
     38          6           0        3.371443    3.483300    0.069272
     39          1           0        3.205268    0.621566   -1.744392
     40          1           0        0.904271    1.798314    1.667748
     41          1           0        4.460878    2.747602   -1.639197
     42          1           0        2.139895    3.954598    1.756001
     43          8           0        4.022986    4.680331    0.173244
     44          1           0        4.695287    4.738350   -0.517835
     45          8           0        5.097214   -2.751708    1.053752
     46          1           0        5.479651   -3.631493    0.941087
 ---------------------------------------------------------------------
 Rotational constants (GHZ):           0.2747871           0.0974680           0.0767524
 Leave Link  202 at Sun Jan 17 21:40:28 2021, MaxMem=  4026531840 cpu:               0.2 elap:               0.1
 (Enter /opt/ohpc/pub/libs/gaussian/g16-A.03/sandybridge/g16/l301.exe)
 Standard basis: TZVP (5D, 7F)
 Ernie: Thresh=  0.10000D-02 Tol=  0.10000D-05 Strict=F.
 There are   654 symmetry adapted cartesian basis functions of A   symmetry.
 There are   627 symmetry adapted basis functions of A   symmetry.
   627 basis functions,  1097 primitive gaussians,   654 cartesian basis functions
    93 alpha electrons       93 beta electrons
       nuclear repulsion energy      2186.7759231597 Hartrees.
 IExCor=33909 DFT=T Ex+Corr=LC-wHPBE ExCW=0 ScaHFX=  1.000000
 ScaDFX=  1.000000  1.000000  1.000000  1.000000 ScalE2=  1.000000  1.000000
 IRadAn=      5 IRanWt=     -1 IRanGd=            0 ICorTp=0 IEmpDi=  4
 HFx  wShort=  0.000000 wLong=  0.176600 cFull=  0.000000 cShort=  0.000000 cLong=  1.000000
 DFx  wShort=  0.000000 wLong=  0.176600 cFull=  0.000000 cShort=  1.000000 cLong=  0.000000
 NAtoms=   46 NActive=   46 NUniq=   46 SFac= 1.00D+00 NAtFMM=   60 NAOKFM=F Big=F
 Integral buffers will be    131072 words long.
 Raffenetti 2 integral format.
 Two-electron integral symmetry is turned on.
 Leave Link  301 at Sun Jan 17 21:40:28 2021, MaxMem=  4026531840 cpu:               0.4 elap:               0.1
 (Enter /opt/ohpc/pub/libs/gaussian/g16-A.03/sandybridge/g16/l302.exe)
 NPDir=0 NMtPBC=     1 NCelOv=     1 NCel=       1 NClECP=     1 NCelD=      1
         NCelK=      1 NCelE2=     1 NClLst=     1 CellRange=     0.0.
 One-electron integrals computed using PRISM.
 One-electron integral symmetry used in STVInt
 NBasis=   627 RedAO= T EigKep=  6.83D-06  NBF=   627
 NBsUse=   627 1.00D-06 EigRej= -1.00D+00 NBFU=   627
 Precomputing XC quadrature grid using
 IXCGrd= 4 IRadAn=           5 IRanWt=          -1 IRanGd=           0 AccXCQ= 0.00D+00.
 Generated NRdTot=       0 NPtTot=           0 NUsed=           0 NTot=          32
 NSgBfM=   623   621   621   623   623 MxSgAt=    46 MxSgA2=    46.
 Leave Link  302 at Sun Jan 17 21:40:29 2021, MaxMem=  4026531840 cpu:               9.1 elap:               1.2
 (Enter /opt/ohpc/pub/libs/gaussian/g16-A.03/sandybridge/g16/l303.exe)
 DipDrv:  MaxL=1.
 Leave Link  303 at Sun Jan 17 21:40:30 2021, MaxMem=  4026531840 cpu:               1.0 elap:               0.2
 (Enter /opt/ohpc/pub/libs/gaussian/g16-A.03/sandybridge/g16/l401.exe)
 ExpMin= 9.52D-02 ExpMax= 2.70D+04 ExpMxC= 9.22D+02 IAcc=3 IRadAn=         5 AccDes= 0.00D+00
 Harris functional with IExCor=33909 and IRadAn=       5 diagonalized for initial guess.
 HarFok:  IExCor=33909 AccDes= 0.00D+00 IRadAn=         5 IDoV= 1 UseB2=F ITyADJ=14
 ICtDFT=  3500011 ScaDFX=  1.000000  1.000000  1.000000  1.000000
 FoFCou: FMM=F IPFlag=           0 FMFlag=      100000 FMFlg1=           0
         NFxFlg=           0 DoJE=T BraDBF=F KetDBF=T FulRan=T
         wScrn=  0.000000 ICntrl=       500 IOpCl=  0 I1Cent=   200000004 NGrid=           0
         NMat0=    1 NMatS0=      1 NMatT0=    0 NMatD0=    1 NMtDS0=    0 NMtDT0=    0
 Petite list used in FoFCou.
 Harris En= -1112.94477712688    
 JPrj=0 DoOrth=F DoCkMO=F.
 Leave Link  401 at Sun Jan 17 21:40:36 2021, MaxMem=  4026531840 cpu:              52.2 elap:               6.6
 (Enter /opt/ohpc/pub/libs/gaussian/g16-A.03/sandybridge/g16/l502.exe)
 Integral symmetry usage will be decided dynamically.
 Closed shell SCF:
 Using DIIS extrapolation, IDIIS=    10.
 NGot=  4026531840 LenX=  4025664800 LenY=  4025236430
 Requested convergence on RMS density matrix=1.00D-06 within  32 cycles.
 Requested convergence on MAX density matrix=1.00D-04.
 Requested convergence on             energy=1.00D-04.
 Virtual orbitals will be shifted by   0.500 hartree.
 No special actions if energy rises.
 Dynamic level shift is on during FON iterations.

 Cycle   1  Pass 1  IDiag  1:
 FoFJK:  IHMeth= 1 ICntrl=       0 DoSepK=T KAlg= 0 I1Cent=           0 FoldK=F
 IRaf=         1 NMat=       1 IRICut=       1 DoRegI=T DoRafI=F ISym2E= 0 IDoP0=0 IntGTp=1.
 FoFCou: FMM=F IPFlag=           0 FMFlag=      100000 FMFlg1=           0
         NFxFlg=           0 DoJE=T BraDBF=F KetDBF=F FulRan=T
         wScrn=  0.000000 ICntrl=       500 IOpCl=  0 I1Cent=           0 NGrid=           0
         NMat0=    1 NMatS0=      1 NMatT0=    0 NMatD0=    1 NMtDS0=    0 NMtDT0=    0
 Symmetry not used in FoFCou.
 E= -1130.01468648926    
 DIIS: error= 2.25D-02 at cycle   1 NSaved=   1.
 NSaved= 1 IEnMin= 1 EnMin= -1130.01468648926     IErMin= 1 ErrMin= 2.25D-02
 ErrMax= 2.25D-02  0.00D+00 EMaxC= 1.00D+00 BMatC= 4.77D-01 BMatP= 4.77D-01
 IDIUse=1 WtCom= 1.00D+00 WtEn= 0.00D+00
 Coeff-Com:  0.100D+01
 Coeff:      0.100D+01
 Gap=     0.285 Goal=   None    Shift=    0.500
 T= 1324. Gap= 0.739 NK=0 IS=   94 IE=  627 IFin=   93
          NO(<0.9)=   0  NV(>0.1)=   0     93.00e < EF      0.00e >EF  Err=0.0D+00
 GapD=    0.285 DampG=1.000 DampE=0.500 DampFc=0.5000 IDamp=-1.
 Damping current iteration by 5.00D-01
 RMSDP=2.27D-03 MaxDP=1.21D-01              OVMax= 7.37D-02

 Cycle   2  Pass 1  IDiag  1:
 E= -1130.30349526346     Delta-E=       -0.288808774195 Rises=F Damp=T
 DIIS: error= 1.02D-02 at cycle   2 NSaved=   2.
 NSaved= 2 IEnMin= 2 EnMin= -1130.30349526346     IErMin= 2 ErrMin= 1.02D-02
 ErrMax= 1.02D-02  0.00D+00 EMaxC= 1.00D+00 BMatC= 7.66D-02 BMatP= 4.77D-01
 IDIUse=1 WtCom= 1.00D+00 WtEn= 0.00D+00
 Coeff-Com: -0.515D+00 0.152D+01
 Coeff:     -0.515D+00 0.152D+01
 Gap=     0.299 Goal=   None    Shift=    0.500
 T= 1204. Gap= 0.744 NK=0 IS=   94 IE=  627 IFin=   93
          NO(<0.9)=   0  NV(>0.1)=   0     93.00e < EF      0.00e >EF  Err=0.0D+00
 GapD=    0.299 DampG=1.000 DampE=0.500 DampFc=0.5000 IDamp=-1.
 Damping current iteration by 5.00D-01
 RMSDP=1.33D-03 MaxDP=8.54D-02 DE=-2.89D-01 OVMax= 1.70D-02

 Cycle   3  Pass 1  IDiag  1:
 E= -1130.40249240684     Delta-E=       -0.098997143380 Rises=F Damp=T
 DIIS: error= 4.53D-03 at cycle   3 NSaved=   3.
 NSaved= 3 IEnMin= 3 EnMin= -1130.40249240684     IErMin= 3 ErrMin= 4.53D-03
 ErrMax= 4.53D-03  0.00D+00 EMaxC= 1.00D+00 BMatC= 1.40D-02 BMatP= 7.66D-02
 IDIUse=1 WtCom= 1.00D+00 WtEn= 0.00D+00
 Coeff-Com:  0.212D-01-0.733D+00 0.171D+01
 Coeff:      0.212D-01-0.733D+00 0.171D+01
 Gap=     0.253 Goal=   None    Shift=    0.500
 T=  967. Gap= 0.752 NK=0 IS=   94 IE=  627 IFin=   93
          NO(<0.9)=   0  NV(>0.1)=   0     93.00e < EF      0.00e >EF  Err=0.0D+00
 GapD=    0.253 DampG=1.000 DampE=1.000 DampFc=1.0000 IDamp=-1.
 RMSDP=8.07D-04 MaxDP=8.17D-02 DE=-9.90D-02 OVMax= 9.11D-03

 Cycle   4  Pass 1  IDiag  1:
 E= -1130.48438411085     Delta-E=       -0.081891704014 Rises=F Damp=F
 DIIS: error= 1.16D-03 at cycle   4 NSaved=   4.
 NSaved= 4 IEnMin= 4 EnMin= -1130.48438411085     IErMin= 4 ErrMin= 1.16D-03
 ErrMax= 1.16D-03  0.00D+00 EMaxC= 1.00D+00 BMatC= 7.39D-04 BMatP= 1.40D-02
 IDIUse=1 WtCom= 1.00D+00 WtEn= 0.00D+00
 Coeff-Com:  0.706D-01-0.188D+00 0.182D+00 0.936D+00
 Coeff:      0.706D-01-0.188D+00 0.182D+00 0.936D+00
 Gap=     0.251 Goal=   None    Shift=    0.500
 T=  457. Gap= 0.750 NK=0 IS=   94 IE=  627 IFin=   93
          NO(<0.9)=   0  NV(>0.1)=   0     93.00e < EF      0.00e >EF  Err=0.0D+00
 GapD=    0.251 DampG=1.000 DampE=1.000 DampFc=1.0000 IDamp=-1.
 RMSDP=1.85D-04 MaxDP=1.24D-02 DE=-8.19D-02 OVMax= 6.22D-03

 Cycle   5  Pass 1  IDiag  1:
 E= -1130.48508614812     Delta-E=       -0.000702037268 Rises=F Damp=F
 DIIS: error= 4.23D-04 at cycle   5 NSaved=   5.
 NSaved= 5 IEnMin= 5 EnMin= -1130.48508614812     IErMin= 5 ErrMin= 4.23D-04
 ErrMax= 4.23D-04  0.00D+00 EMaxC= 1.00D+00 BMatC= 1.04D-04 BMatP= 7.39D-04
 IDIUse=1 WtCom= 1.00D+00 WtEn= 0.00D+00
 Coeff-Com:  0.221D-01-0.619D-02-0.669D-01 0.251D-01 0.103D+01
 Coeff:      0.221D-01-0.619D-02-0.669D-01 0.251D-01 0.103D+01
 Gap=     0.250 Goal=   None    Shift=    0.500
 RMSDP=1.19D-04 MaxDP=6.29D-03 DE=-7.02D-04 OVMax= 4.26D-03

 Cycle   6  Pass 1  IDiag  1:
 E= -1130.48526601515     Delta-E=       -0.000179867032 Rises=F Damp=F
 DIIS: error= 4.66D-04 at cycle   6 NSaved=   6.
 NSaved= 6 IEnMin= 6 EnMin= -1130.48526601515     IErMin= 5 ErrMin= 4.23D-04
 ErrMax= 4.66D-04  0.00D+00 EMaxC= 1.00D+00 BMatC= 1.99D-05 BMatP= 1.04D-04
 IDIUse=1 WtCom= 1.00D+00 WtEn= 0.00D+00
 Coeff-Com: -0.955D-02 0.463D-01-0.698D-01-0.176D+00-0.235D-02 0.121D+01
 Coeff:     -0.955D-02 0.463D-01-0.698D-01-0.176D+00-0.235D-02 0.121D+01
 Gap=     0.251 Goal=   None    Shift=    0.500
 RMSDP=7.27D-05 MaxDP=3.86D-03 DE=-1.80D-04 OVMax= 3.96D-03

 Cycle   7  Pass 1  IDiag  1:
 E= -1130.48533378389     Delta-E=       -0.000067768741 Rises=F Damp=F
 DIIS: error= 3.01D-04 at cycle   7 NSaved=   7.
 NSaved= 7 IEnMin= 7 EnMin= -1130.48533378389     IErMin= 7 ErrMin= 3.01D-04
 ErrMax= 3.01D-04  0.00D+00 EMaxC= 1.00D+00 BMatC= 7.47D-06 BMatP= 1.99D-05
 IDIUse=1 WtCom= 1.00D+00 WtEn= 0.00D+00
 Coeff-Com: -0.809D-02 0.147D-01-0.618D-02-0.486D-01-0.243D+00-0.132D+00
 Coeff-Com:  0.142D+01
 Coeff:     -0.809D-02 0.147D-01-0.618D-02-0.486D-01-0.243D+00-0.132D+00
 Coeff:      0.142D+01
 Gap=     0.250 Goal=   None    Shift=    0.500
 RMSDP=3.98D-05 MaxDP=2.17D-03 DE=-6.78D-05 OVMax= 3.04D-03

 Cycle   8  Pass 1  IDiag  1:
 E= -1130.48536641369     Delta-E=       -0.000032629802 Rises=F Damp=F
 DIIS: error= 2.23D-04 at cycle   8 NSaved=   8.
 NSaved= 8 IEnMin= 8 EnMin= -1130.48536641369     IErMin= 8 ErrMin= 2.23D-04
 ErrMax= 2.23D-04  0.00D+00 EMaxC= 1.00D+00 BMatC= 3.41D-06 BMatP= 7.47D-06
 IDIUse=1 WtCom= 1.00D+00 WtEn= 0.00D+00
 Coeff-Com:  0.470D-03-0.139D-01 0.262D-01 0.467D-01-0.107D+00-0.609D+00
 Coeff-Com:  0.176D+00 0.148D+01
 Coeff:      0.470D-03-0.139D-01 0.262D-01 0.467D-01-0.107D+00-0.609D+00
 Coeff:      0.176D+00 0.148D+01
 Gap=     0.251 Goal=   None    Shift=    0.500
 RMSDP=2.03D-05 MaxDP=1.04D-03 DE=-3.26D-05 OVMax= 2.42D-03

 Cycle   9  Pass 1  IDiag  1:
 E= -1130.48538334510     Delta-E=       -0.000016931411 Rises=F Damp=F
 DIIS: error= 1.52D-04 at cycle   9 NSaved=   9.
 NSaved= 9 IEnMin= 9 EnMin= -1130.48538334510     IErMin= 9 ErrMin= 1.52D-04
 ErrMax= 1.52D-04  0.00D+00 EMaxC= 1.00D+00 BMatC= 1.53D-06 BMatP= 3.41D-06
 IDIUse=1 WtCom= 1.00D+00 WtEn= 0.00D+00
 Coeff-Com:  0.316D-02-0.821D-02 0.631D-02 0.228D-01 0.127D+00-0.212D+00
 Coeff-Com: -0.605D+00-0.407D+00 0.207D+01
 Coeff:      0.316D-02-0.821D-02 0.631D-02 0.228D-01 0.127D+00-0.212D+00
 Coeff:     -0.605D+00-0.407D+00 0.207D+01
 Gap=     0.250 Goal=   None    Shift=    0.500
 RMSDP=9.68D-06 MaxDP=3.97D-04 DE=-1.69D-05 OVMax= 1.90D-03

 Cycle  10  Pass 1  IDiag  1:
 E= -1130.48539194747     Delta-E=       -0.000008602368 Rises=F Damp=F
 DIIS: error= 1.01D-04 at cycle  10 NSaved=  10.
 NSaved=10 IEnMin=10 EnMin= -1130.48539194747     IErMin=10 ErrMin= 1.01D-04
 ErrMax= 1.01D-04  0.00D+00 EMaxC= 1.00D+00 BMatC= 7.79D-07 BMatP= 1.53D-06
 IDIUse=1 WtCom= 1.00D+00 WtEn= 0.00D+00
 Coeff-Com:  0.820D-03 0.213D-02-0.663D-02-0.432D-03 0.122D+00-0.419D-01
 Coeff-Com: -0.330D+00-0.586D+00 0.430D+00 0.141D+01
 Coeff:      0.820D-03 0.213D-02-0.663D-02-0.432D-03 0.122D+00-0.419D-01
 Coeff:     -0.330D+00-0.586D+00 0.430D+00 0.141D+01
 Gap=     0.250 Goal=   None    Shift=    0.500
 RMSDP=5.18D-06 MaxDP=1.36D-04 DE=-8.60D-06 OVMax= 1.33D-03

 Cycle  11  Pass 1  IDiag  1:
 E= -1130.48539590962     Delta-E=       -0.000003962145 Rises=F Damp=F
 DIIS: error= 7.24D-05 at cycle  11 NSaved=  11.
 NSaved=11 IEnMin=11 EnMin= -1130.48539590962     IErMin=11 ErrMin= 7.24D-05
 ErrMax= 7.24D-05  0.00D+00 EMaxC= 1.00D+00 BMatC= 3.60D-07 BMatP= 7.79D-07
 IDIUse=1 WtCom= 1.00D+00 WtEn= 0.00D+00
 Coeff-Com: -0.112D-02 0.580D-02-0.759D-02-0.766D-02 0.288D-01 0.195D-01
 Coeff-Com:  0.854D-01-0.185D+00-0.623D+00-0.329D+00 0.201D+01
 Coeff:     -0.112D-02 0.580D-02-0.759D-02-0.766D-02 0.288D-01 0.195D-01
 Coeff:      0.854D-01-0.185D+00-0.623D+00-0.329D+00 0.201D+01
 Gap=     0.250 Goal=   None    Shift=    0.500
 RMSDP=3.57D-06 MaxDP=9.70D-05 DE=-3.96D-06 OVMax= 9.52D-04

 Cycle  12  Pass 1  IDiag  1:
 E= -1130.48539774954     Delta-E=       -0.000001839921 Rises=F Damp=F
 DIIS: error= 5.12D-05 at cycle  12 NSaved=  12.
 NSaved=12 IEnMin=12 EnMin= -1130.48539774954     IErMin=12 ErrMin= 5.12D-05
 ErrMax= 5.12D-05  0.00D+00 EMaxC= 1.00D+00 BMatC= 1.88D-07 BMatP= 3.60D-07
 IDIUse=1 WtCom= 1.00D+00 WtEn= 0.00D+00
 Coeff-Com: -0.636D-03 0.107D-02 0.822D-04-0.221D-02-0.199D-01-0.142D-01
 Coeff-Com:  0.170D+00 0.115D+00-0.288D+00-0.128D+01 0.672D+00 0.164D+01
 Coeff:     -0.636D-03 0.107D-02 0.822D-04-0.221D-02-0.199D-01-0.142D-01
 Coeff:      0.170D+00 0.115D+00-0.288D+00-0.128D+01 0.672D+00 0.164D+01
 Gap=     0.250 Goal=   None    Shift=    0.500
 RMSDP=2.32D-06 MaxDP=7.93D-05 DE=-1.84D-06 OVMax= 6.59D-04

 Cycle  13  Pass 1  IDiag  1:
 E= -1130.48539859247     Delta-E=       -0.000000842935 Rises=F Damp=F
 DIIS: error= 3.57D-05 at cycle  13 NSaved=  13.
 NSaved=13 IEnMin=13 EnMin= -1130.48539859247     IErMin=13 ErrMin= 3.57D-05
 ErrMax= 3.57D-05  0.00D+00 EMaxC= 1.00D+00 BMatC= 9.18D-08 BMatP= 1.88D-07
 IDIUse=1 WtCom= 1.00D+00 WtEn= 0.00D+00
 Coeff-Com: -0.149D-04-0.125D-02 0.256D-02 0.458D-03-0.129D-01-0.285D-01
 Coeff-Com:  0.788D-01 0.947D-01 0.968D-01-0.853D+00 0.126D+00-0.341D+00
 Coeff-Com:  0.184D+01
 Coeff:     -0.149D-04-0.125D-02 0.256D-02 0.458D-03-0.129D-01-0.285D-01
 Coeff:      0.788D-01 0.947D-01 0.968D-01-0.853D+00 0.126D+00-0.341D+00
 Coeff:      0.184D+01
 Gap=     0.250 Goal=   None    Shift=    0.500
 RMSDP=1.44D-06 MaxDP=4.54D-05 DE=-8.43D-07 OVMax= 4.46D-04

 Cycle  14  Pass 1  IDiag  1:
 E= -1130.48539896962     Delta-E=       -0.000000377148 Rises=F Damp=F
 DIIS: error= 2.48D-05 at cycle  14 NSaved=  14.
 NSaved=14 IEnMin=14 EnMin= -1130.48539896962     IErMin=14 ErrMin= 2.48D-05
 ErrMax= 2.48D-05  0.00D+00 EMaxC= 1.00D+00 BMatC= 4.47D-08 BMatP= 9.18D-08
 IDIUse=1 WtCom= 1.00D+00 WtEn= 0.00D+00
 Coeff-Com:  0.216D-03-0.893D-03 0.104D-02 0.795D-03 0.490D-02-0.154D-01
 Coeff-Com: -0.230D-01-0.122D-01 0.218D+00 0.263D-01-0.103D+00-0.149D+01
 Coeff-Com:  0.523D+00 0.187D+01
 Coeff:      0.216D-03-0.893D-03 0.104D-02 0.795D-03 0.490D-02-0.154D-01
 Coeff:     -0.230D-01-0.122D-01 0.218D+00 0.263D-01-0.103D+00-0.149D+01
 Coeff:      0.523D+00 0.187D+01
 Gap=     0.250 Goal=   None    Shift=    0.500
 RMSDP=9.77D-07 MaxDP=3.05D-05 DE=-3.77D-07 OVMax= 3.06D-04

 SCF Done:  E(RLC-wHPBE) =  -1130.48539897     A.U. after   14 cycles
            NFock= 14  Conv=0.98D-06     -V/T= 2.0044
 KE= 1.125557258286D+03 PE=-7.005298377412D+03 EE= 2.562479796996D+03
 Leave Link  502 at Sun Jan 17 21:51:21 2021, MaxMem=  4026531840 cpu:            5146.2 elap:             645.2
 (Enter /opt/ohpc/pub/libs/gaussian/g16-A.03/sandybridge/g16/l508.exe)
 QCSCF skips out because SCF is already converged.
 Leave Link  508 at Sun Jan 17 21:51:21 2021, MaxMem=  4026531840 cpu:               0.0 elap:               0.0
 (Enter /opt/ohpc/pub/libs/gaussian/g16-A.03/sandybridge/g16/l601.exe)
 Copying SCF densities to generalized density rwf, IOpCl= 0 IROHF=0.

 **********************************************************************

            Population analysis using the SCF density.

 **********************************************************************

 Orbital symmetries:
       Occupied  (A) (A) (A) (A) (A) (A) (A) (A) (A) (A) (A) (A)
                 (A) (A) (A) (A) (A) (A) (A) (A) (A) (A) (A) (A)
                 (A) (A) (A) (A) (A) (A) (A) (A) (A) (A) (A) (A)
                 (A) (A) (A) (A) (A) (A) (A) (A) (A) (A) (A) (A)
                 (A) (A) (A) (A) (A) (A) (A) (A) (A) (A) (A) (A)
                 (A) (A) (A) (A) (A) (A) (A) (A) (A) (A) (A) (A)
                 (A) (A) (A) (A) (A) (A) (A) (A) (A) (A) (A) (A)
                 (A) (A) (A) (A) (A) (A) (A) (A) (A)
       Virtual   (A) (A) (A) (A) (A) (A) (A) (A) (A) (A) (A) (A)
                 (A) (A) (A) (A) (A) (A) (A) (A) (A) (A) (A) (A)
                 (A) (A) (A) (A) (A) (A) (A) (A) (A) (A) (A) (A)
                 (A) (A) (A) (A) (A) (A) (A) (A) (A) (A) (A) (A)
                 (A) (A) (A) (A) (A) (A) (A) (A) (A) (A) (A) (A)
                 (A) (A) (A) (A) (A) (A) (A) (A) (A) (A) (A) (A)
                 (A) (A) (A) (A) (A) (A) (A) (A) (A) (A) (A) (A)
                 (A) (A) (A) (A) (A) (A) (A) (A) (A) (A) (A) (A)
                 (A) (A) (A) (A) (A) (A) (A) (A) (A) (A) (A) (A)
                 (A) (A) (A) (A) (A) (A) (A) (A) (A) (A) (A) (A)
                 (A) (A) (A) (A) (A) (A) (A) (A) (A) (A) (A) (A)
                 (A) (A) (A) (A) (A) (A) (A) (A) (A) (A) (A) (A)
                 (A) (A) (A) (A) (A) (A) (A) (A) (A) (A) (A) (A)
                 (A) (A) (A) (A) (A) (A) (A) (A) (A) (A) (A) (A)
                 (A) (A) (A) (A) (A) (A) (A) (A) (A) (A) (A) (A)
                 (A) (A) (A) (A) (A) (A) (A) (A) (A) (A) (A) (A)
                 (A) (A) (A) (A) (A) (A) (A) (A) (A) (A) (A) (A)
                 (A) (A) (A) (A) (A) (A) (A) (A) (A) (A) (A) (A)
                 (A) (A) (A) (A) (A) (A) (A) (A) (A) (A) (A) (A)
                 (A) (A) (A) (A) (A) (A) (A) (A) (A) (A) (A) (A)
                 (A) (A) (A) (A) (A) (A) (A) (A) (A) (A) (A) (A)
                 (A) (A) (A) (A) (A) (A) (A) (A) (A) (A) (A) (A)
                 (A) (A) (A) (A) (A) (A) (A) (A) (A) (A) (A) (A)
                 (A) (A) (A) (A) (A) (A) (A) (A) (A) (A) (A) (A)
                 (A) (A) (A) (A) (A) (A) (A) (A) (A) (A) (A) (A)
                 (A) (A) (A) (A) (A) (A) (A) (A) (A) (A) (A) (A)
                 (A) (A) (A) (A) (A) (A) (A) (A) (A) (A) (A) (A)
                 (A) (A) (A) (A) (A) (A) (A) (A) (A) (A) (A) (A)
                 (A) (A) (A) (A) (A) (A) (A) (A) (A) (A) (A) (A)
                 (A) (A) (A) (A) (A) (A) (A) (A) (A) (A) (A) (A)
                 (A) (A) (A) (A) (A) (A) (A) (A) (A) (A) (A) (A)
                 (A) (A) (A) (A) (A) (A) (A) (A) (A) (A) (A) (A)
                 (A) (A) (A) (A) (A) (A) (A) (A) (A) (A) (A) (A)
                 (A) (A) (A) (A) (A) (A) (A) (A) (A) (A) (A) (A)
                 (A) (A) (A) (A) (A) (A) (A) (A) (A) (A) (A) (A)
                 (A) (A) (A) (A) (A) (A) (A) (A) (A) (A) (A) (A)
                 (A) (A) (A) (A) (A) (A) (A) (A) (A) (A) (A) (A)
                 (A) (A) (A) (A) (A) (A) (A) (A) (A) (A) (A) (A)
                 (A) (A) (A) (A) (A) (A) (A) (A) (A) (A) (A) (A)
                 (A) (A) (A) (A) (A) (A) (A) (A) (A) (A) (A) (A)
                 (A) (A) (A) (A) (A) (A) (A) (A) (A) (A) (A) (A)
                 (A) (A) (A) (A) (A) (A) (A) (A) (A) (A) (A) (A)
                 (A) (A) (A) (A) (A) (A) (A) (A) (A) (A) (A) (A)
                 (A) (A) (A) (A) (A) (A) (A) (A) (A) (A) (A) (A)
                 (A) (A) (A) (A) (A) (A)
 The electronic state is 1-A.
 Alpha  occ. eigenvalues --  -18.88421 -18.88054 -14.11760 -10.04874 -10.04588
 Alpha  occ. eigenvalues --  -10.02893 -10.02635 -10.02241  -9.99571  -9.99326
 Alpha  occ. eigenvalues --   -9.99239  -9.99176  -9.99080  -9.98916  -9.98684
 Alpha  occ. eigenvalues --   -9.98602  -9.98590  -9.98527  -9.98522  -9.98409
 Alpha  occ. eigenvalues --   -9.98408  -9.98394  -9.98343  -9.98337  -9.98202
 Alpha  occ. eigenvalues --   -9.97725  -9.97660  -1.08126  -1.07770  -0.99185
 Alpha  occ. eigenvalues --   -0.89760  -0.88898  -0.88145  -0.86729  -0.81077
 Alpha  occ. eigenvalues --   -0.79270  -0.78906  -0.78134  -0.77982  -0.77444
 Alpha  occ. eigenvalues --   -0.76600  -0.73856  -0.68335  -0.67840  -0.66437
 Alpha  occ. eigenvalues --   -0.65667  -0.64822  -0.63816  -0.63350  -0.62050
 Alpha  occ. eigenvalues --   -0.60065  -0.59368  -0.58398  -0.56889  -0.54516
 Alpha  occ. eigenvalues --   -0.53429  -0.53236  -0.52136  -0.51331  -0.50819
 Alpha  occ. eigenvalues --   -0.49453  -0.48964  -0.48589  -0.48103  -0.47833
 Alpha  occ. eigenvalues --   -0.47528  -0.47052  -0.46658  -0.46469  -0.46225
 Alpha  occ. eigenvalues --   -0.45722  -0.44342  -0.43796  -0.43480  -0.42502
 Alpha  occ. eigenvalues --   -0.42319  -0.41755  -0.40747  -0.40054  -0.39856
 Alpha  occ. eigenvalues --   -0.39368  -0.39170  -0.38644  -0.38160  -0.36087
 Alpha  occ. eigenvalues --   -0.33408  -0.32376  -0.31558  -0.31495  -0.30682
 Alpha  occ. eigenvalues --   -0.29273  -0.28402  -0.23749
 Alpha virt. eigenvalues --    0.01296   0.02272   0.03283   0.03903   0.04316
 Alpha virt. eigenvalues --    0.05199   0.05604   0.08033   0.08332   0.08526
 Alpha virt. eigenvalues --    0.10499   0.11075   0.11563   0.12062   0.12849
 Alpha virt. eigenvalues --    0.13584   0.14038   0.14374   0.14869   0.15424
 Alpha virt. eigenvalues --    0.16073   0.16526   0.16786   0.17306   0.17433
 Alpha virt. eigenvalues --    0.18025   0.18454   0.18648   0.19642   0.20114
 Alpha virt. eigenvalues --    0.20294   0.20917   0.21299   0.21577   0.22087
 Alpha virt. eigenvalues --    0.23375   0.23952   0.24802   0.25178   0.25821
 Alpha virt. eigenvalues --    0.26020   0.26436   0.26650   0.26837   0.27230
 Alpha virt. eigenvalues --    0.27575   0.27978   0.28239   0.28376   0.28787
 Alpha virt. eigenvalues --    0.29134   0.29399   0.29605   0.29745   0.30034
 Alpha virt. eigenvalues --    0.30120   0.30537   0.30828   0.31913   0.32180
 Alpha virt. eigenvalues --    0.32585   0.33080   0.33336   0.33546   0.33752
 Alpha virt. eigenvalues --    0.34228   0.34497   0.34770   0.35245   0.35712
 Alpha virt. eigenvalues --    0.36279   0.36866   0.37263   0.37594   0.38046
 Alpha virt. eigenvalues --    0.38547   0.39041   0.39248   0.39537   0.39855
 Alpha virt. eigenvalues --    0.40350   0.40820   0.41084   0.41282   0.41442
 Alpha virt. eigenvalues --    0.41913   0.42349   0.42789   0.43025   0.43184
 Alpha virt. eigenvalues --    0.43738   0.43814   0.44219   0.44396   0.44577
 Alpha virt. eigenvalues --    0.45064   0.45455   0.45604   0.46213   0.46771
 Alpha virt. eigenvalues --    0.47040   0.47533   0.47727   0.47845   0.48181
 Alpha virt. eigenvalues --    0.48576   0.48615   0.48941   0.49544   0.50096
 Alpha virt. eigenvalues --    0.50361   0.50473   0.50909   0.50931   0.51129
 Alpha virt. eigenvalues --    0.52146   0.52756   0.53152   0.53406   0.53533
 Alpha virt. eigenvalues --    0.54161   0.54504   0.55008   0.55267   0.55396
 Alpha virt. eigenvalues --    0.56059   0.56147   0.56317   0.56938   0.57586
 Alpha virt. eigenvalues --    0.57737   0.58693   0.59640   0.59875   0.60158
 Alpha virt. eigenvalues --    0.60274   0.61073   0.61827   0.62689   0.63145
 Alpha virt. eigenvalues --    0.63357   0.64006   0.64659   0.65038   0.65684
 Alpha virt. eigenvalues --    0.67658   0.67946   0.68446   0.69022   0.70219
 Alpha virt. eigenvalues --    0.70857   0.71118   0.71636   0.72257   0.73021
 Alpha virt. eigenvalues --    0.73052   0.73774   0.74794   0.74912   0.75060
 Alpha virt. eigenvalues --    0.75257   0.75868   0.76444   0.76483   0.77076
 Alpha virt. eigenvalues --    0.77666   0.78405   0.79946   0.80179   0.80715
 Alpha virt. eigenvalues --    0.81164   0.82346   0.82914   0.84276   0.84683
 Alpha virt. eigenvalues --    0.85770   0.87260   0.87830   0.88258   0.90081
 Alpha virt. eigenvalues --    0.91044   0.92249   0.92425   0.94567   0.95113
 Alpha virt. eigenvalues --    0.96978   0.98378   1.00474   1.15601   1.19456
 Alpha virt. eigenvalues --    1.20663   1.23679   1.25117   1.25359   1.26576
 Alpha virt. eigenvalues --    1.26946   1.27409   1.27868   1.28113   1.28255
 Alpha virt. eigenvalues --    1.28717   1.28883   1.29504   1.29858   1.30195
 Alpha virt. eigenvalues --    1.30672   1.31475   1.32076   1.32737   1.32891
 Alpha virt. eigenvalues --    1.32988   1.33925   1.34058   1.34556   1.34945
 Alpha virt. eigenvalues --    1.35284   1.35380   1.35798   1.35987   1.36468
 Alpha virt. eigenvalues --    1.37451   1.38198   1.38432   1.38983   1.39418
 Alpha virt. eigenvalues --    1.39737   1.42040   1.42298   1.44240   1.44738
 Alpha virt. eigenvalues --    1.44887   1.45357   1.45553   1.45622   1.45879
 Alpha virt. eigenvalues --    1.46399   1.46994   1.47532   1.47614   1.47793
 Alpha virt. eigenvalues --    1.47828   1.48045   1.48293   1.48911   1.49344
 Alpha virt. eigenvalues --    1.49520   1.50445   1.50567   1.50652   1.50963
 Alpha virt. eigenvalues --    1.51178   1.51628   1.52197   1.52577   1.52856
 Alpha virt. eigenvalues --    1.53993   1.54102   1.54837   1.55647   1.55790
 Alpha virt. eigenvalues --    1.55989   1.56294   1.56569   1.56898   1.57106
 Alpha virt. eigenvalues --    1.57340   1.57826   1.58101   1.58216   1.58505
 Alpha virt. eigenvalues --    1.58793   1.59484   1.59917   1.60505   1.61226
 Alpha virt. eigenvalues --    1.61499   1.62086   1.62427   1.63149   1.63472
 Alpha virt. eigenvalues --    1.64778   1.66040   1.66829   1.68175   1.69306
 Alpha virt. eigenvalues --    1.70161   1.70729   1.70835   1.71589   1.72803
 Alpha virt. eigenvalues --    1.75097   1.76801   1.78051   1.78383   1.79035
 Alpha virt. eigenvalues --    1.79461   1.79986   1.80256   1.80681   1.81203
 Alpha virt. eigenvalues --    1.81528   1.81964   1.82315   1.82637   1.83455
 Alpha virt. eigenvalues --    1.83565   1.83710   1.84718   1.85077   1.85963
 Alpha virt. eigenvalues --    1.86720   1.87116   1.88995   1.89569   1.90473
 Alpha virt. eigenvalues --    1.90810   1.91082   1.91436   1.92131   1.92410
 Alpha virt. eigenvalues --    1.92735   1.93072   1.93589   1.93773   1.94159
 Alpha virt. eigenvalues --    1.94874   1.95642   1.95947   1.96271   1.96361
 Alpha virt. eigenvalues --    1.96695   1.97188   1.97794   1.98198   1.98838
 Alpha virt. eigenvalues --    2.00386   2.00729   2.01717   2.02129   2.02609
 Alpha virt. eigenvalues --    2.02843   2.03781   2.04008   2.04551   2.05052
 Alpha virt. eigenvalues --    2.06334   2.07789   2.08103   2.09849   2.11564
 Alpha virt. eigenvalues --    2.12713   2.13620   2.14795   2.15958   2.19373
 Alpha virt. eigenvalues --    2.21111   2.21895   2.23219   2.23760   2.25025
 Alpha virt. eigenvalues --    2.26287   2.27284   2.27669   2.28829   2.29172
 Alpha virt. eigenvalues --    2.30441   2.31563   2.31651   2.32119   2.32810
 Alpha virt. eigenvalues --    2.33400   2.33707   2.34004   2.34432   2.34506
 Alpha virt. eigenvalues --    2.35247   2.35392   2.36203   2.36463   2.36835
 Alpha virt. eigenvalues --    2.37045   2.37435   2.38287   2.38697   2.39278
 Alpha virt. eigenvalues --    2.39496   2.39560   2.40067   2.40814   2.40971
 Alpha virt. eigenvalues --    2.41377   2.42078   2.43069   2.47596   2.48659
 Alpha virt. eigenvalues --    2.49863   2.50827   2.51909   2.52091   2.52881
 Alpha virt. eigenvalues --    2.54037   2.54523   2.55370   2.56418   2.58213
 Alpha virt. eigenvalues --    2.58383   2.58549   2.60282   2.61887   2.62367
 Alpha virt. eigenvalues --    2.62723   2.63072   2.63614   2.64852   2.65609
 Alpha virt. eigenvalues --    2.66133   2.66752   2.66944   2.67280   2.68004
 Alpha virt. eigenvalues --    2.68687   2.69805   2.70285   2.71244   2.71889
 Alpha virt. eigenvalues --    2.72669   2.74051   2.74930   2.76406   2.77923
 Alpha virt. eigenvalues --    2.78937   2.80204   2.80408   2.81168   2.83007
 Alpha virt. eigenvalues --    2.83310   2.84219   2.85399   2.87088   2.87891
 Alpha virt. eigenvalues --    2.89647   2.90233   2.94132   2.94667   2.95634
 Alpha virt. eigenvalues --    2.96603   2.97968   2.98933   2.99990   3.00281
 Alpha virt. eigenvalues --    3.00619   3.01697   3.03101   3.04193   3.04941
 Alpha virt. eigenvalues --    3.05257   3.05739   3.06117   3.06837   3.08703
 Alpha virt. eigenvalues --    3.09924   3.10491   3.11880   3.12014   3.13450
 Alpha virt. eigenvalues --    3.14593   3.15312   3.16245   3.17677   3.18257
 Alpha virt. eigenvalues --    3.18433   3.19851   3.20850   3.21259   3.22191
 Alpha virt. eigenvalues --    3.22752   3.24347   3.24933   3.25914   3.27483
 Alpha virt. eigenvalues --    3.28485   3.30247   3.30718   3.31423   3.33468
 Alpha virt. eigenvalues --    3.35583   3.37603   3.38293   3.40791   3.41511
 Alpha virt. eigenvalues --    3.41965   3.42609   3.48023   3.55101   3.56021
 Alpha virt. eigenvalues --    3.57214   3.58713   3.59330   3.59989   3.72883
 Alpha virt. eigenvalues --    3.81213   3.84871   3.92063   4.07239   4.08058
 Alpha virt. eigenvalues --    4.31955   4.32536  21.08609  21.24008  21.26338
 Alpha virt. eigenvalues --   21.33167  21.62658  21.68543  21.70459  21.73595
 Alpha virt. eigenvalues --   21.75432  21.76582  21.82693  21.85828  21.91501
 Alpha virt. eigenvalues --   21.94125  21.96263  21.96904  21.98682  22.00028
 Alpha virt. eigenvalues --   22.03169  22.04539  22.08522  22.10064  22.14933
 Alpha virt. eigenvalues --   22.18223  32.05403  43.23525  43.25331
          Condensed to atoms (all electrons):
               1          2          3          4          5          6
     1  C    5.028961   0.446462   0.368403   0.002228   0.010107  -0.118354
     2  C    0.446462   5.014363  -0.011624   0.445371  -0.089756  -0.010161
     3  C    0.368403  -0.011624   5.224689  -0.117038   0.396409  -0.032891
     4  C    0.002228   0.445371  -0.117038   5.031508   0.011629   0.365257
     5  C    0.010107  -0.089756   0.396409   0.011629   5.449762   0.394499
     6  C   -0.118354  -0.010161  -0.032891   0.365257   0.394499   5.223965
     7  H   -0.064018   0.421909   0.020055  -0.064079  -0.004890   0.020067
     8  H   -0.041141   0.012346   0.406036  -0.002051  -0.056820   0.017043
     9  H    0.015267  -0.063316  -0.000878   0.416601   0.016704  -0.056669
    10  H   -0.002127   0.012416   0.017278  -0.041453  -0.056337   0.405826
    11  C    0.022391   0.006351  -0.098210   0.020167   0.159581  -0.092498
    12  C   -0.000543   0.000067   0.027680   0.002459  -0.133551  -0.014973
    13  C    0.001670   0.000046  -0.016271   0.000001  -0.138585   0.027331
    14  C    0.000335  -0.000027  -0.001395  -0.000419   0.040427   0.001471
    15  C   -0.000172  -0.000029   0.002339   0.000286   0.043698  -0.001406
    16  C   -0.000077   0.000011   0.000017  -0.000034  -0.012442   0.000648
    17  H   -0.000084   0.000073  -0.000364   0.000570  -0.021101   0.004780
    18  H    0.000326   0.000067   0.004505  -0.000028  -0.021003  -0.000365
    19  H   -0.000001   0.000000   0.000012  -0.000006  -0.001097  -0.000042
    20  H   -0.000003   0.000000  -0.000013  -0.000001  -0.000881   0.000007
    21  H    0.416396  -0.063283  -0.056309   0.015274   0.016647  -0.000919
    22  N   -0.000000   0.000000   0.000009  -0.000000  -0.000262   0.000006
    23  C   -0.000001   0.000000  -0.000015   0.000000  -0.000076   0.000010
    24  C    0.000000   0.000000  -0.000000  -0.000000  -0.000000   0.000000
    25  C   -0.000000   0.000000   0.000007   0.000000  -0.000002  -0.000015
    26  C    0.000000  -0.000000   0.000000   0.000000   0.000000  -0.000000
    27  C    0.000000  -0.000000   0.000000   0.000000   0.000002  -0.000001
    28  C    0.000000  -0.000000   0.000000  -0.000000   0.000000   0.000000
    29  H   -0.000000   0.000000   0.000000   0.000000  -0.000000   0.000000
    30  H   -0.000000   0.000000   0.000000   0.000000  -0.000057   0.000005
    31  H   -0.000000   0.000000   0.000000  -0.000000  -0.000000  -0.000000
    32  H    0.000000  -0.000000   0.000000  -0.000000  -0.000000   0.000000
    33  C    0.000000   0.000000   0.000003  -0.000001  -0.000121  -0.000012
    34  C   -0.000000   0.000000   0.000000   0.000000  -0.000000  -0.000000
    35  C    0.000000   0.000000  -0.000010  -0.000000  -0.000054   0.000007
    36  C   -0.000000  -0.000000  -0.000000   0.000000   0.000001   0.000000
    37  C    0.000000  -0.000000  -0.000000   0.000000   0.000006   0.000000
    38  C    0.000000   0.000000   0.000000   0.000000  -0.000001   0.000000
    39  H    0.000000   0.000000   0.000000  -0.000000  -0.000000   0.000000
    40  H    0.000000   0.000000   0.000005  -0.000000  -0.000083   0.000001
    41  H   -0.000000   0.000000  -0.000000  -0.000000  -0.000000  -0.000000
    42  H   -0.000000   0.000000  -0.000000   0.000000  -0.000000   0.000000
    43  O    0.000000   0.000000  -0.000000  -0.000000   0.000000  -0.000000
    44  H   -0.000000   0.000000  -0.000000  -0.000000  -0.000000  -0.000000
    45  O   -0.000000  -0.000000  -0.000000  -0.000000   0.000000  -0.000000
    46  H   -0.000000   0.000000  -0.000000  -0.000000  -0.000000   0.000000
               7          8          9         10         11         12
     1  C   -0.064018  -0.041141   0.015267  -0.002127   0.022391  -0.000543
     2  C    0.421909   0.012346  -0.063316   0.012416   0.006351   0.000067
     3  C    0.020055   0.406036  -0.000878   0.017278  -0.098210   0.027680
     4  C   -0.064079  -0.002051   0.416601  -0.041453   0.020167   0.002459
     5  C   -0.004890  -0.056820   0.016704  -0.056337   0.159581  -0.133551
     6  C    0.020067   0.017043  -0.056669   0.405826  -0.092498  -0.014973
     7  H    0.585917  -0.000236  -0.008890  -0.000236  -0.000185  -0.000007
     8  H   -0.000236   0.558892   0.000043  -0.000184  -0.021009  -0.000200
     9  H   -0.008890   0.000043   0.589914  -0.007404  -0.001632  -0.000018
    10  H   -0.000236  -0.000184  -0.007404   0.559150  -0.020709   0.006269
    11  C   -0.000185  -0.021009  -0.001632  -0.020709   5.536904   0.337655
    12  C   -0.000007  -0.000200  -0.000018   0.006269   0.337655   5.459976
    13  C   -0.000007   0.006225   0.000018  -0.000329   0.365935   0.004436
    14  C    0.000000  -0.000203  -0.000012   0.000591   0.016132   0.173335
    15  C    0.000000   0.000918  -0.000002  -0.000156  -0.000839  -0.148170
    16  C   -0.000000   0.000041   0.000000   0.000055  -0.144367   0.055183
    17  H   -0.000003  -0.000028   0.000008   0.001523  -0.077364   0.408707
    18  H   -0.000003   0.001569   0.000000  -0.000032  -0.077156   0.018553
    19  H    0.000000   0.000001  -0.000000   0.000004   0.014637  -0.051002
    20  H    0.000000   0.000007   0.000000   0.000001   0.014201  -0.000013
    21  H   -0.008883  -0.007381  -0.000264   0.000043  -0.001623   0.000018
    22  N   -0.000000  -0.000002  -0.000000  -0.000001   0.004060   0.020990
    23  C   -0.000000  -0.000000  -0.000000   0.000000  -0.000661   0.001143
    24  C    0.000000  -0.000000  -0.000000   0.000000   0.000034  -0.000249
    25  C    0.000000   0.000000   0.000000  -0.000002  -0.000033   0.001380
    26  C    0.000000  -0.000000  -0.000000  -0.000000   0.000017  -0.000085
    27  C    0.000000   0.000000   0.000000  -0.000000  -0.000086   0.000054
    28  C   -0.000000   0.000000   0.000000   0.000000   0.000013  -0.000005
    29  H   -0.000000   0.000000  -0.000000   0.000000  -0.000000   0.000017
    30  H    0.000000   0.000000  -0.000000   0.000001   0.000134   0.000914
    31  H   -0.000000  -0.000000  -0.000000  -0.000000  -0.000007   0.000004
    32  H   -0.000000   0.000000   0.000000   0.000000  -0.000000   0.000000
    33  C   -0.000000  -0.000001  -0.000000  -0.000001   0.001931  -0.009772
    34  C    0.000000   0.000000  -0.000000  -0.000000   0.000139   0.001789
    35  C    0.000000  -0.000002  -0.000000   0.000001  -0.002093  -0.006533
    36  C   -0.000000  -0.000000   0.000000  -0.000000   0.000065   0.000029
    37  C    0.000000  -0.000000   0.000000   0.000000  -0.000066  -0.000522
    38  C   -0.000000   0.000000  -0.000000   0.000000  -0.000021  -0.000094
    39  H   -0.000000   0.000000  -0.000000   0.000000  -0.000008  -0.000043
    40  H   -0.000000   0.000002  -0.000000   0.000000   0.000142  -0.002257
    41  H   -0.000000  -0.000000  -0.000000  -0.000000  -0.000000  -0.000003
    42  H   -0.000000  -0.000000  -0.000000   0.000000   0.000002   0.000009
    43  O    0.000000   0.000000   0.000000  -0.000000   0.000000   0.000000
    44  H    0.000000  -0.000000  -0.000000  -0.000000  -0.000000   0.000000
    45  O    0.000000  -0.000000   0.000000  -0.000000  -0.000000   0.000000
    46  H    0.000000  -0.000000  -0.000000   0.000000   0.000000  -0.000000
              13         14         15         16         17         18
     1  C    0.001670   0.000335  -0.000172  -0.000077  -0.000084   0.000326
     2  C    0.000046  -0.000027  -0.000029   0.000011   0.000073   0.000067
     3  C   -0.016271  -0.001395   0.002339   0.000017  -0.000364   0.004505
     4  C    0.000001  -0.000419   0.000286  -0.000034   0.000570  -0.000028
     5  C   -0.138585   0.040427   0.043698  -0.012442  -0.021101  -0.021003
     6  C    0.027331   0.001471  -0.001406   0.000648   0.004780  -0.000365
     7  H   -0.000007   0.000000   0.000000  -0.000000  -0.000003  -0.000003
     8  H    0.006225  -0.000203   0.000918   0.000041  -0.000028   0.001569
     9  H    0.000018  -0.000012  -0.000002   0.000000   0.000008   0.000000
    10  H   -0.000329   0.000591  -0.000156   0.000055   0.001523  -0.000032
    11  C    0.365935   0.016132  -0.000839  -0.144367  -0.077364  -0.077156
    12  C    0.004436   0.173335  -0.148170   0.055183   0.408707   0.018553
    13  C    5.414116  -0.151400   0.208765   0.030995   0.018709   0.409200
    14  C   -0.151400   5.442696  -0.070809   0.295752  -0.032022  -0.002145
    15  C    0.208765  -0.070809   5.446960   0.321494  -0.002239  -0.032307
    16  C    0.030995   0.295752   0.321494   5.521233   0.019217   0.018621
    17  H    0.018709  -0.032022  -0.002239   0.019217   0.566157  -0.000128
    18  H    0.409200  -0.002145  -0.032307   0.018621  -0.000128   0.567948
    19  H    0.000389   0.408197   0.011271  -0.050138  -0.007314   0.000020
    20  H   -0.037182   0.011024   0.404190  -0.053436   0.000010  -0.007246
    21  H   -0.000017  -0.000002  -0.000011   0.000000   0.000000   0.000008
    22  N    0.020840  -0.022025  -0.012188   0.170422  -0.000505  -0.000577
    23  C    0.001169  -0.014964   0.009739  -0.074740   0.000082   0.000075
    24  C    0.001576  -0.013019   0.023878  -0.008459   0.000002  -0.000016
    25  C   -0.010404   0.026671  -0.060174   0.019916  -0.000043  -0.000187
    26  C    0.000039  -0.000266   0.002174  -0.002327   0.000000  -0.000001
    27  C   -0.001073   0.000988  -0.008757   0.001136  -0.000001   0.000002
    28  C   -0.000188   0.000325  -0.000998   0.003639  -0.000000  -0.000003
    29  H   -0.000030  -0.000155   0.000044  -0.001097  -0.000000  -0.000000
    30  H   -0.002054  -0.000463   0.001522   0.001694   0.000006   0.000003
    31  H    0.000025  -0.000032  -0.000146  -0.000111   0.000000  -0.000000
    32  H   -0.000001   0.000001  -0.000013   0.000021  -0.000000   0.000000
    33  C   -0.002926   0.042402  -0.008061  -0.104622  -0.000073   0.000054
    34  C   -0.000616   0.012586  -0.011385  -0.019337  -0.000060  -0.000001
    35  C    0.004983  -0.053856   0.012746   0.030594   0.000033  -0.000016
    36  C   -0.000123   0.002560   0.000319  -0.001441  -0.000006   0.000000
    37  C    0.000167  -0.005066   0.001366   0.000456   0.000032  -0.000002
    38  C    0.000028  -0.002049  -0.000013   0.001956  -0.000003   0.000000
    39  H    0.000030   0.000804  -0.000469  -0.001541  -0.000001   0.000000
    40  H    0.001028   0.002430  -0.002091  -0.001551  -0.000029   0.000005
    41  H    0.000000  -0.000043   0.000002  -0.000022   0.000000  -0.000000
    42  H   -0.000003   0.000145  -0.000025  -0.000228  -0.000000  -0.000000
    43  O   -0.000000   0.000010   0.000000  -0.000009  -0.000000  -0.000000
    44  H    0.000000  -0.000000   0.000000  -0.000001   0.000000   0.000000
    45  O    0.000001  -0.000001   0.000018  -0.000005  -0.000000  -0.000000
    46  H    0.000000  -0.000000   0.000003  -0.000008   0.000000  -0.000000
              19         20         21         22         23         24
     1  C   -0.000001  -0.000003   0.416396  -0.000000  -0.000001   0.000000
     2  C    0.000000   0.000000  -0.063283   0.000000   0.000000   0.000000
     3  C    0.000012  -0.000013  -0.056309   0.000009  -0.000015  -0.000000
     4  C   -0.000006  -0.000001   0.015274  -0.000000   0.000000  -0.000000
     5  C   -0.001097  -0.000881   0.016647  -0.000262  -0.000076  -0.000000
     6  C   -0.000042   0.000007  -0.000919   0.000006   0.000010   0.000000
     7  H    0.000000   0.000000  -0.008883  -0.000000  -0.000000   0.000000
     8  H    0.000001   0.000007  -0.007381  -0.000002  -0.000000  -0.000000
     9  H   -0.000000   0.000000  -0.000264  -0.000000  -0.000000  -0.000000
    10  H    0.000004   0.000001   0.000043  -0.000001   0.000000   0.000000
    11  C    0.014637   0.014201  -0.001623   0.004060  -0.000661   0.000034
    12  C   -0.051002  -0.000013   0.000018   0.020990   0.001143  -0.000249
    13  C    0.000389  -0.037182  -0.000017   0.020840   0.001169   0.001576
    14  C    0.408197   0.011024  -0.000002  -0.022025  -0.014964  -0.013019
    15  C    0.011271   0.404190  -0.000011  -0.012188   0.009739   0.023878
    16  C   -0.050138  -0.053436   0.000000   0.170422  -0.074740  -0.008459
    17  H   -0.007314   0.000010   0.000000  -0.000505   0.000082   0.000002
    18  H    0.000020  -0.007246   0.000008  -0.000577   0.000075  -0.000016
    19  H    0.540371  -0.000264   0.000000  -0.009960  -0.001919  -0.000249
    20  H   -0.000264   0.522263  -0.000000  -0.004059  -0.000066  -0.000507
    21  H    0.000000  -0.000000   0.589629  -0.000000  -0.000000   0.000000
    22  N   -0.009960  -0.004059  -0.000000   6.576070   0.193796  -0.048647
    23  C   -0.001919  -0.000066  -0.000000   0.193796   5.355082   0.249001
    24  C   -0.000249  -0.000507   0.000000  -0.048647   0.249001   6.111933
    25  C    0.000304   0.001632  -0.000000  -0.003595   0.377869  -0.205629
    26  C    0.000024   0.000582  -0.000000   0.027202   0.056849   0.085574
    27  C   -0.000009  -0.001784  -0.000000   0.011291  -0.032671   0.046346
    28  C    0.000002   0.000847   0.000000   0.006728  -0.037568  -0.374274
    29  H   -0.000013   0.000017  -0.000000  -0.014784  -0.025180   0.382567
    30  H   -0.000035   0.000862   0.000000  -0.006377  -0.039435   0.010271
    31  H   -0.000001  -0.000050  -0.000000  -0.000668   0.015208   0.001935
    32  H    0.000000   0.000002   0.000000  -0.000043  -0.003146   0.020886
    33  C    0.009049  -0.001738  -0.000000   0.086218  -0.091080   0.070787
    34  C   -0.004856  -0.000424  -0.000000  -0.019629   0.034031  -0.086364
    35  C    0.003727   0.000843   0.000000  -0.007600  -0.020549   0.014674
    36  C    0.002474   0.000027   0.000000   0.030772  -0.006673  -0.001743
    37  C   -0.002336   0.000013   0.000000   0.017765  -0.001978   0.002336
    38  C    0.000349  -0.000004  -0.000000   0.003587   0.001733  -0.002782
    39  H    0.000214  -0.000007  -0.000000  -0.007122  -0.002201   0.004684
    40  H    0.001110   0.000026  -0.000000  -0.008700  -0.001303   0.000366
    41  H    0.000018  -0.000000  -0.000000  -0.000794  -0.000036   0.000112
    42  H   -0.000009   0.000000  -0.000000  -0.000599  -0.000001  -0.000034
    43  O   -0.000009  -0.000000   0.000000  -0.000007   0.000009   0.000004
    44  H   -0.000002  -0.000000  -0.000000  -0.000004  -0.000000  -0.000002
    45  O   -0.000000  -0.000002   0.000000  -0.000024   0.011513  -0.102921
    46  H    0.000000  -0.000000  -0.000000   0.000019  -0.003244   0.024476
              25         26         27         28         29         30
     1  C   -0.000000   0.000000   0.000000   0.000000  -0.000000  -0.000000
     2  C    0.000000  -0.000000  -0.000000  -0.000000   0.000000   0.000000
     3  C    0.000007   0.000000   0.000000   0.000000   0.000000   0.000000
     4  C    0.000000   0.000000   0.000000  -0.000000   0.000000   0.000000
     5  C   -0.000002   0.000000   0.000002   0.000000  -0.000000  -0.000057
     6  C   -0.000015  -0.000000  -0.000001   0.000000   0.000000   0.000005
     7  H    0.000000   0.000000   0.000000  -0.000000  -0.000000   0.000000
     8  H    0.000000  -0.000000   0.000000   0.000000   0.000000   0.000000
     9  H    0.000000  -0.000000   0.000000   0.000000  -0.000000  -0.000000
    10  H   -0.000002  -0.000000  -0.000000   0.000000   0.000000   0.000001
    11  C   -0.000033   0.000017  -0.000086   0.000013  -0.000000   0.000134
    12  C    0.001380  -0.000085   0.000054  -0.000005   0.000017   0.000914
    13  C   -0.010404   0.000039  -0.001073  -0.000188  -0.000030  -0.002054
    14  C    0.026671  -0.000266   0.000988   0.000325  -0.000155  -0.000463
    15  C   -0.060174   0.002174  -0.008757  -0.000998   0.000044   0.001522
    16  C    0.019916  -0.002327   0.001136   0.003639  -0.001097   0.001694
    17  H   -0.000043   0.000000  -0.000001  -0.000000  -0.000000   0.000006
    18  H   -0.000187  -0.000001   0.000002  -0.000003  -0.000000   0.000003
    19  H    0.000304   0.000024  -0.000009   0.000002  -0.000013  -0.000035
    20  H    0.001632   0.000582  -0.001784   0.000847   0.000017   0.000862
    21  H   -0.000000  -0.000000  -0.000000   0.000000  -0.000000   0.000000
    22  N   -0.003595   0.027202   0.011291   0.006728  -0.014784  -0.006377
    23  C    0.377869   0.056849  -0.032671  -0.037568  -0.025180  -0.039435
    24  C   -0.205629   0.085574   0.046346  -0.374274   0.382567   0.010271
    25  C    5.342894  -0.092807   0.369496   0.036106   0.014589   0.392774
    26  C   -0.092807   5.228634   0.066423   0.314275  -0.051040   0.000081
    27  C    0.369496   0.066423   5.136109   0.153016  -0.003398  -0.035095
    28  C    0.036106   0.314275   0.153016   5.849799   0.016044   0.012251
    29  H    0.014589  -0.051040  -0.003398   0.016044   0.515688  -0.000218
    30  H    0.392774   0.000081  -0.035095   0.012251  -0.000218   0.516875
    31  H   -0.049956   0.014383   0.409316  -0.063989   0.000028  -0.007498
    32  H    0.017524  -0.077738  -0.017916   0.385078  -0.000225  -0.000241
    33  C   -0.006251  -0.018273  -0.002574  -0.000047   0.009398  -0.001345
    34  C    0.020619  -0.006898   0.001399   0.001392   0.006778   0.000573
    35  C   -0.010230   0.001750  -0.000056  -0.000166  -0.005193  -0.000396
    36  C    0.001348   0.000858   0.000027   0.000076  -0.003532  -0.000009
    37  C    0.000075   0.000117  -0.000078   0.000040   0.001631   0.000021
    38  C   -0.000006  -0.000229   0.000029  -0.000019   0.000305  -0.000005
    39  H   -0.000449  -0.003888   0.000819  -0.000130   0.000886   0.000007
    40  H   -0.000322  -0.000084   0.000028  -0.000014   0.000092  -0.000011
    41  H   -0.000033   0.000011  -0.000002  -0.000000  -0.000005   0.000000
    42  H    0.000003  -0.000003  -0.000000   0.000000   0.000023   0.000000
    43  O    0.000000   0.000000  -0.000000   0.000000  -0.000007   0.000000
    44  H   -0.000000   0.000000   0.000000  -0.000000   0.000001  -0.000000
    45  O   -0.001699   0.419556   0.016915  -0.112092   0.003110   0.000005
    46  H   -0.000304  -0.030936   0.006722  -0.038256  -0.000705  -0.000002
              31         32         33         34         35         36
     1  C   -0.000000   0.000000   0.000000  -0.000000   0.000000  -0.000000
     2  C    0.000000  -0.000000   0.000000   0.000000   0.000000  -0.000000
     3  C    0.000000   0.000000   0.000003   0.000000  -0.000010  -0.000000
     4  C   -0.000000  -0.000000  -0.000001   0.000000  -0.000000   0.000000
     5  C   -0.000000  -0.000000  -0.000121  -0.000000  -0.000054   0.000001
     6  C   -0.000000   0.000000  -0.000012  -0.000000   0.000007   0.000000
     7  H   -0.000000  -0.000000  -0.000000   0.000000   0.000000  -0.000000
     8  H   -0.000000   0.000000  -0.000001   0.000000  -0.000002  -0.000000
     9  H   -0.000000   0.000000  -0.000000  -0.000000  -0.000000   0.000000
    10  H   -0.000000   0.000000  -0.000001  -0.000000   0.000001  -0.000000
    11  C   -0.000007  -0.000000   0.001931   0.000139  -0.002093   0.000065
    12  C    0.000004   0.000000  -0.009772   0.001789  -0.006533   0.000029
    13  C    0.000025  -0.000001  -0.002926  -0.000616   0.004983  -0.000123
    14  C   -0.000032   0.000001   0.042402   0.012586  -0.053856   0.002560
    15  C   -0.000146  -0.000013  -0.008061  -0.011385   0.012746   0.000319
    16  C   -0.000111   0.000021  -0.104622  -0.019337   0.030594  -0.001441
    17  H    0.000000  -0.000000  -0.000073  -0.000060   0.000033  -0.000006
    18  H   -0.000000   0.000000   0.000054  -0.000001  -0.000016   0.000000
    19  H   -0.000001   0.000000   0.009049  -0.004856   0.003727   0.002474
    20  H   -0.000050   0.000002  -0.001738  -0.000424   0.000843   0.000027
    21  H   -0.000000   0.000000  -0.000000  -0.000000   0.000000   0.000000
    22  N   -0.000668  -0.000043   0.086218  -0.019629  -0.007600   0.030772
    23  C    0.015208  -0.003146  -0.091080   0.034031  -0.020549  -0.006673
    24  C    0.001935   0.020886   0.070787  -0.086364   0.014674  -0.001743
    25  C   -0.049956   0.017524  -0.006251   0.020619  -0.010230   0.001348
    26  C    0.014383  -0.077738  -0.018273  -0.006898   0.001750   0.000858
    27  C    0.409316  -0.017916  -0.002574   0.001399  -0.000056   0.000027
    28  C   -0.063989   0.385078  -0.000047   0.001392  -0.000166   0.000076
    29  H    0.000028  -0.000225   0.009398   0.006778  -0.005193  -0.003532
    30  H   -0.007498  -0.000241  -0.001345   0.000573  -0.000396  -0.000009
    31  H    0.589409  -0.007749   0.000052  -0.000027  -0.000001  -0.000001
    32  H   -0.007749   0.587989   0.000028  -0.000010   0.000001  -0.000001
    33  C    0.000052   0.000028   5.731852   0.247675   0.329770   0.123688
    34  C   -0.000027  -0.000010   0.247675   5.618415  -0.117356  -0.219835
    35  C   -0.000001   0.000001   0.329770  -0.117356   5.185182  -0.080935
    36  C   -0.000001  -0.000001   0.123688  -0.219835  -0.080935   6.201940
    37  C    0.000000  -0.000000   0.040065  -0.031105   0.302577  -0.158415
    38  C    0.000000   0.000000  -0.173304   0.144350   0.014807   0.107600
    39  H    0.000002   0.000003  -0.035243   0.403675   0.013326  -0.051189
    40  H   -0.000000   0.000000  -0.056442   0.019743   0.438336  -0.005014
    41  H    0.000000  -0.000000   0.013824   0.011552   0.003671   0.377193
    42  H   -0.000000  -0.000000   0.020083  -0.003853  -0.047978   0.018633
    43  O   -0.000000   0.000000  -0.001493   0.021361   0.005458  -0.115138
    44  H    0.000000  -0.000000  -0.000854   0.008363  -0.001600  -0.042767
    45  O   -0.000108  -0.005658  -0.000434   0.000586  -0.000013   0.000008
    46  H   -0.000030   0.002911  -0.000002  -0.000034   0.000003  -0.000001
              37         38         39         40         41         42
     1  C    0.000000   0.000000   0.000000   0.000000  -0.000000  -0.000000
     2  C   -0.000000   0.000000   0.000000   0.000000   0.000000   0.000000
     3  C   -0.000000   0.000000   0.000000   0.000005  -0.000000  -0.000000
     4  C    0.000000   0.000000  -0.000000  -0.000000  -0.000000   0.000000
     5  C    0.000006  -0.000001  -0.000000  -0.000083  -0.000000  -0.000000
     6  C    0.000000   0.000000   0.000000   0.000001  -0.000000   0.000000
     7  H    0.000000  -0.000000  -0.000000  -0.000000  -0.000000  -0.000000
     8  H   -0.000000   0.000000   0.000000   0.000002  -0.000000  -0.000000
     9  H    0.000000  -0.000000  -0.000000  -0.000000  -0.000000  -0.000000
    10  H    0.000000   0.000000   0.000000   0.000000  -0.000000   0.000000
    11  C   -0.000066  -0.000021  -0.000008   0.000142  -0.000000   0.000002
    12  C   -0.000522  -0.000094  -0.000043  -0.002257  -0.000003   0.000009
    13  C    0.000167   0.000028   0.000030   0.001028   0.000000  -0.000003
    14  C   -0.005066  -0.002049   0.000804   0.002430  -0.000043   0.000145
    15  C    0.001366  -0.000013  -0.000469  -0.002091   0.000002  -0.000025
    16  C    0.000456   0.001956  -0.001541  -0.001551  -0.000022  -0.000228
    17  H    0.000032  -0.000003  -0.000001  -0.000029   0.000000  -0.000000
    18  H   -0.000002   0.000000   0.000000   0.000005  -0.000000  -0.000000
    19  H   -0.002336   0.000349   0.000214   0.001110   0.000018  -0.000009
    20  H    0.000013  -0.000004  -0.000007   0.000026  -0.000000   0.000000
    21  H    0.000000  -0.000000  -0.000000  -0.000000  -0.000000  -0.000000
    22  N    0.017765   0.003587  -0.007122  -0.008700  -0.000794  -0.000599
    23  C   -0.001978   0.001733  -0.002201  -0.001303  -0.000036  -0.000001
    24  C    0.002336  -0.002782   0.004684   0.000366   0.000112  -0.000034
    25  C    0.000075  -0.000006  -0.000449  -0.000322  -0.000033   0.000003
    26  C    0.000117  -0.000229  -0.003888  -0.000084   0.000011  -0.000003
    27  C   -0.000078   0.000029   0.000819   0.000028  -0.000002  -0.000000
    28  C    0.000040  -0.000019  -0.000130  -0.000014  -0.000000   0.000000
    29  H    0.001631   0.000305   0.000886   0.000092  -0.000005   0.000023
    30  H    0.000021  -0.000005   0.000007  -0.000011   0.000000   0.000000
    31  H    0.000000   0.000000   0.000002  -0.000000   0.000000  -0.000000
    32  H   -0.000000   0.000000   0.000003   0.000000  -0.000000  -0.000000
    33  C    0.040065  -0.173304  -0.035243  -0.056442   0.013824   0.020083
    34  C   -0.031105   0.144350   0.403675   0.019743   0.011552  -0.003853
    35  C    0.302577   0.014807   0.013326   0.438336   0.003671  -0.047978
    36  C   -0.158415   0.107600  -0.051189  -0.005014   0.377193   0.018633
    37  C    5.378371   0.379145  -0.000854  -0.078819   0.005363   0.421339
    38  C    0.379145   5.147672   0.011802   0.021267  -0.087450  -0.080802
    39  H   -0.000854   0.011802   0.540049  -0.000235  -0.006697   0.000031
    40  H   -0.078819   0.021267  -0.000235   0.550718   0.000032  -0.009373
    41  H    0.005363  -0.087450  -0.006697   0.000032   0.581654  -0.000307
    42  H    0.421339  -0.080802   0.000031  -0.009373  -0.000307   0.564136
    43  O   -0.078951   0.406168  -0.000072  -0.000117  -0.006282   0.002473
    44  H    0.018883  -0.024032  -0.000044   0.000034   0.001773  -0.000757
    45  O   -0.000001   0.000009   0.000011  -0.000001  -0.000002   0.000000
    46  H   -0.000000   0.000000  -0.000000  -0.000000   0.000000  -0.000000
              43         44         45         46
     1  C    0.000000  -0.000000  -0.000000  -0.000000
     2  C    0.000000   0.000000  -0.000000   0.000000
     3  C   -0.000000  -0.000000  -0.000000  -0.000000
     4  C   -0.000000  -0.000000  -0.000000  -0.000000
     5  C    0.000000  -0.000000   0.000000  -0.000000
     6  C   -0.000000  -0.000000  -0.000000   0.000000
     7  H    0.000000   0.000000   0.000000   0.000000
     8  H    0.000000  -0.000000  -0.000000  -0.000000
     9  H    0.000000  -0.000000   0.000000  -0.000000
    10  H   -0.000000  -0.000000  -0.000000   0.000000
    11  C    0.000000  -0.000000  -0.000000   0.000000
    12  C    0.000000   0.000000   0.000000  -0.000000
    13  C   -0.000000   0.000000   0.000001   0.000000
    14  C    0.000010  -0.000000  -0.000001  -0.000000
    15  C    0.000000   0.000000   0.000018   0.000003
    16  C   -0.000009  -0.000001  -0.000005  -0.000008
    17  H   -0.000000   0.000000  -0.000000   0.000000
    18  H   -0.000000   0.000000  -0.000000  -0.000000
    19  H   -0.000009  -0.000002  -0.000000   0.000000
    20  H   -0.000000  -0.000000  -0.000002  -0.000000
    21  H    0.000000  -0.000000   0.000000  -0.000000
    22  N   -0.000007  -0.000004  -0.000024   0.000019
    23  C    0.000009  -0.000000   0.011513  -0.003244
    24  C    0.000004  -0.000002  -0.102921   0.024476
    25  C    0.000000  -0.000000  -0.001699  -0.000304
    26  C    0.000000   0.000000   0.419556  -0.030936
    27  C   -0.000000   0.000000   0.016915   0.006722
    28  C    0.000000  -0.000000  -0.112092  -0.038256
    29  H   -0.000007   0.000001   0.003110  -0.000705
    30  H    0.000000  -0.000000   0.000005  -0.000002
    31  H   -0.000000   0.000000  -0.000108  -0.000030
    32  H    0.000000  -0.000000  -0.005658   0.002911
    33  C   -0.001493  -0.000854  -0.000434  -0.000002
    34  C    0.021361   0.008363   0.000586  -0.000034
    35  C    0.005458  -0.001600  -0.000013   0.000003
    36  C   -0.115138  -0.042767   0.000008  -0.000001
    37  C   -0.078951   0.018883  -0.000001  -0.000000
    38  C    0.406168  -0.024032   0.000009   0.000000
    39  H   -0.000072  -0.000044   0.000011  -0.000000
    40  H   -0.000117   0.000034  -0.000001  -0.000000
    41  H   -0.006282   0.001773  -0.000002   0.000000
    42  H    0.002473  -0.000757   0.000000  -0.000000
    43  O    7.704584   0.301292   0.000000  -0.000000
    44  H    0.301292   0.470800   0.000000   0.000000
    45  O    0.000000   0.000000   7.706773   0.299790
    46  H   -0.000000   0.000000   0.299790   0.470832
 Mulliken charges:
               1
     1  C   -0.086026
     2  C   -0.121286
     3  C   -0.132428
     4  C   -0.086241
     5  C   -0.002349
     6  C   -0.132619
     7  H    0.103490
     8  H    0.126136
     9  H    0.100531
    10  H    0.125813
    11  C    0.038075
    12  C   -0.152626
    13  C   -0.156514
    14  C   -0.108504
    15  C   -0.131273
    16  C   -0.017109
    17  H    0.121460
    18  H    0.120259
    19  H    0.137087
    20  H    0.151127
    21  H    0.100677
    22  N   -0.001602
    23  C    0.050198
    24  C   -0.206548
    25  C   -0.181068
    26  C    0.066022
    27  C   -0.116617
    28  C   -0.151884
    29  H    0.154365
    30  H    0.155240
    31  H    0.100012
    32  H    0.098296
    33  C   -0.212211
    34  C   -0.033234
    35  C   -0.007856
    36  C   -0.180795
    37  C   -0.211578
    38  C    0.130008
    39  H    0.133853
    40  H    0.131082
    41  H    0.106470
    42  H    0.117093
    43  O   -0.239277
    44  H    0.268914
    45  O   -0.235332
    46  H    0.268765
 Sum of Mulliken charges =  -0.00000
 Mulliken charges with hydrogens summed into heavy atoms:
               1
     1  C    0.014651
     2  C   -0.017796
     3  C   -0.006292
     4  C    0.014289
     5  C   -0.002349
     6  C   -0.006806
    11  C    0.038075
    12  C   -0.031165
    13  C   -0.036254
    14  C    0.028583
    15  C    0.019854
    16  C   -0.017109
    22  N   -0.001602
    23  C    0.050198
    24  C   -0.052183
    25  C   -0.025827
    26  C    0.066022
    27  C   -0.016605
    28  C   -0.053588
    33  C   -0.212211
    34  C    0.100619
    35  C    0.123227
    36  C   -0.074325
    37  C   -0.094485
    38  C    0.130008
    43  O    0.029637
    45  O    0.033434
 Electronic spatial extent (au):  <R**2>=          13387.1972
 Charge=             -0.0000 electrons
 Dipole moment (field-independent basis, Debye):
    X=              1.3849    Y=             -0.9804    Z=             -1.4361  Tot=              2.2230
 Quadrupole moment (field-independent basis, Debye-Ang):
   XX=           -138.1277   YY=           -146.2438   ZZ=           -152.3925
   XY=             -3.4693   XZ=             -8.5173   YZ=             -6.7981
 Traceless Quadrupole moment (field-independent basis, Debye-Ang):
   XX=              7.4603   YY=             -0.6558   ZZ=             -6.8045
   XY=             -3.4693   XZ=             -8.5173   YZ=             -6.7981
 Octapole moment (field-independent basis, Debye-Ang**2):
  XXX=             59.6604  YYY=            -67.4387  ZZZ=              5.6507  XYY=            112.0985
  XXY=             -5.9114  XXZ=            -38.5462  XZZ=             -8.8318  YZZ=             13.2753
  YYZ=            -22.9219  XYZ=            -17.7852
 Hexadecapole moment (field-independent basis, Debye-Ang**3):
 XXXX=         -11953.2475 YYYY=          -4116.6979 ZZZZ=           -793.8540 XXXY=            -68.1075
 XXXZ=           -183.1549 YYYX=           -246.0620 YYYZ=           -104.0370 ZZZX=              4.4870
 ZZZY=            -16.0220 XXYY=          -2502.4466 XXZZ=          -2237.4665 YYZZ=           -824.9622
 XXYZ=           -273.6706 YYXZ=            -95.1492 ZZXY=             47.5863
 N-N= 2.186775923160D+03 E-N=-7.005299035012D+03  KE= 1.125557258286D+03
 No NMR shielding tensors so no spin-rotation constants.
 Leave Link  601 at Sun Jan 17 21:51:22 2021, MaxMem=  4026531840 cpu:               3.0 elap:               0.4
 (Enter /opt/ohpc/pub/libs/gaussian/g16-A.03/sandybridge/g16/l9999.exe)

 Test job not archived.
 1\1\GINC-CASCADEB002\SP\RLC-wHPBE\TZVP\C24H19N1O2\RDU230\17-Jan-2021\0
 \\#P LC-wHPBE/TZVP iop(3/107=0176600000, 3/108=0176600000) scf=(conver
 =6,fermi,ndamp=35,noincfock,novaracc,vshift=500,xqc)\\H19 C24 N1 O2\\0
 ,1\C,0,-6.538108,-0.217341,1.255514\C,0,-7.258661,0.087287,0.107878\C,
 0,-5.15139,-0.259049,1.219222\C,0,-6.580697,0.348691,-1.075777\C,0,-4.
 458004,0.000662,0.035726\C,0,-5.193998,0.304569,-1.110911\H,0,-8.34564
 4,0.121015,0.135956\H,0,-4.59391,-0.476283,2.12835\H,0,-7.136138,0.581
 164,-1.982188\H,0,-4.671509,0.488761,-2.047704\C,0,-2.974479,-0.044963
 ,-0.00277\C,0,-2.240322,0.918366,-0.694597\C,0,-2.265576,-1.051297,0.6
 54611\C,0,-0.856277,0.875925,-0.739808\C,0,-0.88157,-1.094369,0.628888
 \C,0,-0.155643,-0.133238,-0.077397\H,0,-2.762026,1.727417,-1.202285\H,
 0,-2.809037,-1.823891,1.195264\H,0,-0.306381,1.639189,-1.284917\H,0,-0
 .352632,-1.885069,1.15502\H,0,-7.059465,-0.416189,2.189743\N,0,1.25702
 6,-0.160831,-0.103806\C,0,1.965402,-1.377887,-0.17457\C,0,3.190004,-1.
 508547,0.478017\C,0,1.461496,-2.456008,-0.912094\C,0,3.903051,-2.69689
 1,0.390217\C,0,2.178621,-3.638306,-0.97461\C,0,3.402953,-3.775056,-0.3
 32839\H,0,3.600761,-0.690157,1.062074\H,0,0.51484,-2.358097,-1.435231\
 H,0,1.782807,-4.471654,-1.551437\H,0,3.963923,-4.706428,-0.398055\C,0,
 1.972861,1.068372,-0.045814\C,0,2.971482,1.350948,-0.972341\C,0,1.6830
 86,2.012203,0.939258\C,0,3.67678,2.543988,-0.910119\C,0,2.365608,3.214
 996,0.992156\C,0,3.371443,3.4833,0.069272\H,0,3.205268,0.621566,-1.744
 392\H,0,0.904271,1.798314,1.667748\H,0,4.460878,2.747602,-1.639197\H,0
 ,2.139895,3.954598,1.756001\O,0,4.022986,4.680331,0.173244\H,0,4.69528
 7,4.73835,-0.517835\O,0,5.097214,-2.751708,1.053752\H,0,5.479651,-3.63
 1493,0.941087\\Version=EM64L-G16RevA.03\State=1-A\HF=-1130.485399\RMSD
 =9.767e-07\Dipole=0.5448636,-0.3857175,-0.5650135\Quadrupole=5.5465459
 ,-0.4875502,-5.0589957,-2.5793255,-6.3324326,-5.0542022\PG=C01 [X(C24H
 19N1O2)]\\@


 IF I AM NOT FOR MYSELF, WHO WILL BE?
 BUT IF I AM ONLY FOR MYSELF, WHAT AM I?
 THOUGH A SEEKER SINCE MY BIRTH,
 HERE IS ALL I'VE LEARNED ON EARTH,
 THIS IS THE GIST OF WHAT I KNOW:
 GIVE ADVICE AND BUY A FOE.

 PRESSED FOR RULES AND VERITIES,
 ALL I RECOLLECT ARE THESE:
 FEED A COLD TO STARVE A FEVER,
 ARGUE WITH NO TRUE-BELIEVER.
 THINK-TOO-LONG IS NEVER-ACT,
 SCRATCH A MYTH AND FIND A FACT.

 STITCH IN TIME SAVES TWENTY STITCHES,
 GIVE THE RICH TO PLEASE THEM, RICHES.
 GIVE TO LOVE YOU HEARTH AND HALL,
 BUT DO NOT GIVE ADVICE AT ALL.

                                  -- HILLEL
 Job cpu time:       0 days  1 hours 26 minutes 55.4 seconds.
 Elapsed time:       0 days  0 hours 10 minutes 54.2 seconds.
 File lengths (MBytes):  RWF=    176 Int=      0 D2E=      0 Chk=     28 Scr=      8
 Normal termination of Gaussian 16 at Sun Jan 17 21:51:22 2021.
