 Entering Gaussian System, Link 0=g16
 Input=mol_bp_ma_half_tune_n0.gjf
 Output=mol_bp_ma_half_tune_n0.log
 Initial command:
 /opt/ohpc/pub/libs/gaussian/g16-A.03/sandybridge/g16/l1.exe "/mnt/gpfs2_4m/scratch/rdu230/ondemand/projects/init_structures/wtuning/mol_bp_ma_half/tuning_mol_bp_ma_half_ocycle0/Gau-31611.inp" -scrdir="/mnt/gpfs2_4m/scratch/rdu230/ondemand/projects/init_structures/wtuning/mol_bp_ma_half/tuning_mol_bp_ma_half_ocycle0/"
 Entering Link 1 = /opt/ohpc/pub/libs/gaussian/g16-A.03/sandybridge/g16/l1.exe PID=     31612.
  
 Copyright (c) 1988,1990,1992,1993,1995,1998,2003,2009,2016,
            Gaussian, Inc.  All Rights Reserved.
  
 This is part of the Gaussian(R) 16 program.  It is based on
 the Gaussian(R) 09 system (copyright 2009, Gaussian, Inc.),
 the Gaussian(R) 03 system (copyright 2003, Gaussian, Inc.),
 the Gaussian(R) 98 system (copyright 1998, Gaussian, Inc.),
 the Gaussian(R) 94 system (copyright 1995, Gaussian, Inc.),
 the Gaussian 92(TM) system (copyright 1992, Gaussian, Inc.),
 the Gaussian 90(TM) system (copyright 1990, Gaussian, Inc.),
 the Gaussian 88(TM) system (copyright 1988, Gaussian, Inc.),
 the Gaussian 86(TM) system (copyright 1986, Carnegie Mellon
 University), and the Gaussian 82(TM) system (copyright 1983,
 Carnegie Mellon University). Gaussian is a federally registered
 trademark of Gaussian, Inc.
  
 This software contains proprietary and confidential information,
 including trade secrets, belonging to Gaussian, Inc.
  
 This software is provided under written license and may be
 used, copied, transmitted, or stored only in accord with that
 written license.
  
 The following legend is applicable only to US Government
 contracts under FAR:
  
                    RESTRICTED RIGHTS LEGEND
  
 Use, reproduction and disclosure by the US Government is
 subject to restrictions as set forth in subparagraphs (a)
 and (c) of the Commercial Computer Software - Restricted
 Rights clause in FAR 52.227-19.
  
 Gaussian, Inc.
 340 Quinnipiac St., Bldg. 40, Wallingford CT 06492
  
  
 ---------------------------------------------------------------
 Warning -- This program may not be used in any manner that
 competes with the business of Gaussian, Inc. or will provide
 assistance to any competitor of Gaussian, Inc.  The licensee
 of this program is prohibited from giving any competitor of
 Gaussian, Inc. access to this program.  By using this program,
 the user acknowledges that Gaussian, Inc. is engaged in the
 business of creating and licensing software in the field of
 computational chemistry and represents and warrants to the
 licensee that it is not a competitor of Gaussian, Inc. and that
 it will not use this program in any manner prohibited above.
 ---------------------------------------------------------------
  

 Cite this work as:
 Gaussian 16, Revision A.03,
 M. J. Frisch, G. W. Trucks, H. B. Schlegel, G. E. Scuseria, 
 M. A. Robb, J. R. Cheeseman, G. Scalmani, V. Barone, 
 G. A. Petersson, H. Nakatsuji, X. Li, M. Caricato, A. V. Marenich, 
 J. Bloino, B. G. Janesko, R. Gomperts, B. Mennucci, H. P. Hratchian, 
 J. V. Ortiz, A. F. Izmaylov, J. L. Sonnenberg, D. Williams-Young, 
 F. Ding, F. Lipparini, F. Egidi, J. Goings, B. Peng, A. Petrone, 
 T. Henderson, D. Ranasinghe, V. G. Zakrzewski, J. Gao, N. Rega, 
 G. Zheng, W. Liang, M. Hada, M. Ehara, K. Toyota, R. Fukuda, 
 J. Hasegawa, M. Ishida, T. Nakajima, Y. Honda, O. Kitao, H. Nakai, 
 T. Vreven, K. Throssell, J. A. Montgomery, Jr., J. E. Peralta, 
 F. Ogliaro, M. J. Bearpark, J. J. Heyd, E. N. Brothers, K. N. Kudin, 
 V. N. Staroverov, T. A. Keith, R. Kobayashi, J. Normand, 
 K. Raghavachari, A. P. Rendell, J. C. Burant, S. S. Iyengar, 
 J. Tomasi, M. Cossi, J. M. Millam, M. Klene, C. Adamo, R. Cammi, 
 J. W. Ochterski, R. L. Martin, K. Morokuma, O. Farkas, 
 J. B. Foresman, and D. J. Fox, Gaussian, Inc., Wallingford CT, 2016.
 
 ******************************************
 Gaussian 16:  EM64L-G16RevA.03 25-Dec-2016
                17-Jan-2021 
 ******************************************
 %mem=30GB
 %nproc=8
 Will use up to    8 processors via shared memory.
 ----------------------------------------------------------------------
 #P LC-wHPBE/TZVP iop(3/107=0221900000, 3/108=0221900000) scf=(conver=6
 ,fermi,ndamp=35,noincfock,novaracc,vshift=500,xqc)
 ----------------------------------------------------------------------
 1/38=1,172=1/1;
 2/12=2,17=6,18=5,40=1/2;
 3/5=19,7=101,11=2,25=1,30=1,74=-71,107=221900000,108=221900000/1,2,3;
 4//1;
 5/5=100002,6=6,8=3,10=500,13=1,18=-1,22=13,38=1,93=35/2,8;
 6/7=2,8=2,9=2,10=2,28=1/1;
 99/5=1,9=1/99;
 Leave Link    1 at Sun Jan 17 17:39:31 2021, MaxMem=  4026531840 cpu:               1.6 elap:               0.2
 (Enter /opt/ohpc/pub/libs/gaussian/g16-A.03/sandybridge/g16/l101.exe)
 -------------
 H19 C24 N1 O2
 -------------
 Symbolic Z-matrix:
 Charge =  0 Multiplicity = 1
 C                    -6.53811  -0.21734   1.25551 
 C                    -7.25866   0.08729   0.10788 
 C                    -5.15139  -0.25905   1.21922 
 C                    -6.5807    0.34869  -1.07578 
 C                    -4.458     0.00066   0.03573 
 C                    -5.194     0.30457  -1.11091 
 H                    -8.34564   0.12102   0.13596 
 H                    -4.59391  -0.47628   2.12835 
 H                    -7.13614   0.58116  -1.98219 
 H                    -4.67151   0.48876  -2.0477 
 C                    -2.97448  -0.04496  -0.00277 
 C                    -2.24032   0.91837  -0.6946 
 C                    -2.26558  -1.0513    0.65461 
 C                    -0.85628   0.87593  -0.73981 
 C                    -0.88157  -1.09437   0.62889 
 C                    -0.15564  -0.13324  -0.0774 
 H                    -2.76203   1.72742  -1.20229 
 H                    -2.80904  -1.82389   1.19526 
 H                    -0.30638   1.63919  -1.28492 
 H                    -0.35263  -1.88507   1.15502 
 H                    -7.05947  -0.41619   2.18974 
 N                     1.25703  -0.16083  -0.10381 
 C                     1.9654   -1.37789  -0.17457 
 C                     3.19     -1.50855   0.47802 
 C                     1.4615   -2.45601  -0.91209 
 C                     3.90305  -2.69689   0.39022 
 C                     2.17862  -3.63831  -0.97461 
 C                     3.40295  -3.77506  -0.33284 
 H                     3.60076  -0.69016   1.06207 
 H                     0.51484  -2.3581   -1.43523 
 H                     1.78281  -4.47165  -1.55144 
 H                     3.96392  -4.70643  -0.39806 
 C                     1.97286   1.06837  -0.04581 
 C                     2.97148   1.35095  -0.97234 
 C                     1.68309   2.0122    0.93926 
 C                     3.67678   2.54399  -0.91012 
 C                     2.36561   3.215     0.99216 
 C                     3.37144   3.4833    0.06927 
 H                     3.20527   0.62157  -1.74439 
 H                     0.90427   1.79831   1.66775 
 H                     4.46088   2.7476   -1.6392 
 H                     2.1399    3.9546    1.756 
 O                     4.02299   4.68033   0.17324 
 H                     4.69529   4.73835  -0.51784 
 O                     5.09721  -2.75171   1.05375 
 H                     5.47965  -3.63149   0.94109 
 
 ITRead=  0  0  0  0  0  0  0  0  0  0  0  0  0  0  0  0  0  0  0  0
 ITRead=  0  0  0  0  0  0  0  0  0  0  0  0  0  0  0  0  0  0  0  0
 ITRead=  0  0  0  0  0  0
 MicOpt= -1 -1 -1 -1 -1 -1 -1 -1 -1 -1 -1 -1 -1 -1 -1 -1 -1 -1 -1 -1
 MicOpt= -1 -1 -1 -1 -1 -1 -1 -1 -1 -1 -1 -1 -1 -1 -1 -1 -1 -1 -1 -1
 MicOpt= -1 -1 -1 -1 -1 -1
 NAtoms=     46 NQM=       46 NQMF=       0 NMMI=      0 NMMIF=      0
                NMic=       0 NMicF=      0.
                    Isotopes and Nuclear Properties:
 (Nuclear quadrupole moments (NQMom) in fm**2, nuclear magnetic moments (NMagM)
  in nuclear magnetons)

  Atom         1           2           3           4           5           6           7           8           9          10
 IAtWgt=          12          12          12          12          12          12           1           1           1           1
 AtmWgt=  12.0000000  12.0000000  12.0000000  12.0000000  12.0000000  12.0000000   1.0078250   1.0078250   1.0078250   1.0078250
 NucSpn=           0           0           0           0           0           0           1           1           1           1
 AtZEff=  -0.0000000  -0.0000000  -0.0000000  -0.0000000  -0.0000000  -0.0000000  -0.0000000  -0.0000000  -0.0000000  -0.0000000
 NQMom=    0.0000000   0.0000000   0.0000000   0.0000000   0.0000000   0.0000000   0.0000000   0.0000000   0.0000000   0.0000000
 NMagM=    0.0000000   0.0000000   0.0000000   0.0000000   0.0000000   0.0000000   2.7928460   2.7928460   2.7928460   2.7928460
 AtZNuc=   6.0000000   6.0000000   6.0000000   6.0000000   6.0000000   6.0000000   1.0000000   1.0000000   1.0000000   1.0000000

  Atom        11          12          13          14          15          16          17          18          19          20
 IAtWgt=          12          12          12          12          12          12           1           1           1           1
 AtmWgt=  12.0000000  12.0000000  12.0000000  12.0000000  12.0000000  12.0000000   1.0078250   1.0078250   1.0078250   1.0078250
 NucSpn=           0           0           0           0           0           0           1           1           1           1
 AtZEff=  -0.0000000  -0.0000000  -0.0000000  -0.0000000  -0.0000000  -0.0000000  -0.0000000  -0.0000000  -0.0000000  -0.0000000
 NQMom=    0.0000000   0.0000000   0.0000000   0.0000000   0.0000000   0.0000000   0.0000000   0.0000000   0.0000000   0.0000000
 NMagM=    0.0000000   0.0000000   0.0000000   0.0000000   0.0000000   0.0000000   2.7928460   2.7928460   2.7928460   2.7928460
 AtZNuc=   6.0000000   6.0000000   6.0000000   6.0000000   6.0000000   6.0000000   1.0000000   1.0000000   1.0000000   1.0000000

  Atom        21          22          23          24          25          26          27          28          29          30
 IAtWgt=           1          14          12          12          12          12          12          12           1           1
 AtmWgt=   1.0078250  14.0030740  12.0000000  12.0000000  12.0000000  12.0000000  12.0000000  12.0000000   1.0078250   1.0078250
 NucSpn=           1           2           0           0           0           0           0           0           1           1
 AtZEff=  -0.0000000  -0.0000000  -0.0000000  -0.0000000  -0.0000000  -0.0000000  -0.0000000  -0.0000000  -0.0000000  -0.0000000
 NQMom=    0.0000000   2.0440000   0.0000000   0.0000000   0.0000000   0.0000000   0.0000000   0.0000000   0.0000000   0.0000000
 NMagM=    2.7928460   0.4037610   0.0000000   0.0000000   0.0000000   0.0000000   0.0000000   0.0000000   2.7928460   2.7928460
 AtZNuc=   1.0000000   7.0000000   6.0000000   6.0000000   6.0000000   6.0000000   6.0000000   6.0000000   1.0000000   1.0000000

  Atom        31          32          33          34          35          36          37          38          39          40
 IAtWgt=           1           1          12          12          12          12          12          12           1           1
 AtmWgt=   1.0078250   1.0078250  12.0000000  12.0000000  12.0000000  12.0000000  12.0000000  12.0000000   1.0078250   1.0078250
 NucSpn=           1           1           0           0           0           0           0           0           1           1
 AtZEff=  -0.0000000  -0.0000000  -0.0000000  -0.0000000  -0.0000000  -0.0000000  -0.0000000  -0.0000000  -0.0000000  -0.0000000
 NQMom=    0.0000000   0.0000000   0.0000000   0.0000000   0.0000000   0.0000000   0.0000000   0.0000000   0.0000000   0.0000000
 NMagM=    2.7928460   2.7928460   0.0000000   0.0000000   0.0000000   0.0000000   0.0000000   0.0000000   2.7928460   2.7928460
 AtZNuc=   1.0000000   1.0000000   6.0000000   6.0000000   6.0000000   6.0000000   6.0000000   6.0000000   1.0000000   1.0000000

  Atom        41          42          43          44          45          46
 IAtWgt=           1           1          16           1          16           1
 AtmWgt=   1.0078250   1.0078250  15.9949146   1.0078250  15.9949146   1.0078250
 NucSpn=           1           1           0           1           0           1
 AtZEff=  -0.0000000  -0.0000000  -0.0000000  -0.0000000  -0.0000000  -0.0000000
 NQMom=    0.0000000   0.0000000   0.0000000   0.0000000   0.0000000   0.0000000
 NMagM=    2.7928460   2.7928460   0.0000000   2.7928460   0.0000000   2.7928460
 AtZNuc=   1.0000000   1.0000000   8.0000000   1.0000000   8.0000000   1.0000000
 Leave Link  101 at Sun Jan 17 17:39:31 2021, MaxMem=  4026531840 cpu:               0.8 elap:               0.1
 (Enter /opt/ohpc/pub/libs/gaussian/g16-A.03/sandybridge/g16/l202.exe)
                          Input orientation:                          
 ---------------------------------------------------------------------
 Center     Atomic      Atomic             Coordinates (Angstroms)
 Number     Number       Type             X           Y           Z
 ---------------------------------------------------------------------
      1          6           0       -6.538108   -0.217341    1.255514
      2          6           0       -7.258661    0.087287    0.107878
      3          6           0       -5.151390   -0.259049    1.219222
      4          6           0       -6.580697    0.348691   -1.075777
      5          6           0       -4.458004    0.000662    0.035726
      6          6           0       -5.193998    0.304569   -1.110911
      7          1           0       -8.345644    0.121015    0.135956
      8          1           0       -4.593910   -0.476283    2.128350
      9          1           0       -7.136138    0.581164   -1.982188
     10          1           0       -4.671509    0.488761   -2.047704
     11          6           0       -2.974479   -0.044963   -0.002770
     12          6           0       -2.240322    0.918366   -0.694597
     13          6           0       -2.265576   -1.051297    0.654611
     14          6           0       -0.856277    0.875925   -0.739808
     15          6           0       -0.881570   -1.094369    0.628888
     16          6           0       -0.155643   -0.133238   -0.077397
     17          1           0       -2.762026    1.727417   -1.202285
     18          1           0       -2.809037   -1.823891    1.195264
     19          1           0       -0.306381    1.639189   -1.284917
     20          1           0       -0.352632   -1.885069    1.155020
     21          1           0       -7.059465   -0.416189    2.189743
     22          7           0        1.257026   -0.160831   -0.103806
     23          6           0        1.965402   -1.377887   -0.174570
     24          6           0        3.190004   -1.508547    0.478017
     25          6           0        1.461496   -2.456008   -0.912094
     26          6           0        3.903051   -2.696891    0.390217
     27          6           0        2.178621   -3.638306   -0.974610
     28          6           0        3.402953   -3.775056   -0.332839
     29          1           0        3.600761   -0.690157    1.062074
     30          1           0        0.514840   -2.358097   -1.435231
     31          1           0        1.782807   -4.471654   -1.551437
     32          1           0        3.963923   -4.706428   -0.398055
     33          6           0        1.972861    1.068372   -0.045814
     34          6           0        2.971482    1.350948   -0.972341
     35          6           0        1.683086    2.012203    0.939258
     36          6           0        3.676780    2.543988   -0.910119
     37          6           0        2.365608    3.214996    0.992156
     38          6           0        3.371443    3.483300    0.069272
     39          1           0        3.205268    0.621566   -1.744392
     40          1           0        0.904271    1.798314    1.667748
     41          1           0        4.460878    2.747602   -1.639197
     42          1           0        2.139895    3.954598    1.756001
     43          8           0        4.022986    4.680331    0.173244
     44          1           0        4.695287    4.738350   -0.517835
     45          8           0        5.097214   -2.751708    1.053752
     46          1           0        5.479651   -3.631493    0.941087
 ---------------------------------------------------------------------
                    Distance matrix (angstroms):
                    1          2          3          4          5
     1  C    0.000000
     2  C    1.388907   0.000000
     3  C    1.387820   2.407410   0.000000
     4  C    2.399401   1.388887   2.771153   0.000000
     5  C    2.421206   2.802925   1.396029   2.421237   0.000000
     6  C    2.771099   2.407383   2.397707   1.387846   1.396003
     7  H    2.152924   1.087869   3.394285   2.152945   3.890794
     8  H    2.146811   3.391285   1.088342   3.859318   2.150586
     9  H    3.387914   2.151117   3.859302   1.088182   3.403140
    10  H    3.859277   3.391323   3.385604   2.146919   2.150466
    11  C    3.783179   4.287651   2.505601   3.783004   1.484726
    12  C    4.854248   5.149600   3.677408   4.394165   2.508718
    13  C    4.394439   5.150358   3.045384   4.855356   2.509258
    14  C    6.120437   6.506231   4.855302   5.758458   3.786816
    15  C    5.758321   6.506539   4.390628   6.121140   3.787059
    16  C    6.520704   7.108855   5.162803   6.519995   4.305930
    17  H    4.907306   4.962487   3.939391   4.061913   2.718583
    18  H    4.060862   4.963282   2.817077   4.909497   2.718936
    19  H    6.981040   7.258269   5.774784   6.409069   4.654551
    20  H    6.407147   7.258094   5.067163   6.982473   4.654340
    21  H    1.088181   2.151123   2.146475   3.387902   3.403109
    22  N    7.912968   8.521930   6.544299   7.914180   5.719014
    23  C    8.700672   9.343974   7.337791   8.765218   6.573033
    24  C    9.844180  10.576308   8.466964  10.066291   7.808032
    25  C    8.585093   9.140560   7.286933   8.518803   6.478740
    26  C   10.766369  11.507179   9.413460  11.015157   8.792593
    27  C    9.625893  10.203632   8.364289   9.624554   7.635945
    28  C   10.677307  11.348213   9.378059  10.827304   8.728490
    29  H   10.151731  10.928950   8.764171  10.455224   8.153178
    30  H    7.846465   8.293878   6.599870   7.602799   5.697073
    31  H    9.757857  10.260868   8.573545   9.664894   7.840180
    32  H   11.540314  12.214011  10.270526  11.713349   9.657832
    33  C    8.705349   9.284780   7.356447   8.645352   6.519408
    34  C    9.892177  10.364340   8.565984   9.605173   7.618184
    35  C    8.524020   9.184298   7.207429   8.667050   6.525002
    36  C   10.800872  11.254136   9.504088  10.491073   8.575421
    37  C    9.546018  10.158300   8.284069   9.619170   7.603182
    38  C   10.644300  11.159458   9.379032  10.496761   8.569138
    39  H   10.229202  10.640027   8.910231   9.812574   7.891773
    40  H    7.721516   8.484944   6.411314   8.102659   5.886344
    41  H   11.753635  12.144017  10.469298  11.313204   9.481429
    42  H    9.641748  10.295886   8.438352   9.852424   7.881956
    43  O   11.691673  12.180964  10.471901  11.522207   9.687384
    44  H   12.405354  12.842148  11.178033  12.113142  10.321572
    45  O   11.909846  12.713073  10.548678  12.268699   9.995705
    46  H   12.497273  13.296171  11.156602  12.859300  10.619285
                    6          7          8          9         10
     6  C    0.000000
     7  H    3.394295   0.000000
     8  H    3.385653   4.289744   0.000000
     9  H    2.146517   2.482172   4.947488   0.000000
    10  H    1.088349   4.289857   4.286812   2.467231   0.000000
    11  C    2.505277   5.375519   2.711137   4.650757   2.710448
    12  C    3.045368   6.212934   3.931088   5.073520   2.815338
    13  C    3.678464   6.213738   2.814904   5.774081   3.932277
    14  C    4.390898   7.578091   4.901499   6.408358   4.051726
    15  C    4.856023   7.578426   4.051158   6.981744   4.902457
    16  C    5.161865   8.196724   4.968019   7.270895   4.966089
    17  H    2.819102   5.962232   4.393771   4.588573   2.427988
    18  H    3.941678   5.963121   2.423318   5.882541   4.397045
    19  H    5.069545   8.303823   5.874395   6.946307   4.578173
    20  H    5.776485   8.303680   4.573892   7.870218   5.877517
    21  H    3.859246   2.482113   2.467051   4.290175   4.947446
    22  N    6.545729   9.609797   6.270206   8.632733   6.272817
    23  C    7.413798  10.424049   7.010057   9.483849   7.144340
    24  C    8.723736  11.655199   8.023620  10.818905   8.495404
    25  C    7.208045  10.194089   7.059147   9.180895   6.897465
    26  C    9.696311  12.571228   8.952684  11.757451   9.466516
    27  C    8.361839  11.230583   8.092832  10.275401   8.068983
    28  C    9.547581  12.386633   8.993841  11.522562   9.290739
    29  H    9.113678  12.009675   8.266518  11.232310   8.915774
    30  H    6.307599   9.333960   6.506893   8.214370   5.947936
    31  H    8.466533  11.248352   8.376535  10.259829   8.155378
    32  H   10.463545  13.233095   9.874885  12.396752  10.211857
    33  C    7.285719  10.363497   7.087696   9.325276   6.963560
    34  C    8.233418  11.437587   8.377841  10.187067   7.766279
    35  C    7.376550  10.237056   6.856178   9.400076   7.184963
    36  C    9.151285  12.308686   9.314432  11.041794   8.672484
    37  C    8.369057  11.181982   7.959357  10.298882   8.135977
    38  C    9.212163  12.190141   9.130441  11.092346   8.839566
    39  H    8.429084  11.713660   8.776707  10.344219   7.883733
    40  H    6.865938   9.524739   5.967909   8.913566   6.827066
    41  H    9.973170  13.193071  10.323615  11.802622   9.416461
    42  H    8.679164  11.281287   8.069416  10.554568   8.536710
    43  O   10.283440  13.182252  10.230543  12.082016   9.904348
    44  H   10.853944  13.849661  10.976515  12.625733  10.398864
    45  O   10.951513  13.776985  10.012502  13.037633  10.749308
    46  H   11.559847  14.348113  10.622692  13.618008  11.355854
                   11         12         13         14         15
    11  C    0.000000
    12  C    1.394853   0.000000
    13  C    1.395493   2.387587   0.000000
    14  C    2.424467   1.385433   2.764907   0.000000
    15  C    2.424977   2.765668   1.384915   2.399172   0.000000
    16  C    2.821205   2.415097   2.414640   1.395739   1.396274
    17  H    2.150652   1.088341   3.378724   2.137944   3.853801
    18  H    2.151102   3.378607   1.088374   3.853152   2.137314
    19  H    3.405733   2.146670   3.852133   1.087245   3.386123
    20  H    3.405958   3.852753   2.145912   3.386314   1.087105
    21  H    4.651025   5.772746   5.073595   6.980786   6.408009
    22  N    4.234297   3.707444   3.711718   2.438321   2.445798
    23  C    5.119436   4.819888   4.323815   3.655275   2.971730
    24  C    6.354061   6.062456   5.477556   4.851927   4.095366
    25  C    5.130096   5.013697   4.280052   4.062454   3.117474
    26  C    7.381570   7.210266   6.389823   6.057489   5.051499
    27  C    6.356967   6.353639   5.394244   5.444632   4.290407
    28  C    7.395551   7.348852   6.366015   6.319675   5.144720
    29  H    6.692081   6.308050   5.891550   5.056143   4.521319
    30  H    4.424690   4.344498   3.715626   3.580848   2.794201
    31  H    6.680249   6.780270   5.740635   6.018314   4.822735
    32  H    8.368209   8.379672   7.298955   7.383345   6.130284
    33  C    5.071246   4.265481   4.790401   2.919364   3.644235
    34  C    6.184100   5.237096   5.987030   3.864124   4.836271
    35  C    5.178056   4.388518   5.005795   3.249424   4.040369
    36  C    7.194803   6.140130   7.119414   4.833223   6.031976
    37  C    6.335120   5.416109   6.305796   4.341831   5.408027
    38  C    7.261168   6.217257   7.258180   5.032557   6.273463
    39  H    6.454981   5.553792   6.203533   4.191663   5.027836
    40  H    4.607928   4.030316   4.381171   3.121964   3.554725
    41  H    8.109306   7.010311   8.058435   5.708258   6.960366
    42  H    6.726558   5.866041   6.758714   4.968333   5.990968
    43  O    8.445348   7.357619   8.522282   6.254149   7.590088
    44  H    9.053766   7.919987   9.129527   6.766643   8.150885
    45  O    8.578749   8.388421   7.567125   7.198655   6.218773
    46  H    9.231813   9.109043   8.168722   7.955263   6.855625
                   16         17         18         19         20
    16  C    0.000000
    17  H    3.394207   0.000000
    18  H    3.393888   4.285118   0.000000
    19  H    2.149959   2.458618   4.940396   0.000000
    20  H    2.150946   4.940862   2.457496   4.286703   0.000000
    21  H    7.272052   5.879531   4.586584   7.867781   6.943333
    22  N    1.413185   4.574376   4.581072   2.660702   2.673694
    23  C    2.461184   5.748712   4.987046   3.936574   2.719986
    24  C    3.659688   6.980082   6.049990   5.024031   3.626344
    25  C    2.950783   5.951756   4.803955   4.476050   2.808913
    26  C    4.823274   8.156826   6.816330   6.271123   4.399411
    27  C    4.305727   7.297452   5.733863   5.841531   3.743849
    28  C    5.098205   8.309038   6.688121   6.631716   4.459842
    29  H    3.964735   7.173357   6.510653   5.118591   4.131074
    30  H    2.691330   5.242475   4.272357   4.083539   2.772303
    31  H    4.975162   7.694537   5.969929   6.463601   4.309922
    32  H    6.163417   9.342352   7.531313   7.699927   5.385606
    33  C    2.444462   4.918427   5.724684   2.656342   3.946230
    34  C    3.575282   5.750454   6.942083   3.305325   5.103646
    35  C    3.002903   4.942300   5.912726   3.007336   4.402207
    36  C    4.748519   6.496951   8.097952   4.101793   6.333838
    37  C    4.325658   5.772443   7.225551   3.848085   5.781524
    38  C    5.053830   6.505338   8.223896   4.331393   6.623214
    39  H    3.826790   6.093060   7.126970   3.684882   5.229576
    40  H    2.810666   4.656592   5.208864   3.195189   3.925558
    41  H    5.661336   7.307668   9.043472   4.907224   7.241489
    42  H    5.034009   6.143340   7.628715   4.537903   6.377741
    43  O    6.379201   7.526498   9.488201   5.488005   7.950748
    44  H    6.888968   8.071289  10.114969   5.933793   8.494093
    45  O    5.977323   9.323085   7.961763   7.344943   5.519252
    46  H    6.710562  10.061670   8.487307   8.137159   6.091904
                   21         22         23         24         25
    21  H    0.000000
    22  N    8.630736   0.000000
    23  C    9.378863   1.409975   0.000000
    24  C   10.448678   2.427192   1.393769   0.000000
    25  C    9.294570   2.441920   1.400074   2.412018   0.000000
    26  C   11.340928   3.698257   2.411066   1.388635   2.777630
    27  C   10.282869   3.701415   2.407285   2.769277   1.384198
    28  C   11.274201   4.209523   2.799647   2.416588   2.417577
    29  H   10.723204   2.670685   2.162559   1.086097   3.404706
    30  H    8.618674   2.674231   2.157361   3.396874   1.086009
    31  H   10.422524   4.577693   3.391238   3.857316   2.138885
    32  H   12.108589   5.298710   3.888858   3.404834   3.404522
    33  C    9.422555   1.423630   2.449656   2.897645   3.665132
    34  C   10.664963   2.445238   3.015821   3.213721   4.095925
    35  C    9.159312   2.447772   3.579529   3.857360   4.841644
    36  C   11.560223   3.717714   4.341768   4.311254   5.468770
    37  C   10.171122   3.718373   4.755627   4.822429   6.050113
    38  C   11.336060   4.216682   5.066315   5.011839   6.315565
    39  H   11.041698   2.664454   2.828325   3.078428   3.633858
    40  H    8.282366   2.664787   3.822092   4.192298   5.006530
    41  H   12.545464   4.591413   5.039067   4.920622   6.050002
    42  H   10.194123   4.601641   5.673883   5.708058   6.976735
    43  O   12.363717   5.582485   6.407545   6.252116   7.659408
    44  H   13.117715   5.999586   6.706598   6.502409   7.897571
    45  O   12.431008   4.774896   3.633787   2.348270   4.143722
    46  H   13.004874   5.564877   4.321270   3.156551   4.578386
                   26         27         28         29         30
    26  C    0.000000
    27  C    2.392211   0.000000
    28  C    1.391168   1.389086   0.000000
    29  H    2.137698   3.855145   3.391388   0.000000
    30  H    3.863550   2.149250   3.400623   4.305980   0.000000
    31  H    3.378644   1.088057   2.143619   4.943189   2.467462
    32  H    2.159471   2.158843   1.089217   4.288857   4.299601
    33  C    4.253582   4.801856   5.058294   2.640057   3.974543
    34  C    4.371428   5.051860   5.183729   2.949737   4.472848
    35  C    5.235003   5.986376   6.169971   3.315918   5.109062
    36  C    5.404524   6.361556   6.351264   3.788802   5.856965
    37  C    6.138116   7.132383   7.189751   4.096427   6.354283
    38  C    6.211310   7.295875   7.269554   4.296043   6.674251
    39  H    4.006946   4.448941   4.621888   3.123025   4.026459
    40  H    5.552624   6.177610   6.427147   3.718923   5.201527
    41  H    5.837139   6.813970   6.735788   4.455879   6.456081
    42  H    7.015439   8.069072   8.105931   4.918273   7.257746
    43  O    7.381386   8.597614   8.493181   5.459893   8.027064
    44  H    7.532264   8.758460   8.612922   5.758714   8.287178
    45  O    1.367227   3.663126   2.416691   2.547437   5.229543
    46  H    1.913794   3.816640   2.440527   3.492323   5.649582
                   31         32         33         34         35
    31  H    0.000000
    32  H    2.478442   0.000000
    33  C    5.744120   6.118555   0.000000
    34  C    5.970845   6.164945   1.391239   0.000000
    35  C    6.946503   7.220154   1.394688   2.398215   0.000000
    36  C    7.295043   7.274146   2.414085   1.387322   2.770885
    37  C    8.117519   8.199772   2.416532   2.775069   1.383960
    38  C    8.272349   8.224419   2.793055   2.406627   2.402405
    39  H    5.291646   5.547585   2.145607   1.087528   3.384211
    40  H    7.102639   7.479350   2.147323   3.382834   1.087658
    41  H    7.700482   7.572976   3.398369   2.147938   3.860747
    42  H    9.059160   9.109358   3.406573   3.861914   2.156071
    43  O    9.578714   9.404314   4.158996   3.674618   3.630539
    44  H    9.714682   9.473810   4.593816   3.827868   4.316057
    45  O    4.553078   2.685707   5.056050   5.045352   5.862101
    46  H    4.537092   2.290462   5.946451   5.897189   6.801854
                   36         37         38         39         40
    36  C    0.000000
    37  C    2.405842   0.000000
    38  C    1.390951   1.391189   0.000000
    39  H    2.148032   3.862590   3.392125   0.000000
    40  H    3.858527   2.144509   3.388398   4.280423   0.000000
    41  H    1.089873   3.395973   2.155687   2.471366   4.948382
    42  H    3.385267   1.086930   2.141001   4.949432   2.486788
    43  O    2.420226   2.358967   1.366822   4.562846   4.501772
    44  H    2.450810   3.166715   1.916353   4.546703   5.271849
    45  O    5.823986   6.562547   6.543914   4.773683   6.217754
    46  H    6.694316   7.521588   7.471605   5.520247   7.137573
                   41         42         43         44         45
    41  H    0.000000
    42  H    4.286160   0.000000
    43  O    2.685542   2.564730   0.000000
    44  H    2.296841   3.509220   0.965891   0.000000
    45  O    6.156241   7.362977   7.560718   7.663707   0.000000
    46  H    6.956193   8.328675   8.473363   8.532172   0.965905
                   46
    46  H    0.000000
 Stoichiometry    C24H19NO2
 Framework group  C1[X(C24H19NO2)]
 Deg. of freedom   132
 Full point group                 C1      NOp   1
 Largest Abelian subgroup         C1      NOp   1
 Largest concise Abelian subgroup C1      NOp   1
                         Standard orientation:                         
 ---------------------------------------------------------------------
 Center     Atomic      Atomic             Coordinates (Angstroms)
 Number     Number       Type             X           Y           Z
 ---------------------------------------------------------------------
      1          6           0       -6.538108   -0.217341    1.255514
      2          6           0       -7.258661    0.087287    0.107878
      3          6           0       -5.151390   -0.259049    1.219222
      4          6           0       -6.580697    0.348691   -1.075777
      5          6           0       -4.458004    0.000662    0.035726
      6          6           0       -5.193998    0.304569   -1.110911
      7          1           0       -8.345644    0.121015    0.135956
      8          1           0       -4.593910   -0.476283    2.128350
      9          1           0       -7.136138    0.581164   -1.982188
     10          1           0       -4.671509    0.488761   -2.047704
     11          6           0       -2.974479   -0.044963   -0.002770
     12          6           0       -2.240322    0.918366   -0.694597
     13          6           0       -2.265576   -1.051297    0.654611
     14          6           0       -0.856277    0.875925   -0.739808
     15          6           0       -0.881570   -1.094369    0.628888
     16          6           0       -0.155643   -0.133238   -0.077397
     17          1           0       -2.762026    1.727417   -1.202285
     18          1           0       -2.809037   -1.823891    1.195264
     19          1           0       -0.306381    1.639189   -1.284917
     20          1           0       -0.352632   -1.885069    1.155020
     21          1           0       -7.059465   -0.416189    2.189743
     22          7           0        1.257026   -0.160831   -0.103806
     23          6           0        1.965402   -1.377887   -0.174570
     24          6           0        3.190004   -1.508547    0.478017
     25          6           0        1.461496   -2.456008   -0.912094
     26          6           0        3.903051   -2.696891    0.390217
     27          6           0        2.178621   -3.638306   -0.974610
     28          6           0        3.402953   -3.775056   -0.332839
     29          1           0        3.600761   -0.690157    1.062074
     30          1           0        0.514840   -2.358097   -1.435231
     31          1           0        1.782807   -4.471654   -1.551437
     32          1           0        3.963923   -4.706428   -0.398055
     33          6           0        1.972861    1.068372   -0.045814
     34          6           0        2.971482    1.350948   -0.972341
     35          6           0        1.683086    2.012203    0.939258
     36          6           0        3.676780    2.543988   -0.910119
     37          6           0        2.365608    3.214996    0.992156
     38          6           0        3.371443    3.483300    0.069272
     39          1           0        3.205268    0.621566   -1.744392
     40          1           0        0.904271    1.798314    1.667748
     41          1           0        4.460878    2.747602   -1.639197
     42          1           0        2.139895    3.954598    1.756001
     43          8           0        4.022986    4.680331    0.173244
     44          1           0        4.695287    4.738350   -0.517835
     45          8           0        5.097214   -2.751708    1.053752
     46          1           0        5.479651   -3.631493    0.941087
 ---------------------------------------------------------------------
 Rotational constants (GHZ):           0.2747871           0.0974680           0.0767524
 Leave Link  202 at Sun Jan 17 17:39:31 2021, MaxMem=  4026531840 cpu:               0.1 elap:               0.0
 (Enter /opt/ohpc/pub/libs/gaussian/g16-A.03/sandybridge/g16/l301.exe)
 Standard basis: TZVP (5D, 7F)
 Ernie: Thresh=  0.10000D-02 Tol=  0.10000D-05 Strict=F.
 There are   654 symmetry adapted cartesian basis functions of A   symmetry.
 There are   627 symmetry adapted basis functions of A   symmetry.
   627 basis functions,  1097 primitive gaussians,   654 cartesian basis functions
    93 alpha electrons       93 beta electrons
       nuclear repulsion energy      2186.7759231597 Hartrees.
 IExCor=33909 DFT=T Ex+Corr=LC-wHPBE ExCW=0 ScaHFX=  1.000000
 ScaDFX=  1.000000  1.000000  1.000000  1.000000 ScalE2=  1.000000  1.000000
 IRadAn=      5 IRanWt=     -1 IRanGd=            0 ICorTp=0 IEmpDi=  4
 HFx  wShort=  0.000000 wLong=  0.221900 cFull=  0.000000 cShort=  0.000000 cLong=  1.000000
 DFx  wShort=  0.000000 wLong=  0.221900 cFull=  0.000000 cShort=  1.000000 cLong=  0.000000
 NAtoms=   46 NActive=   46 NUniq=   46 SFac= 1.00D+00 NAtFMM=   60 NAOKFM=F Big=F
 Integral buffers will be    131072 words long.
 Raffenetti 2 integral format.
 Two-electron integral symmetry is turned on.
 Leave Link  301 at Sun Jan 17 17:39:31 2021, MaxMem=  4026531840 cpu:               0.4 elap:               0.1
 (Enter /opt/ohpc/pub/libs/gaussian/g16-A.03/sandybridge/g16/l302.exe)
 NPDir=0 NMtPBC=     1 NCelOv=     1 NCel=       1 NClECP=     1 NCelD=      1
         NCelK=      1 NCelE2=     1 NClLst=     1 CellRange=     0.0.
 One-electron integrals computed using PRISM.
 One-electron integral symmetry used in STVInt
 NBasis=   627 RedAO= T EigKep=  6.83D-06  NBF=   627
 NBsUse=   627 1.00D-06 EigRej= -1.00D+00 NBFU=   627
 Precomputing XC quadrature grid using
 IXCGrd= 4 IRadAn=           5 IRanWt=          -1 IRanGd=           0 AccXCQ= 0.00D+00.
 Generated NRdTot=       0 NPtTot=           0 NUsed=           0 NTot=          32
 NSgBfM=   623   621   621   623   623 MxSgAt=    46 MxSgA2=    46.
 Leave Link  302 at Sun Jan 17 17:39:32 2021, MaxMem=  4026531840 cpu:               9.3 elap:               1.2
 (Enter /opt/ohpc/pub/libs/gaussian/g16-A.03/sandybridge/g16/l303.exe)
 DipDrv:  MaxL=1.
 Leave Link  303 at Sun Jan 17 17:39:32 2021, MaxMem=  4026531840 cpu:               0.8 elap:               0.2
 (Enter /opt/ohpc/pub/libs/gaussian/g16-A.03/sandybridge/g16/l401.exe)
 ExpMin= 9.52D-02 ExpMax= 2.70D+04 ExpMxC= 9.22D+02 IAcc=3 IRadAn=         5 AccDes= 0.00D+00
 Harris functional with IExCor=33909 and IRadAn=       5 diagonalized for initial guess.
 HarFok:  IExCor=33909 AccDes= 0.00D+00 IRadAn=         5 IDoV= 1 UseB2=F ITyADJ=14
 ICtDFT=  3500011 ScaDFX=  1.000000  1.000000  1.000000  1.000000
 FoFCou: FMM=F IPFlag=           0 FMFlag=      100000 FMFlg1=           0
         NFxFlg=           0 DoJE=T BraDBF=F KetDBF=T FulRan=T
         wScrn=  0.000000 ICntrl=       500 IOpCl=  0 I1Cent=   200000004 NGrid=           0
         NMat0=    1 NMatS0=      1 NMatT0=    0 NMatD0=    1 NMtDS0=    0 NMtDT0=    0
 Petite list used in FoFCou.
 Harris En= -1108.75830030701    
 JPrj=0 DoOrth=F DoCkMO=F.
 Leave Link  401 at Sun Jan 17 17:39:39 2021, MaxMem=  4026531840 cpu:              55.2 elap:               7.0
 (Enter /opt/ohpc/pub/libs/gaussian/g16-A.03/sandybridge/g16/l502.exe)
 Integral symmetry usage will be decided dynamically.
 Closed shell SCF:
 Using DIIS extrapolation, IDIIS=    10.
 NGot=  4026531840 LenX=  4025664800 LenY=  4025236430
 Requested convergence on RMS density matrix=1.00D-06 within  32 cycles.
 Requested convergence on MAX density matrix=1.00D-04.
 Requested convergence on             energy=1.00D-04.
 Virtual orbitals will be shifted by   0.500 hartree.
 No special actions if energy rises.
 Dynamic level shift is on during FON iterations.

 Cycle   1  Pass 1  IDiag  1:
 FoFJK:  IHMeth= 1 ICntrl=       0 DoSepK=T KAlg= 0 I1Cent=           0 FoldK=F
 IRaf=         1 NMat=       1 IRICut=       1 DoRegI=T DoRafI=F ISym2E= 0 IDoP0=0 IntGTp=1.
 FoFCou: FMM=F IPFlag=           0 FMFlag=      100000 FMFlg1=           0
         NFxFlg=           0 DoJE=T BraDBF=F KetDBF=F FulRan=T
         wScrn=  0.000000 ICntrl=       500 IOpCl=  0 I1Cent=           0 NGrid=           0
         NMat0=    1 NMatS0=      1 NMatT0=    0 NMatD0=    1 NMtDS0=    0 NMtDT0=    0
 Symmetry not used in FoFCou.
 E= -1130.11616756080    
 DIIS: error= 2.12D-02 at cycle   1 NSaved=   1.
 NSaved= 1 IEnMin= 1 EnMin= -1130.11616756080     IErMin= 1 ErrMin= 2.12D-02
 ErrMax= 2.12D-02  0.00D+00 EMaxC= 1.00D+00 BMatC= 4.48D-01 BMatP= 4.48D-01
 IDIUse=1 WtCom= 1.00D+00 WtEn= 0.00D+00
 Coeff-Com:  0.100D+01
 Coeff:      0.100D+01
 Gap=     0.306 Goal=   None    Shift=    0.500
 T= 1289. Gap= 0.763 NK=0 IS=   94 IE=  627 IFin=   93
          NO(<0.9)=   0  NV(>0.1)=   0     93.00e < EF      0.00e >EF  Err=0.0D+00
 GapD=    0.306 DampG=1.000 DampE=0.500 DampFc=0.5000 IDamp=-1.
 Damping current iteration by 5.00D-01
 RMSDP=2.26D-03 MaxDP=1.32D-01              OVMax= 7.23D-02

 Cycle   2  Pass 1  IDiag  1:
 E= -1130.37956505585     Delta-E=       -0.263397495041 Rises=F Damp=T
 DIIS: error= 9.74D-03 at cycle   2 NSaved=   2.
 NSaved= 2 IEnMin= 2 EnMin= -1130.37956505585     IErMin= 2 ErrMin= 9.74D-03
 ErrMax= 9.74D-03  0.00D+00 EMaxC= 1.00D+00 BMatC= 7.59D-02 BMatP= 4.48D-01
 IDIUse=1 WtCom= 1.00D+00 WtEn= 0.00D+00
 Coeff-Com: -0.552D+00 0.155D+01
 Coeff:     -0.552D+00 0.155D+01
 Gap=     0.320 Goal=   None    Shift=    0.500
 T= 1170. Gap= 0.764 NK=0 IS=   94 IE=  627 IFin=   93
          NO(<0.9)=   0  NV(>0.1)=   0     93.00e < EF      0.00e >EF  Err=0.0D+00
 GapD=    0.320 DampG=1.000 DampE=1.000 DampFc=1.0000 IDamp=-1.
 RMSDP=1.35D-03 MaxDP=8.19D-02 DE=-2.63D-01 OVMax= 1.60D-02

 Cycle   3  Pass 1  IDiag  1:
 E= -1130.54614350007     Delta-E=       -0.166578444229 Rises=F Damp=F
 DIIS: error= 1.76D-03 at cycle   3 NSaved=   3.
 NSaved= 3 IEnMin= 3 EnMin= -1130.54614350007     IErMin= 3 ErrMin= 1.76D-03
 ErrMax= 1.76D-03  0.00D+00 EMaxC= 1.00D+00 BMatC= 3.87D-03 BMatP= 7.59D-02
 IDIUse=1 WtCom= 1.00D+00 WtEn= 0.00D+00
 Coeff-Com:  0.118D-01 0.118D+00 0.870D+00
 Coeff:      0.118D-01 0.118D+00 0.870D+00
 Gap=     0.273 Goal=   None    Shift=    0.500
 T=  889. Gap= 0.772 NK=0 IS=   94 IE=  627 IFin=   93
          NO(<0.9)=   0  NV(>0.1)=   0     93.00e < EF      0.00e >EF  Err=0.0D+00
 GapD=    0.273 DampG=1.000 DampE=1.000 DampFc=1.0000 IDamp=-1.
 RMSDP=2.91D-04 MaxDP=3.20D-02 DE=-1.67D-01 OVMax= 1.04D-02

 Cycle   4  Pass 1  IDiag  1:
 E= -1130.54963121354     Delta-E=       -0.003487713466 Rises=F Damp=F
 DIIS: error= 9.79D-04 at cycle   4 NSaved=   4.
 NSaved= 4 IEnMin= 4 EnMin= -1130.54963121354     IErMin= 4 ErrMin= 9.79D-04
 ErrMax= 9.79D-04  0.00D+00 EMaxC= 1.00D+00 BMatC= 5.59D-04 BMatP= 3.87D-03
 IDIUse=1 WtCom= 1.00D+00 WtEn= 0.00D+00
 Coeff-Com:  0.661D-01-0.991D-01 0.745D-01 0.958D+00
 Coeff:      0.661D-01-0.991D-01 0.745D-01 0.958D+00
 Gap=     0.271 Goal=   None    Shift=    0.500
 RMSDP=1.43D-04 MaxDP=1.05D-02 DE=-3.49D-03 OVMax= 7.40D-03

 Cycle   5  Pass 1  IDiag  1:
 E= -1130.55026853662     Delta-E=       -0.000637323077 Rises=F Damp=F
 DIIS: error= 6.16D-04 at cycle   5 NSaved=   5.
 NSaved= 5 IEnMin= 5 EnMin= -1130.55026853662     IErMin= 5 ErrMin= 6.16D-04
 ErrMax= 6.16D-04  0.00D+00 EMaxC= 1.00D+00 BMatC= 9.45D-05 BMatP= 5.59D-04
 IDIUse=1 WtCom= 1.00D+00 WtEn= 0.00D+00
 Coeff-Com:  0.187D-01-0.383D-01-0.516D-01-0.251D-01 0.110D+01
 Coeff:      0.187D-01-0.383D-01-0.516D-01-0.251D-01 0.110D+01
 Gap=     0.271 Goal=   None    Shift=    0.500
 RMSDP=9.75D-05 MaxDP=6.00D-03 DE=-6.37D-04 OVMax= 5.28D-03

 Cycle   6  Pass 1  IDiag  1:
 E= -1130.55047545218     Delta-E=       -0.000206915564 Rises=F Damp=F
 DIIS: error= 5.88D-04 at cycle   6 NSaved=   6.
 NSaved= 6 IEnMin= 6 EnMin= -1130.55047545218     IErMin= 6 ErrMin= 5.88D-04
 ErrMax= 5.88D-04  0.00D+00 EMaxC= 1.00D+00 BMatC= 2.40D-05 BMatP= 9.45D-05
 IDIUse=1 WtCom= 1.00D+00 WtEn= 0.00D+00
 Coeff-Com: -0.121D-01 0.152D-01-0.391D-01-0.222D+00-0.183D-01 0.128D+01
 Coeff:     -0.121D-01 0.152D-01-0.391D-01-0.222D+00-0.183D-01 0.128D+01
 Gap=     0.271 Goal=   None    Shift=    0.500
 RMSDP=6.12D-05 MaxDP=2.72D-03 DE=-2.07D-04 OVMax= 4.81D-03

 Cycle   7  Pass 1  IDiag  1:
 E= -1130.55056811832     Delta-E=       -0.000092666138 Rises=F Damp=F
 DIIS: error= 3.82D-04 at cycle   7 NSaved=   7.
 NSaved= 7 IEnMin= 7 EnMin= -1130.55056811832     IErMin= 7 ErrMin= 3.82D-04
 ErrMax= 3.82D-04  0.00D+00 EMaxC= 1.00D+00 BMatC= 9.90D-06 BMatP= 2.40D-05
 IDIUse=1 WtCom= 1.00D+00 WtEn= 0.00D+00
 Coeff-Com: -0.902D-02 0.141D-01 0.325D-02-0.411D-01-0.320D+00-0.255D+00
 Coeff-Com:  0.161D+01
 Coeff:     -0.902D-02 0.141D-01 0.325D-02-0.411D-01-0.320D+00-0.255D+00
 Coeff:      0.161D+01
 Gap=     0.271 Goal=   None    Shift=    0.500
 RMSDP=3.64D-05 MaxDP=1.47D-03 DE=-9.27D-05 OVMax= 3.73D-03

 Cycle   8  Pass 1  IDiag  1:
 E= -1130.55061449514     Delta-E=       -0.000046376824 Rises=F Damp=F
 DIIS: error= 2.74D-04 at cycle   8 NSaved=   8.
 NSaved= 8 IEnMin= 8 EnMin= -1130.55061449514     IErMin= 8 ErrMin= 2.74D-04
 ErrMax= 2.74D-04  0.00D+00 EMaxC= 1.00D+00 BMatC= 4.54D-06 BMatP= 9.90D-06
 IDIUse=1 WtCom= 1.00D+00 WtEn= 0.00D+00
 Coeff-Com:  0.495D-03-0.361D-03 0.161D-01 0.608D-01-0.117D+00-0.728D+00
 Coeff-Com:  0.319D+00 0.145D+01
 Coeff:      0.495D-03-0.361D-03 0.161D-01 0.608D-01-0.117D+00-0.728D+00
 Coeff:      0.319D+00 0.145D+01
 Gap=     0.271 Goal=   None    Shift=    0.500
 RMSDP=1.91D-05 MaxDP=6.48D-04 DE=-4.64D-05 OVMax= 2.84D-03

 Cycle   9  Pass 1  IDiag  1:
 E= -1130.55063730219     Delta-E=       -0.000022807044 Rises=F Damp=F
 DIIS: error= 1.80D-04 at cycle   9 NSaved=   9.
 NSaved= 9 IEnMin= 9 EnMin= -1130.55063730219     IErMin= 9 ErrMin= 1.80D-04
 ErrMax= 1.80D-04  0.00D+00 EMaxC= 1.00D+00 BMatC= 1.96D-06 BMatP= 4.54D-06
 IDIUse=1 WtCom= 1.00D+00 WtEn= 0.00D+00
 Coeff-Com:  0.302D-02-0.499D-02-0.617D-03 0.171D-01 0.175D+00-0.229D+00
 Coeff-Com: -0.592D+00-0.466D+00 0.210D+01
 Coeff:      0.302D-02-0.499D-02-0.617D-03 0.171D-01 0.175D+00-0.229D+00
 Coeff:     -0.592D+00-0.466D+00 0.210D+01
 Gap=     0.271 Goal=   None    Shift=    0.500
 RMSDP=1.00D-05 MaxDP=3.17D-04 DE=-2.28D-05 OVMax= 2.14D-03

 Cycle  10  Pass 1  IDiag  1:
 E= -1130.55064812432     Delta-E=       -0.000010822134 Rises=F Damp=F
 DIIS: error= 1.14D-04 at cycle  10 NSaved=  10.
 NSaved=10 IEnMin=10 EnMin= -1130.55064812432     IErMin=10 ErrMin= 1.14D-04
 ErrMax= 1.14D-04  0.00D+00 EMaxC= 1.00D+00 BMatC= 9.72D-07 BMatP= 1.96D-06
 IDIUse=1 WtCom= 1.00D+00 WtEn= 0.00D+00
 Coeff-Com:  0.760D-03-0.125D-02-0.598D-02-0.531D-02 0.150D+00-0.473D-01
 Coeff-Com: -0.354D+00-0.590D+00 0.569D+00 0.128D+01
 Coeff:      0.760D-03-0.125D-02-0.598D-02-0.531D-02 0.150D+00-0.473D-01
 Coeff:     -0.354D+00-0.590D+00 0.569D+00 0.128D+01
 Gap=     0.271 Goal=   None    Shift=    0.500
 RMSDP=5.71D-06 MaxDP=1.66D-04 DE=-1.08D-05 OVMax= 1.43D-03

 Cycle  11  Pass 1  IDiag  1:
 E= -1130.55065277668     Delta-E=       -0.000004652361 Rises=F Damp=F
 DIIS: error= 7.43D-05 at cycle  11 NSaved=  11.
 NSaved=11 IEnMin=11 EnMin= -1130.55065277668     IErMin=11 ErrMin= 7.43D-05
 ErrMax= 7.43D-05  0.00D+00 EMaxC= 1.00D+00 BMatC= 4.17D-07 BMatP= 9.72D-07
 IDIUse=1 WtCom= 1.00D+00 WtEn= 0.00D+00
 Coeff-Com: -0.127D-02 0.222D-02-0.339D-02-0.769D-02 0.111D-01 0.243D-01
 Coeff-Com:  0.102D+00-0.122D+00-0.574D+00-0.550D+00 0.212D+01
 Coeff:     -0.127D-02 0.222D-02-0.339D-02-0.769D-02 0.111D-01 0.243D-01
 Coeff:      0.102D+00-0.122D+00-0.574D+00-0.550D+00 0.212D+01
 Gap=     0.271 Goal=   None    Shift=    0.500
 RMSDP=3.96D-06 MaxDP=1.18D-04 DE=-4.65D-06 OVMax= 9.91D-04

 Cycle  12  Pass 1  IDiag  1:
 E= -1130.55065479252     Delta-E=       -0.000002015837 Rises=F Damp=F
 DIIS: error= 5.14D-05 at cycle  12 NSaved=  12.
 NSaved=12 IEnMin=12 EnMin= -1130.55065479252     IErMin=12 ErrMin= 5.14D-05
 ErrMax= 5.14D-05  0.00D+00 EMaxC= 1.00D+00 BMatC= 2.09D-07 BMatP= 4.17D-07
 IDIUse=1 WtCom= 1.00D+00 WtEn= 0.00D+00
 Coeff-Com: -0.610D-03 0.107D-02 0.105D-02-0.106D-02-0.302D-01-0.107D-01
 Coeff-Com:  0.161D+00 0.114D+00-0.247D+00-0.124D+01 0.687D+00 0.156D+01
 Coeff:     -0.610D-03 0.107D-02 0.105D-02-0.106D-02-0.302D-01-0.107D-01
 Coeff:      0.161D+00 0.114D+00-0.247D+00-0.124D+01 0.687D+00 0.156D+01
 Gap=     0.271 Goal=   None    Shift=    0.500
 RMSDP=2.49D-06 MaxDP=7.93D-05 DE=-2.02D-06 OVMax= 6.62D-04

 Cycle  13  Pass 1  IDiag  1:
 E= -1130.55065566154     Delta-E=       -0.000000869023 Rises=F Damp=F
 DIIS: error= 3.50D-05 at cycle  13 NSaved=  13.
 NSaved=13 IEnMin=13 EnMin= -1130.55065566154     IErMin=13 ErrMin= 3.50D-05
 ErrMax= 3.50D-05  0.00D+00 EMaxC= 1.00D+00 BMatC= 9.60D-08 BMatP= 2.09D-07
 IDIUse=1 WtCom= 1.00D+00 WtEn= 0.00D+00
 Coeff-Com:  0.408D-04-0.622D-04 0.162D-02 0.812D-03-0.127D-01-0.246D-01
 Coeff-Com:  0.613D-01 0.738D-01 0.116D+00-0.725D+00 0.531D-01-0.377D+00
 Coeff-Com:  0.183D+01
 Coeff:      0.408D-04-0.622D-04 0.162D-02 0.812D-03-0.127D-01-0.246D-01
 Coeff:      0.613D-01 0.738D-01 0.116D+00-0.725D+00 0.531D-01-0.377D+00
 Coeff:      0.183D+01
 Gap=     0.271 Goal=   None    Shift=    0.500
 RMSDP=1.53D-06 MaxDP=5.26D-05 DE=-8.69D-07 OVMax= 4.37D-04

 Cycle  14  Pass 1  IDiag  1:
 E= -1130.55065603095     Delta-E=       -0.000000369403 Rises=F Damp=F
 DIIS: error= 2.38D-05 at cycle  14 NSaved=  14.
 NSaved=14 IEnMin=14 EnMin= -1130.55065603095     IErMin=14 ErrMin= 2.38D-05
 ErrMax= 2.38D-05  0.00D+00 EMaxC= 1.00D+00 BMatC= 4.35D-08 BMatP= 9.60D-08
 IDIUse=1 WtCom= 1.00D+00 WtEn= 0.00D+00
 Coeff-Com:  0.209D-03-0.371D-03 0.105D-03 0.307D-03 0.964D-02-0.118D-01
 Coeff-Com: -0.318D-01-0.241D-01 0.199D+00 0.883D-01-0.152D+00-0.137D+01
 Coeff-Com:  0.497D+00 0.179D+01
 Coeff:      0.209D-03-0.371D-03 0.105D-03 0.307D-03 0.964D-02-0.118D-01
 Coeff:     -0.318D-01-0.241D-01 0.199D+00 0.883D-01-0.152D+00-0.137D+01
 Coeff:      0.497D+00 0.179D+01
 Gap=     0.271 Goal=   None    Shift=    0.500
 RMSDP=9.94D-07 MaxDP=3.48D-05 DE=-3.69D-07 OVMax= 2.93D-04

 SCF Done:  E(RLC-wHPBE) =  -1130.55065603     A.U. after   14 cycles
            NFock= 14  Conv=0.99D-06     -V/T= 2.0046
 KE= 1.125393667956D+03 PE=-7.005164584648D+03 EE= 2.562444337501D+03
 Leave Link  502 at Sun Jan 17 17:51:05 2021, MaxMem=  4026531840 cpu:            5473.3 elap:             686.0
 (Enter /opt/ohpc/pub/libs/gaussian/g16-A.03/sandybridge/g16/l508.exe)
 QCSCF skips out because SCF is already converged.
 Leave Link  508 at Sun Jan 17 17:51:06 2021, MaxMem=  4026531840 cpu:               0.0 elap:               0.0
 (Enter /opt/ohpc/pub/libs/gaussian/g16-A.03/sandybridge/g16/l601.exe)
 Copying SCF densities to generalized density rwf, IOpCl= 0 IROHF=0.

 **********************************************************************

            Population analysis using the SCF density.

 **********************************************************************

 Orbital symmetries:
       Occupied  (A) (A) (A) (A) (A) (A) (A) (A) (A) (A) (A) (A)
                 (A) (A) (A) (A) (A) (A) (A) (A) (A) (A) (A) (A)
                 (A) (A) (A) (A) (A) (A) (A) (A) (A) (A) (A) (A)
                 (A) (A) (A) (A) (A) (A) (A) (A) (A) (A) (A) (A)
                 (A) (A) (A) (A) (A) (A) (A) (A) (A) (A) (A) (A)
                 (A) (A) (A) (A) (A) (A) (A) (A) (A) (A) (A) (A)
                 (A) (A) (A) (A) (A) (A) (A) (A) (A) (A) (A) (A)
                 (A) (A) (A) (A) (A) (A) (A) (A) (A)
       Virtual   (A) (A) (A) (A) (A) (A) (A) (A) (A) (A) (A) (A)
                 (A) (A) (A) (A) (A) (A) (A) (A) (A) (A) (A) (A)
                 (A) (A) (A) (A) (A) (A) (A) (A) (A) (A) (A) (A)
                 (A) (A) (A) (A) (A) (A) (A) (A) (A) (A) (A) (A)
                 (A) (A) (A) (A) (A) (A) (A) (A) (A) (A) (A) (A)
                 (A) (A) (A) (A) (A) (A) (A) (A) (A) (A) (A) (A)
                 (A) (A) (A) (A) (A) (A) (A) (A) (A) (A) (A) (A)
                 (A) (A) (A) (A) (A) (A) (A) (A) (A) (A) (A) (A)
                 (A) (A) (A) (A) (A) (A) (A) (A) (A) (A) (A) (A)
                 (A) (A) (A) (A) (A) (A) (A) (A) (A) (A) (A) (A)
                 (A) (A) (A) (A) (A) (A) (A) (A) (A) (A) (A) (A)
                 (A) (A) (A) (A) (A) (A) (A) (A) (A) (A) (A) (A)
                 (A) (A) (A) (A) (A) (A) (A) (A) (A) (A) (A) (A)
                 (A) (A) (A) (A) (A) (A) (A) (A) (A) (A) (A) (A)
                 (A) (A) (A) (A) (A) (A) (A) (A) (A) (A) (A) (A)
                 (A) (A) (A) (A) (A) (A) (A) (A) (A) (A) (A) (A)
                 (A) (A) (A) (A) (A) (A) (A) (A) (A) (A) (A) (A)
                 (A) (A) (A) (A) (A) (A) (A) (A) (A) (A) (A) (A)
                 (A) (A) (A) (A) (A) (A) (A) (A) (A) (A) (A) (A)
                 (A) (A) (A) (A) (A) (A) (A) (A) (A) (A) (A) (A)
                 (A) (A) (A) (A) (A) (A) (A) (A) (A) (A) (A) (A)
                 (A) (A) (A) (A) (A) (A) (A) (A) (A) (A) (A) (A)
                 (A) (A) (A) (A) (A) (A) (A) (A) (A) (A) (A) (A)
                 (A) (A) (A) (A) (A) (A) (A) (A) (A) (A) (A) (A)
                 (A) (A) (A) (A) (A) (A) (A) (A) (A) (A) (A) (A)
                 (A) (A) (A) (A) (A) (A) (A) (A) (A) (A) (A) (A)
                 (A) (A) (A) (A) (A) (A) (A) (A) (A) (A) (A) (A)
                 (A) (A) (A) (A) (A) (A) (A) (A) (A) (A) (A) (A)
                 (A) (A) (A) (A) (A) (A) (A) (A) (A) (A) (A) (A)
                 (A) (A) (A) (A) (A) (A) (A) (A) (A) (A) (A) (A)
                 (A) (A) (A) (A) (A) (A) (A) (A) (A) (A) (A) (A)
                 (A) (A) (A) (A) (A) (A) (A) (A) (A) (A) (A) (A)
                 (A) (A) (A) (A) (A) (A) (A) (A) (A) (A) (A) (A)
                 (A) (A) (A) (A) (A) (A) (A) (A) (A) (A) (A) (A)
                 (A) (A) (A) (A) (A) (A) (A) (A) (A) (A) (A) (A)
                 (A) (A) (A) (A) (A) (A) (A) (A) (A) (A) (A) (A)
                 (A) (A) (A) (A) (A) (A) (A) (A) (A) (A) (A) (A)
                 (A) (A) (A) (A) (A) (A) (A) (A) (A) (A) (A) (A)
                 (A) (A) (A) (A) (A) (A) (A) (A) (A) (A) (A) (A)
                 (A) (A) (A) (A) (A) (A) (A) (A) (A) (A) (A) (A)
                 (A) (A) (A) (A) (A) (A) (A) (A) (A) (A) (A) (A)
                 (A) (A) (A) (A) (A) (A) (A) (A) (A) (A) (A) (A)
                 (A) (A) (A) (A) (A) (A) (A) (A) (A) (A) (A) (A)
                 (A) (A) (A) (A) (A) (A) (A) (A) (A) (A) (A) (A)
                 (A) (A) (A) (A) (A) (A)
 The electronic state is 1-A.
 Alpha  occ. eigenvalues --  -18.90794 -18.90453 -14.14139 -10.07476 -10.07221
 Alpha  occ. eigenvalues --  -10.05533 -10.05241 -10.04813 -10.02152 -10.01875
 Alpha  occ. eigenvalues --  -10.01808 -10.01755 -10.01647 -10.01525 -10.01222
 Alpha  occ. eigenvalues --  -10.01181 -10.01168 -10.01095 -10.01091 -10.00979
 Alpha  occ. eigenvalues --  -10.00977 -10.00962 -10.00900 -10.00892 -10.00762
 Alpha  occ. eigenvalues --  -10.00267 -10.00212  -1.10652  -1.10321  -1.01836
 Alpha  occ. eigenvalues --   -0.92498  -0.91599  -0.90856  -0.89405  -0.83700
 Alpha  occ. eigenvalues --   -0.81847  -0.81481  -0.80723  -0.80555  -0.80017
 Alpha  occ. eigenvalues --   -0.79123  -0.76330  -0.70686  -0.70172  -0.68780
 Alpha  occ. eigenvalues --   -0.68031  -0.67117  -0.66109  -0.65655  -0.64302
 Alpha  occ. eigenvalues --   -0.62255  -0.61496  -0.60570  -0.59066  -0.56656
 Alpha  occ. eigenvalues --   -0.55523  -0.55285  -0.54227  -0.53385  -0.52847
 Alpha  occ. eigenvalues --   -0.51455  -0.50982  -0.50611  -0.50098  -0.49828
 Alpha  occ. eigenvalues --   -0.49486  -0.49052  -0.48723  -0.48552  -0.48223
 Alpha  occ. eigenvalues --   -0.47624  -0.46360  -0.45765  -0.45373  -0.44375
 Alpha  occ. eigenvalues --   -0.44294  -0.43559  -0.42676  -0.41950  -0.41697
 Alpha  occ. eigenvalues --   -0.41133  -0.40938  -0.40376  -0.39884  -0.37823
 Alpha  occ. eigenvalues --   -0.34905  -0.33809  -0.32978  -0.32894  -0.32094
 Alpha  occ. eigenvalues --   -0.30567  -0.29779  -0.24886
 Alpha virt. eigenvalues --    0.02245   0.03309   0.04314   0.04992   0.05441
 Alpha virt. eigenvalues --    0.06300   0.06718   0.09183   0.09465   0.09713
 Alpha virt. eigenvalues --    0.11556   0.12145   0.12660   0.13129   0.13883
 Alpha virt. eigenvalues --    0.14628   0.15040   0.15412   0.15907   0.16478
 Alpha virt. eigenvalues --    0.17129   0.17554   0.17818   0.18388   0.18633
 Alpha virt. eigenvalues --    0.19217   0.19562   0.20171   0.21117   0.21348
 Alpha virt. eigenvalues --    0.21633   0.22403   0.22566   0.22869   0.23289
 Alpha virt. eigenvalues --    0.24649   0.25190   0.26070   0.26469   0.27063
 Alpha virt. eigenvalues --    0.27244   0.27692   0.27874   0.28025   0.28474
 Alpha virt. eigenvalues --    0.28785   0.29268   0.29461   0.29655   0.30104
 Alpha virt. eigenvalues --    0.30354   0.30651   0.30908   0.31017   0.31335
 Alpha virt. eigenvalues --    0.31477   0.31794   0.32114   0.33237   0.33516
 Alpha virt. eigenvalues --    0.33920   0.34405   0.34675   0.34904   0.35141
 Alpha virt. eigenvalues --    0.35620   0.35892   0.36162   0.36616   0.37126
 Alpha virt. eigenvalues --    0.37698   0.38257   0.38667   0.38996   0.39483
 Alpha virt. eigenvalues --    0.39979   0.40499   0.40707   0.40945   0.41308
 Alpha virt. eigenvalues --    0.41800   0.42247   0.42497   0.42702   0.42928
 Alpha virt. eigenvalues --    0.43332   0.43772   0.44256   0.44472   0.44607
 Alpha virt. eigenvalues --    0.45135   0.45294   0.45706   0.45840   0.46014
 Alpha virt. eigenvalues --    0.46485   0.46857   0.46988   0.47633   0.48197
 Alpha virt. eigenvalues --    0.48395   0.48918   0.49152   0.49256   0.49549
 Alpha virt. eigenvalues --    0.49978   0.50041   0.50355   0.50978   0.51482
 Alpha virt. eigenvalues --    0.51767   0.51879   0.52304   0.52397   0.52662
 Alpha virt. eigenvalues --    0.53622   0.54263   0.54650   0.54904   0.54969
 Alpha virt. eigenvalues --    0.55644   0.56075   0.56454   0.56735   0.56846
 Alpha virt. eigenvalues --    0.57556   0.57693   0.57843   0.58501   0.59165
 Alpha virt. eigenvalues --    0.59267   0.60238   0.61153   0.61440   0.61686
 Alpha virt. eigenvalues --    0.61764   0.62624   0.63369   0.64220   0.64792
 Alpha virt. eigenvalues --    0.64972   0.65559   0.66324   0.66650   0.67305
 Alpha virt. eigenvalues --    0.69268   0.69568   0.69989   0.70659   0.71924
 Alpha virt. eigenvalues --    0.72496   0.72739   0.73155   0.73882   0.74615
 Alpha virt. eigenvalues --    0.74767   0.75334   0.76460   0.76681   0.76845
 Alpha virt. eigenvalues --    0.77023   0.77629   0.78112   0.78227   0.78741
 Alpha virt. eigenvalues --    0.79277   0.80079   0.81472   0.81732   0.82298
 Alpha virt. eigenvalues --    0.82756   0.83856   0.84473   0.85808   0.86272
 Alpha virt. eigenvalues --    0.87285   0.88791   0.89319   0.89779   0.91594
 Alpha virt. eigenvalues --    0.92623   0.93843   0.94014   0.96078   0.96688
 Alpha virt. eigenvalues --    0.98541   0.99952   1.02022   1.17417   1.21291
 Alpha virt. eigenvalues --    1.22534   1.25649   1.27083   1.27336   1.28570
 Alpha virt. eigenvalues --    1.28915   1.29377   1.29882   1.30072   1.30250
 Alpha virt. eigenvalues --    1.30685   1.30911   1.31495   1.31828   1.32165
 Alpha virt. eigenvalues --    1.32606   1.33465   1.34021   1.34687   1.34871
 Alpha virt. eigenvalues --    1.34980   1.35847   1.36022   1.36510   1.36865
 Alpha virt. eigenvalues --    1.37239   1.37271   1.37723   1.37922   1.38440
 Alpha virt. eigenvalues --    1.39411   1.40195   1.40433   1.40992   1.41434
 Alpha virt. eigenvalues --    1.41723   1.43988   1.44267   1.46255   1.46765
 Alpha virt. eigenvalues --    1.46903   1.47360   1.47591   1.47667   1.47917
 Alpha virt. eigenvalues --    1.48413   1.49008   1.49567   1.49649   1.49819
 Alpha virt. eigenvalues --    1.49871   1.50076   1.50311   1.50934   1.51362
 Alpha virt. eigenvalues --    1.51542   1.52469   1.52597   1.52657   1.52989
 Alpha virt. eigenvalues --    1.53192   1.53649   1.54200   1.54588   1.54880
 Alpha virt. eigenvalues --    1.55975   1.56081   1.56842   1.57651   1.57802
 Alpha virt. eigenvalues --    1.57985   1.58340   1.58604   1.58950   1.59161
 Alpha virt. eigenvalues --    1.59330   1.59872   1.60153   1.60222   1.60530
 Alpha virt. eigenvalues --    1.60829   1.61536   1.61934   1.62517   1.63259
 Alpha virt. eigenvalues --    1.63482   1.64052   1.64426   1.65136   1.65476
 Alpha virt. eigenvalues --    1.66761   1.68016   1.68798   1.70160   1.71308
 Alpha virt. eigenvalues --    1.72151   1.72727   1.72796   1.73612   1.74811
 Alpha virt. eigenvalues --    1.77121   1.78841   1.80130   1.80457   1.81125
 Alpha virt. eigenvalues --    1.81545   1.82065   1.82338   1.82764   1.83286
 Alpha virt. eigenvalues --    1.83620   1.84058   1.84404   1.84726   1.85551
 Alpha virt. eigenvalues --    1.85677   1.85815   1.86823   1.87176   1.88060
 Alpha virt. eigenvalues --    1.88812   1.89216   1.91102   1.91679   1.92578
 Alpha virt. eigenvalues --    1.92898   1.93193   1.93538   1.94235   1.94522
 Alpha virt. eigenvalues --    1.94842   1.95186   1.95697   1.95887   1.96274
 Alpha virt. eigenvalues --    1.97000   1.97762   1.98055   1.98384   1.98465
 Alpha virt. eigenvalues --    1.98801   1.99290   1.99905   2.00317   2.00968
 Alpha virt. eigenvalues --    2.02520   2.02849   2.03878   2.04303   2.04777
 Alpha virt. eigenvalues --    2.05008   2.05939   2.06171   2.06697   2.07202
 Alpha virt. eigenvalues --    2.08465   2.09925   2.10246   2.11963   2.13706
 Alpha virt. eigenvalues --    2.14857   2.15778   2.16929   2.18135   2.21566
 Alpha virt. eigenvalues --    2.23312   2.24077   2.25423   2.25945   2.27228
 Alpha virt. eigenvalues --    2.28505   2.29493   2.29883   2.31022   2.31365
 Alpha virt. eigenvalues --    2.32675   2.33762   2.33856   2.34333   2.35010
 Alpha virt. eigenvalues --    2.35601   2.35909   2.36202   2.36633   2.36715
 Alpha virt. eigenvalues --    2.37440   2.37611   2.38408   2.38684   2.39041
 Alpha virt. eigenvalues --    2.39256   2.39645   2.40500   2.40917   2.41493
 Alpha virt. eigenvalues --    2.41719   2.41768   2.42270   2.43028   2.43182
 Alpha virt. eigenvalues --    2.43580   2.44257   2.45276   2.49815   2.50845
 Alpha virt. eigenvalues --    2.52071   2.53040   2.54137   2.54307   2.55085
 Alpha virt. eigenvalues --    2.56243   2.56708   2.57548   2.58612   2.60396
 Alpha virt. eigenvalues --    2.60574   2.60755   2.62450   2.64104   2.64632
 Alpha virt. eigenvalues --    2.64909   2.65314   2.65864   2.67061   2.67854
 Alpha virt. eigenvalues --    2.68410   2.69005   2.69185   2.69522   2.70194
 Alpha virt. eigenvalues --    2.70914   2.71971   2.72485   2.73458   2.74157
 Alpha virt. eigenvalues --    2.74796   2.76273   2.77164   2.78654   2.80180
 Alpha virt. eigenvalues --    2.81191   2.82448   2.82620   2.83406   2.85206
 Alpha virt. eigenvalues --    2.85514   2.86445   2.87605   2.89318   2.90121
 Alpha virt. eigenvalues --    2.91849   2.92439   2.96535   2.97039   2.97918
 Alpha virt. eigenvalues --    2.98842   3.00227   3.01163   3.02390   3.02660
 Alpha virt. eigenvalues --    3.02708   3.03836   3.05223   3.06351   3.07095
 Alpha virt. eigenvalues --    3.07412   3.07907   3.08284   3.08995   3.10849
 Alpha virt. eigenvalues --    3.12093   3.12651   3.14053   3.14185   3.15630
 Alpha virt. eigenvalues --    3.16811   3.17499   3.18458   3.19891   3.20476
 Alpha virt. eigenvalues --    3.20669   3.22049   3.23047   3.23463   3.24405
 Alpha virt. eigenvalues --    3.24976   3.26572   3.27173   3.28134   3.29668
 Alpha virt. eigenvalues --    3.30717   3.32403   3.32940   3.33674   3.35731
 Alpha virt. eigenvalues --    3.37777   3.39815   3.40558   3.43021   3.43690
 Alpha virt. eigenvalues --    3.44277   3.44759   3.50268   3.57333   3.58310
 Alpha virt. eigenvalues --    3.59492   3.61008   3.61607   3.62244   3.75204
 Alpha virt. eigenvalues --    3.83534   3.87212   3.94387   4.09596   4.10407
 Alpha virt. eigenvalues --    4.34412   4.34970  21.11118  21.26506  21.28850
 Alpha virt. eigenvalues --   21.35675  21.65167  21.71058  21.72982  21.76105
 Alpha virt. eigenvalues --   21.77932  21.79090  21.85202  21.88337  21.94000
 Alpha virt. eigenvalues --   21.96642  21.98774  21.99410  22.01190  22.02540
 Alpha virt. eigenvalues --   22.05674  22.07055  22.11034  22.12573  22.17431
 Alpha virt. eigenvalues --   22.20733  32.08100  43.26245  43.28026
          Condensed to atoms (all electrons):
               1          2          3          4          5          6
     1  C    4.999356   0.465648   0.393918  -0.008462  -0.005661  -0.109498
     2  C    0.465648   4.986866  -0.022261   0.464619  -0.077385  -0.020913
     3  C    0.393918  -0.022261   5.180507  -0.108266   0.423419  -0.032978
     4  C   -0.008462   0.464619  -0.108266   5.002108  -0.004366   0.390732
     5  C   -0.005661  -0.077385   0.423419  -0.004366   5.391197   0.421527
     6  C   -0.109498  -0.020913  -0.032978   0.390732   0.421527   5.180163
     7  H   -0.059423   0.420425   0.018405  -0.059484  -0.004641   0.018421
     8  H   -0.036875   0.010830   0.403747  -0.001827  -0.051013   0.015387
     9  H    0.013790  -0.058597  -0.000819   0.415275   0.015238  -0.052479
    10  H   -0.001903   0.010903   0.015613  -0.037153  -0.050610   0.403559
    11  C    0.021826   0.005748  -0.095289   0.019760   0.165344  -0.090290
    12  C   -0.000405   0.000087   0.025110   0.002396  -0.131469  -0.012839
    13  C    0.001686   0.000064  -0.014260   0.000123  -0.135923   0.025086
    14  C    0.000273  -0.000023  -0.000999  -0.000387   0.040136   0.001427
    15  C   -0.000156  -0.000026   0.002310   0.000230   0.042961  -0.001108
    16  C   -0.000071   0.000012   0.000026  -0.000032  -0.012799   0.000662
    17  H   -0.000072   0.000078  -0.000314   0.000575  -0.019755   0.003865
    18  H    0.000348   0.000072   0.003570  -0.000019  -0.019580  -0.000298
    19  H   -0.000001   0.000000   0.000010  -0.000005  -0.000981  -0.000046
    20  H   -0.000003   0.000000  -0.000021  -0.000001  -0.000770   0.000006
    21  H    0.415087  -0.058564  -0.052148   0.013795   0.015184  -0.000856
    22  N   -0.000000   0.000000   0.000009  -0.000000  -0.000271   0.000006
    23  C   -0.000001   0.000000  -0.000014   0.000000  -0.000070   0.000010
    24  C    0.000000   0.000000  -0.000000  -0.000000  -0.000000   0.000000
    25  C   -0.000000   0.000000   0.000006   0.000000  -0.000003  -0.000013
    26  C    0.000000  -0.000000  -0.000000   0.000000   0.000000  -0.000000
    27  C    0.000000  -0.000000   0.000000   0.000000   0.000002  -0.000000
    28  C    0.000000  -0.000000   0.000000  -0.000000   0.000000   0.000000
    29  H   -0.000000   0.000000  -0.000000   0.000000  -0.000000   0.000000
    30  H   -0.000000   0.000000   0.000001   0.000000  -0.000048   0.000003
    31  H   -0.000000   0.000000   0.000000  -0.000000  -0.000000  -0.000000
    32  H    0.000000  -0.000000   0.000000  -0.000000  -0.000000   0.000000
    33  C    0.000000   0.000000   0.000003  -0.000001  -0.000113  -0.000011
    34  C   -0.000000   0.000000   0.000000   0.000000  -0.000000  -0.000000
    35  C    0.000000   0.000000  -0.000009  -0.000000  -0.000052   0.000006
    36  C   -0.000000  -0.000000  -0.000000   0.000000   0.000001   0.000000
    37  C    0.000000  -0.000000  -0.000000   0.000000   0.000005   0.000000
    38  C    0.000000   0.000000   0.000000   0.000000  -0.000001   0.000000
    39  H    0.000000   0.000000   0.000000  -0.000000  -0.000000   0.000000
    40  H    0.000000   0.000000   0.000004  -0.000000  -0.000076   0.000001
    41  H   -0.000000   0.000000  -0.000000  -0.000000  -0.000000  -0.000000
    42  H   -0.000000   0.000000  -0.000000   0.000000  -0.000000   0.000000
    43  O    0.000000   0.000000  -0.000000  -0.000000   0.000000  -0.000000
    44  H   -0.000000   0.000000  -0.000000  -0.000000  -0.000000  -0.000000
    45  O   -0.000000  -0.000000  -0.000000  -0.000000   0.000000  -0.000000
    46  H   -0.000000   0.000000  -0.000000  -0.000000  -0.000000   0.000000
               7          8          9         10         11         12
     1  C   -0.059423  -0.036875   0.013790  -0.001903   0.021826  -0.000405
     2  C    0.420425   0.010830  -0.058597   0.010903   0.005748   0.000087
     3  C    0.018405   0.403747  -0.000819   0.015613  -0.095289   0.025110
     4  C   -0.059484  -0.001827   0.415275  -0.037153   0.019760   0.002396
     5  C   -0.004641  -0.051013   0.015238  -0.050610   0.165344  -0.131469
     6  C    0.018421   0.015387  -0.052479   0.403559  -0.090290  -0.012839
     7  H    0.574853  -0.000200  -0.008105  -0.000200  -0.000183  -0.000007
     8  H   -0.000200   0.547390   0.000035  -0.000164  -0.019364  -0.000196
     9  H   -0.008105   0.000035   0.578663  -0.006649  -0.001509  -0.000020
    10  H   -0.000200  -0.000164  -0.006649   0.547665  -0.019039   0.005224
    11  C   -0.000183  -0.019364  -0.001509  -0.019039   5.472959   0.369656
    12  C   -0.000007  -0.000196  -0.000020   0.005224   0.369656   5.404947
    13  C   -0.000007   0.005212   0.000016  -0.000310   0.395382   0.007961
    14  C    0.000000  -0.000161  -0.000011   0.000693   0.000804   0.210227
    15  C    0.000000   0.000992  -0.000002  -0.000122  -0.014833  -0.145938
    16  C   -0.000000   0.000046   0.000000   0.000058  -0.130534   0.039993
    17  H   -0.000003  -0.000022   0.000005   0.001057  -0.070186   0.405459
    18  H   -0.000003   0.001102   0.000000  -0.000026  -0.070101   0.016888
    19  H    0.000000   0.000000  -0.000000  -0.000001   0.012932  -0.046415
    20  H    0.000000   0.000001   0.000000   0.000001   0.012400   0.000063
    21  H   -0.008098  -0.006626  -0.000225   0.000034  -0.001499   0.000017
    22  N   -0.000000  -0.000002  -0.000000  -0.000001   0.003675   0.020466
    23  C   -0.000000  -0.000000  -0.000000   0.000000  -0.000422   0.000112
    24  C    0.000000  -0.000000  -0.000000   0.000000   0.000049  -0.000303
    25  C    0.000000   0.000000   0.000000  -0.000002  -0.000219   0.001823
    26  C    0.000000  -0.000000  -0.000000  -0.000000   0.000017  -0.000080
    27  C    0.000000   0.000000   0.000000  -0.000000  -0.000092   0.000070
    28  C   -0.000000   0.000000   0.000000   0.000000   0.000013  -0.000005
    29  H   -0.000000   0.000000  -0.000000   0.000000   0.000000   0.000013
    30  H    0.000000   0.000000  -0.000000   0.000001   0.000168   0.000804
    31  H   -0.000000  -0.000000  -0.000000  -0.000000  -0.000006   0.000003
    32  H   -0.000000   0.000000   0.000000   0.000000  -0.000000   0.000000
    33  C   -0.000000  -0.000000  -0.000000  -0.000001   0.001873  -0.008732
    34  C    0.000000   0.000000  -0.000000  -0.000000   0.000165   0.001824
    35  C    0.000000  -0.000002  -0.000000   0.000001  -0.002114  -0.006531
    36  C   -0.000000  -0.000000   0.000000  -0.000000   0.000063   0.000016
    37  C    0.000000  -0.000000   0.000000   0.000000  -0.000064  -0.000466
    38  C   -0.000000   0.000000  -0.000000   0.000000  -0.000021  -0.000086
    39  H   -0.000000   0.000000  -0.000000   0.000000  -0.000008  -0.000034
    40  H   -0.000000   0.000001  -0.000000   0.000000   0.000154  -0.002237
    41  H   -0.000000  -0.000000  -0.000000  -0.000000  -0.000000  -0.000003
    42  H   -0.000000  -0.000000  -0.000000   0.000000   0.000002   0.000009
    43  O    0.000000   0.000000   0.000000  -0.000000   0.000000   0.000000
    44  H    0.000000  -0.000000  -0.000000  -0.000000  -0.000000   0.000000
    45  O    0.000000  -0.000000   0.000000  -0.000000  -0.000000   0.000000
    46  H    0.000000  -0.000000  -0.000000   0.000000   0.000000  -0.000000
              13         14         15         16         17         18
     1  C    0.001686   0.000273  -0.000156  -0.000071  -0.000072   0.000348
     2  C    0.000064  -0.000023  -0.000026   0.000012   0.000078   0.000072
     3  C   -0.014260  -0.000999   0.002310   0.000026  -0.000314   0.003570
     4  C    0.000123  -0.000387   0.000230  -0.000032   0.000575  -0.000019
     5  C   -0.135923   0.040136   0.042961  -0.012799  -0.019755  -0.019580
     6  C    0.025086   0.001427  -0.001108   0.000662   0.003865  -0.000298
     7  H   -0.000007   0.000000   0.000000  -0.000000  -0.000003  -0.000003
     8  H    0.005212  -0.000161   0.000992   0.000046  -0.000022   0.001102
     9  H    0.000016  -0.000011  -0.000002   0.000000   0.000005   0.000000
    10  H   -0.000310   0.000693  -0.000122   0.000058   0.001057  -0.000026
    11  C    0.395382   0.000804  -0.014833  -0.130534  -0.070186  -0.070101
    12  C    0.007961   0.210227  -0.145938   0.039993   0.405459   0.016888
    13  C    5.363937  -0.149721   0.240696   0.018193   0.016965   0.406237
    14  C   -0.149721   5.399127  -0.070154   0.318087  -0.027495  -0.002016
    15  C    0.240696  -0.070154   5.407410   0.343602  -0.002022  -0.028008
    16  C    0.018193   0.318087   0.343602   5.472752   0.017339   0.016764
    17  H    0.016965  -0.027495  -0.002022   0.017339   0.554183  -0.000106
    18  H    0.406237  -0.002016  -0.028008   0.016764  -0.000106   0.555948
    19  H    0.000394   0.405374   0.010149  -0.044443  -0.006488   0.000014
    20  H   -0.032535   0.009810   0.400868  -0.047363   0.000005  -0.006392
    21  H   -0.000019  -0.000002  -0.000010   0.000000   0.000000   0.000004
    22  N    0.020650  -0.019080  -0.010358   0.164794  -0.000471  -0.000535
    23  C    0.001437  -0.014566   0.011910  -0.066593   0.000073   0.000077
    24  C    0.001525  -0.012856   0.024078  -0.009634   0.000002  -0.000015
    25  C   -0.010098   0.026521  -0.066306   0.022561  -0.000040  -0.000166
    26  C    0.000048  -0.000343   0.002467  -0.002866   0.000000  -0.000001
    27  C   -0.000913   0.000891  -0.008554   0.001173  -0.000001   0.000003
    28  C   -0.000190   0.000346  -0.001124   0.003635  -0.000000  -0.000003
    29  H   -0.000030  -0.000143   0.000016  -0.000876  -0.000000  -0.000000
    30  H   -0.002122  -0.000560   0.000890   0.001402   0.000006   0.000006
    31  H    0.000024  -0.000031  -0.000123  -0.000103   0.000000  -0.000000
    32  H   -0.000001   0.000001  -0.000013   0.000021  -0.000000   0.000000
    33  C   -0.003630   0.040360  -0.009202  -0.090140  -0.000055   0.000048
    34  C   -0.000688   0.013678  -0.011316  -0.020676  -0.000058  -0.000001
    35  C    0.005200  -0.057306   0.013085   0.029383   0.000041  -0.000015
    36  C   -0.000112   0.002637   0.000252  -0.001527  -0.000007   0.000000
    37  C    0.000177  -0.004820   0.001299   0.000304   0.000030  -0.000002
    38  C    0.000026  -0.002036   0.000004   0.001784  -0.000002   0.000000
    39  H    0.000025   0.000811  -0.000460  -0.001570  -0.000001   0.000000
    40  H    0.000926   0.001996  -0.002173  -0.001408  -0.000026   0.000005
    41  H    0.000000  -0.000041   0.000002  -0.000017   0.000000  -0.000000
    42  H   -0.000003   0.000143  -0.000025  -0.000209  -0.000000   0.000000
    43  O   -0.000000   0.000010   0.000000  -0.000009  -0.000000  -0.000000
    44  H    0.000000  -0.000000   0.000000  -0.000001   0.000000   0.000000
    45  O    0.000001  -0.000001   0.000017  -0.000005  -0.000000  -0.000000
    46  H    0.000000  -0.000000   0.000003  -0.000008   0.000000  -0.000000
              19         20         21         22         23         24
     1  C   -0.000001  -0.000003   0.415087  -0.000000  -0.000001   0.000000
     2  C    0.000000   0.000000  -0.058564   0.000000   0.000000   0.000000
     3  C    0.000010  -0.000021  -0.052148   0.000009  -0.000014  -0.000000
     4  C   -0.000005  -0.000001   0.013795  -0.000000   0.000000  -0.000000
     5  C   -0.000981  -0.000770   0.015184  -0.000271  -0.000070  -0.000000
     6  C   -0.000046   0.000006  -0.000856   0.000006   0.000010   0.000000
     7  H    0.000000   0.000000  -0.008098  -0.000000  -0.000000   0.000000
     8  H    0.000000   0.000001  -0.006626  -0.000002  -0.000000  -0.000000
     9  H   -0.000000   0.000000  -0.000225  -0.000000  -0.000000  -0.000000
    10  H   -0.000001   0.000001   0.000034  -0.000001   0.000000   0.000000
    11  C    0.012932   0.012400  -0.001499   0.003675  -0.000422   0.000049
    12  C   -0.046415   0.000063   0.000017   0.020466   0.000112  -0.000303
    13  C    0.000394  -0.032535  -0.000019   0.020650   0.001437   0.001525
    14  C    0.405374   0.009810  -0.000002  -0.019080  -0.014566  -0.012856
    15  C    0.010149   0.400868  -0.000010  -0.010358   0.011910   0.024078
    16  C   -0.044443  -0.047363   0.000000   0.164794  -0.066593  -0.009634
    17  H   -0.006488   0.000005   0.000000  -0.000471   0.000073   0.000002
    18  H    0.000014  -0.006392   0.000004  -0.000535   0.000077  -0.000015
    19  H    0.528833  -0.000232   0.000000  -0.009238  -0.001686  -0.000248
    20  H   -0.000232   0.510915  -0.000000  -0.003547  -0.000247  -0.000591
    21  H    0.000000  -0.000000   0.578380  -0.000000  -0.000000   0.000000
    22  N   -0.009238  -0.003547  -0.000000   6.586075   0.188034  -0.043310
    23  C   -0.001686  -0.000247  -0.000000   0.188034   5.312432   0.265701
    24  C   -0.000248  -0.000591   0.000000  -0.043310   0.265701   6.081820
    25  C    0.000291   0.000936  -0.000000  -0.001735   0.395344  -0.207756
    26  C    0.000020   0.000510  -0.000000   0.025739   0.041002   0.113099
    27  C   -0.000010  -0.001830  -0.000000   0.010728  -0.042426   0.049246
    28  C    0.000003   0.000833   0.000000   0.006617  -0.029251  -0.380594
    29  H   -0.000012   0.000015  -0.000000  -0.013777  -0.020632   0.378369
    30  H   -0.000037   0.000868  -0.000000  -0.005718  -0.034507   0.009115
    31  H   -0.000001  -0.000047  -0.000000  -0.000627   0.013945   0.002018
    32  H    0.000000   0.000003  -0.000000  -0.000042  -0.002940   0.019700
    33  C    0.008278  -0.001625  -0.000000   0.083092  -0.078871   0.069655
    34  C   -0.005054  -0.000422  -0.000000  -0.016048   0.034611  -0.089537
    35  C    0.003180   0.000817   0.000000  -0.003924  -0.021647   0.015347
    36  C    0.002328   0.000025   0.000000   0.029797  -0.006775  -0.001197
    37  C   -0.002299   0.000014   0.000000   0.017623  -0.002427   0.002665
    38  C    0.000341  -0.000004  -0.000000   0.003268   0.001826  -0.002958
    39  H    0.000198  -0.000007  -0.000000  -0.006571  -0.001958   0.003960
    40  H    0.001093   0.000016  -0.000000  -0.008097  -0.001236   0.000394
    41  H    0.000018  -0.000000  -0.000000  -0.000741  -0.000031   0.000124
    42  H   -0.000006   0.000000  -0.000000  -0.000560  -0.000002  -0.000030
    43  O   -0.000008  -0.000000   0.000000  -0.000007   0.000009   0.000004
    44  H   -0.000002  -0.000000  -0.000000  -0.000003  -0.000000  -0.000002
    45  O   -0.000000  -0.000001   0.000000  -0.000024   0.011098  -0.102288
    46  H    0.000000  -0.000000  -0.000000   0.000018  -0.003227   0.024579
              25         26         27         28         29         30
     1  C   -0.000000   0.000000   0.000000   0.000000  -0.000000  -0.000000
     2  C    0.000000  -0.000000  -0.000000  -0.000000   0.000000   0.000000
     3  C    0.000006  -0.000000   0.000000   0.000000  -0.000000   0.000001
     4  C    0.000000   0.000000   0.000000  -0.000000   0.000000   0.000000
     5  C   -0.000003   0.000000   0.000002   0.000000  -0.000000  -0.000048
     6  C   -0.000013  -0.000000  -0.000000   0.000000   0.000000   0.000003
     7  H    0.000000   0.000000   0.000000  -0.000000  -0.000000   0.000000
     8  H    0.000000  -0.000000   0.000000   0.000000   0.000000   0.000000
     9  H    0.000000  -0.000000   0.000000   0.000000  -0.000000  -0.000000
    10  H   -0.000002  -0.000000  -0.000000   0.000000   0.000000   0.000001
    11  C   -0.000219   0.000017  -0.000092   0.000013   0.000000   0.000168
    12  C    0.001823  -0.000080   0.000070  -0.000005   0.000013   0.000804
    13  C   -0.010098   0.000048  -0.000913  -0.000190  -0.000030  -0.002122
    14  C    0.026521  -0.000343   0.000891   0.000346  -0.000143  -0.000560
    15  C   -0.066306   0.002467  -0.008554  -0.001124   0.000016   0.000890
    16  C    0.022561  -0.002866   0.001173   0.003635  -0.000876   0.001402
    17  H   -0.000040   0.000000  -0.000001  -0.000000  -0.000000   0.000006
    18  H   -0.000166  -0.000001   0.000003  -0.000003  -0.000000   0.000006
    19  H    0.000291   0.000020  -0.000010   0.000003  -0.000012  -0.000037
    20  H    0.000936   0.000510  -0.001830   0.000833   0.000015   0.000868
    21  H   -0.000000  -0.000000  -0.000000   0.000000  -0.000000  -0.000000
    22  N   -0.001735   0.025739   0.010728   0.006617  -0.013777  -0.005718
    23  C    0.395344   0.041002  -0.042426  -0.029251  -0.020632  -0.034507
    24  C   -0.207756   0.113099   0.049246  -0.380594   0.378369   0.009115
    25  C    5.320362  -0.085422   0.387778   0.028925   0.013192   0.390411
    26  C   -0.085422   5.184049   0.054886   0.340063  -0.043766   0.000174
    27  C    0.387778   0.054886   5.109632   0.176120  -0.003118  -0.030704
    28  C    0.028925   0.340063   0.176120   5.811981   0.014548   0.010663
    29  H    0.013192  -0.043766  -0.003118   0.014548   0.504083  -0.000193
    30  H    0.390411   0.000174  -0.030704   0.010663  -0.000193   0.505950
    31  H   -0.045807   0.013097   0.408144  -0.060056   0.000020  -0.006732
    32  H    0.015897  -0.072844  -0.014961   0.384762  -0.000190  -0.000213
    33  C   -0.008175  -0.017162  -0.002783  -0.000243   0.008306  -0.001218
    34  C    0.020708  -0.006977   0.001536   0.001394   0.006254   0.000555
    35  C   -0.010053   0.001716  -0.000126  -0.000135  -0.005266  -0.000387
    36  C    0.001286   0.000887   0.000030   0.000081  -0.003518  -0.000008
    37  C    0.000022   0.000122  -0.000073   0.000040   0.001442   0.000019
    38  C    0.000015  -0.000228   0.000027  -0.000019   0.000368  -0.000005
    39  H   -0.000626  -0.003796   0.000772  -0.000155   0.000873   0.000000
    40  H   -0.000318  -0.000081   0.000024  -0.000013   0.000087  -0.000011
    41  H   -0.000033   0.000010  -0.000002   0.000000  -0.000003   0.000000
    42  H    0.000003  -0.000003   0.000000   0.000000   0.000021   0.000000
    43  O    0.000000   0.000000  -0.000000   0.000000  -0.000005   0.000000
    44  H   -0.000000   0.000000   0.000000  -0.000000   0.000001  -0.000000
    45  O   -0.001714   0.419764   0.016512  -0.109747   0.003181   0.000003
    46  H   -0.000312  -0.030641   0.006456  -0.037835  -0.000617  -0.000001
              31         32         33         34         35         36
     1  C   -0.000000   0.000000   0.000000  -0.000000   0.000000  -0.000000
     2  C    0.000000  -0.000000   0.000000   0.000000   0.000000  -0.000000
     3  C    0.000000   0.000000   0.000003   0.000000  -0.000009  -0.000000
     4  C   -0.000000  -0.000000  -0.000001   0.000000  -0.000000   0.000000
     5  C   -0.000000  -0.000000  -0.000113  -0.000000  -0.000052   0.000001
     6  C   -0.000000   0.000000  -0.000011  -0.000000   0.000006   0.000000
     7  H   -0.000000  -0.000000  -0.000000   0.000000   0.000000  -0.000000
     8  H   -0.000000   0.000000  -0.000000   0.000000  -0.000002  -0.000000
     9  H   -0.000000   0.000000  -0.000000  -0.000000  -0.000000   0.000000
    10  H   -0.000000   0.000000  -0.000001  -0.000000   0.000001  -0.000000
    11  C   -0.000006  -0.000000   0.001873   0.000165  -0.002114   0.000063
    12  C    0.000003   0.000000  -0.008732   0.001824  -0.006531   0.000016
    13  C    0.000024  -0.000001  -0.003630  -0.000688   0.005200  -0.000112
    14  C   -0.000031   0.000001   0.040360   0.013678  -0.057306   0.002637
    15  C   -0.000123  -0.000013  -0.009202  -0.011316   0.013085   0.000252
    16  C   -0.000103   0.000021  -0.090140  -0.020676   0.029383  -0.001527
    17  H    0.000000  -0.000000  -0.000055  -0.000058   0.000041  -0.000007
    18  H   -0.000000   0.000000   0.000048  -0.000001  -0.000015   0.000000
    19  H   -0.000001   0.000000   0.008278  -0.005054   0.003180   0.002328
    20  H   -0.000047   0.000003  -0.001625  -0.000422   0.000817   0.000025
    21  H   -0.000000  -0.000000  -0.000000  -0.000000   0.000000   0.000000
    22  N   -0.000627  -0.000042   0.083092  -0.016048  -0.003924   0.029797
    23  C    0.013945  -0.002940  -0.078871   0.034611  -0.021647  -0.006775
    24  C    0.002018   0.019700   0.069655  -0.089537   0.015347  -0.001197
    25  C   -0.045807   0.015897  -0.008175   0.020708  -0.010053   0.001286
    26  C    0.013097  -0.072844  -0.017162  -0.006977   0.001716   0.000887
    27  C    0.408144  -0.014961  -0.002783   0.001536  -0.000126   0.000030
    28  C   -0.060056   0.384762  -0.000243   0.001394  -0.000135   0.000081
    29  H    0.000020  -0.000190   0.008306   0.006254  -0.005266  -0.003518
    30  H   -0.006732  -0.000213  -0.001218   0.000555  -0.000387  -0.000008
    31  H    0.578171  -0.006943   0.000050  -0.000026  -0.000001  -0.000001
    32  H   -0.006943   0.577369   0.000027  -0.000009   0.000001  -0.000001
    33  C    0.000050   0.000027   5.680815   0.268666   0.355815   0.108540
    34  C   -0.000026  -0.000009   0.268666   5.581848  -0.124724  -0.186947
    35  C   -0.000001   0.000001   0.355815  -0.124724   5.152769  -0.071251
    36  C   -0.000001  -0.000001   0.108540  -0.186947  -0.071251   6.158177
    37  C    0.000000  -0.000000   0.022571  -0.025159   0.326492  -0.167816
    38  C    0.000000   0.000000  -0.159620   0.132385  -0.000292   0.134328
    39  H    0.000002   0.000003  -0.030169   0.401460   0.012202  -0.047707
    40  H   -0.000000   0.000000  -0.049534   0.018093   0.432737  -0.004506
    41  H    0.000000  -0.000000   0.012660   0.013366   0.003525   0.377325
    42  H   -0.000000  -0.000000   0.017987  -0.003548  -0.043611   0.017133
    43  O   -0.000000   0.000000  -0.001499   0.020925   0.005075  -0.112916
    44  H    0.000000  -0.000000  -0.000778   0.008016  -0.001642  -0.042281
    45  O   -0.000085  -0.005428  -0.000426   0.000581  -0.000013   0.000005
    46  H   -0.000021   0.002345  -0.000000  -0.000033   0.000003  -0.000001
              37         38         39         40         41         42
     1  C    0.000000   0.000000   0.000000   0.000000  -0.000000  -0.000000
     2  C   -0.000000   0.000000   0.000000   0.000000   0.000000   0.000000
     3  C   -0.000000   0.000000   0.000000   0.000004  -0.000000  -0.000000
     4  C    0.000000   0.000000  -0.000000  -0.000000  -0.000000   0.000000
     5  C    0.000005  -0.000001  -0.000000  -0.000076  -0.000000  -0.000000
     6  C    0.000000   0.000000   0.000000   0.000001  -0.000000   0.000000
     7  H    0.000000  -0.000000  -0.000000  -0.000000  -0.000000  -0.000000
     8  H   -0.000000   0.000000   0.000000   0.000001  -0.000000  -0.000000
     9  H    0.000000  -0.000000  -0.000000  -0.000000  -0.000000  -0.000000
    10  H    0.000000   0.000000   0.000000   0.000000  -0.000000   0.000000
    11  C   -0.000064  -0.000021  -0.000008   0.000154  -0.000000   0.000002
    12  C   -0.000466  -0.000086  -0.000034  -0.002237  -0.000003   0.000009
    13  C    0.000177   0.000026   0.000025   0.000926   0.000000  -0.000003
    14  C   -0.004820  -0.002036   0.000811   0.001996  -0.000041   0.000143
    15  C    0.001299   0.000004  -0.000460  -0.002173   0.000002  -0.000025
    16  C    0.000304   0.001784  -0.001570  -0.001408  -0.000017  -0.000209
    17  H    0.000030  -0.000002  -0.000001  -0.000026   0.000000  -0.000000
    18  H   -0.000002   0.000000   0.000000   0.000005  -0.000000   0.000000
    19  H   -0.002299   0.000341   0.000198   0.001093   0.000018  -0.000006
    20  H    0.000014  -0.000004  -0.000007   0.000016  -0.000000   0.000000
    21  H    0.000000  -0.000000  -0.000000  -0.000000  -0.000000  -0.000000
    22  N    0.017623   0.003268  -0.006571  -0.008097  -0.000741  -0.000560
    23  C   -0.002427   0.001826  -0.001958  -0.001236  -0.000031  -0.000002
    24  C    0.002665  -0.002958   0.003960   0.000394   0.000124  -0.000030
    25  C    0.000022   0.000015  -0.000626  -0.000318  -0.000033   0.000003
    26  C    0.000122  -0.000228  -0.003796  -0.000081   0.000010  -0.000003
    27  C   -0.000073   0.000027   0.000772   0.000024  -0.000002   0.000000
    28  C    0.000040  -0.000019  -0.000155  -0.000013   0.000000   0.000000
    29  H    0.001442   0.000368   0.000873   0.000087  -0.000003   0.000021
    30  H    0.000019  -0.000005   0.000000  -0.000011   0.000000   0.000000
    31  H    0.000000   0.000000   0.000002  -0.000000   0.000000  -0.000000
    32  H   -0.000000   0.000000   0.000003   0.000000  -0.000000  -0.000000
    33  C    0.022571  -0.159620  -0.030169  -0.049534   0.012660   0.017987
    34  C   -0.025159   0.132385   0.401460   0.018093   0.013366  -0.003548
    35  C    0.326492  -0.000292   0.012202   0.432737   0.003525  -0.043611
    36  C   -0.167816   0.134328  -0.047707  -0.004506   0.377325   0.017133
    37  C    5.353688   0.403514  -0.000752  -0.072497   0.004670   0.417589
    38  C    0.403514   5.103604   0.010534   0.018930  -0.082362  -0.073068
    39  H   -0.000752   0.010534   0.529078  -0.000198  -0.005946   0.000025
    40  H   -0.072497   0.018930  -0.000198   0.539010   0.000026  -0.008350
    41  H    0.004670  -0.082362  -0.005946   0.000026   0.571101  -0.000258
    42  H    0.417589  -0.073068   0.000025  -0.008350  -0.000258   0.552544
    43  O   -0.078363   0.405851  -0.000054  -0.000106  -0.006108   0.002461
    44  H    0.019003  -0.023852  -0.000035   0.000029   0.001195  -0.000653
    45  O   -0.000001   0.000009   0.000012  -0.000001  -0.000002   0.000000
    46  H   -0.000000   0.000000  -0.000000  -0.000000   0.000000  -0.000000
              43         44         45         46
     1  C    0.000000  -0.000000  -0.000000  -0.000000
     2  C    0.000000   0.000000  -0.000000   0.000000
     3  C   -0.000000  -0.000000  -0.000000  -0.000000
     4  C   -0.000000  -0.000000  -0.000000  -0.000000
     5  C    0.000000  -0.000000   0.000000  -0.000000
     6  C   -0.000000  -0.000000  -0.000000   0.000000
     7  H    0.000000   0.000000   0.000000   0.000000
     8  H    0.000000  -0.000000  -0.000000  -0.000000
     9  H    0.000000  -0.000000   0.000000  -0.000000
    10  H   -0.000000  -0.000000  -0.000000   0.000000
    11  C    0.000000  -0.000000  -0.000000   0.000000
    12  C    0.000000   0.000000   0.000000  -0.000000
    13  C   -0.000000   0.000000   0.000001   0.000000
    14  C    0.000010  -0.000000  -0.000001  -0.000000
    15  C    0.000000   0.000000   0.000017   0.000003
    16  C   -0.000009  -0.000001  -0.000005  -0.000008
    17  H   -0.000000   0.000000  -0.000000   0.000000
    18  H   -0.000000   0.000000  -0.000000  -0.000000
    19  H   -0.000008  -0.000002  -0.000000   0.000000
    20  H   -0.000000  -0.000000  -0.000001  -0.000000
    21  H    0.000000  -0.000000   0.000000  -0.000000
    22  N   -0.000007  -0.000003  -0.000024   0.000018
    23  C    0.000009  -0.000000   0.011098  -0.003227
    24  C    0.000004  -0.000002  -0.102288   0.024579
    25  C    0.000000  -0.000000  -0.001714  -0.000312
    26  C    0.000000   0.000000   0.419764  -0.030641
    27  C   -0.000000   0.000000   0.016512   0.006456
    28  C    0.000000  -0.000000  -0.109747  -0.037835
    29  H   -0.000005   0.000001   0.003181  -0.000617
    30  H    0.000000  -0.000000   0.000003  -0.000001
    31  H   -0.000000   0.000000  -0.000085  -0.000021
    32  H    0.000000  -0.000000  -0.005428   0.002345
    33  C   -0.001499  -0.000778  -0.000426  -0.000000
    34  C    0.020925   0.008016   0.000581  -0.000033
    35  C    0.005075  -0.001642  -0.000013   0.000003
    36  C   -0.112916  -0.042281   0.000005  -0.000001
    37  C   -0.078363   0.019003  -0.000001  -0.000000
    38  C    0.405851  -0.023852   0.000009   0.000000
    39  H   -0.000054  -0.000035   0.000012  -0.000000
    40  H   -0.000106   0.000029  -0.000001  -0.000000
    41  H   -0.006108   0.001195  -0.000002   0.000000
    42  H    0.002461  -0.000653   0.000000  -0.000000
    43  O    7.700928   0.304202   0.000000  -0.000000
    44  H    0.304202   0.467618   0.000000   0.000000
    45  O    0.000000   0.000000   7.702350   0.302650
    46  H   -0.000000   0.000000   0.302650   0.467515
 Mulliken charges:
               1
     1  C   -0.089402
     2  C   -0.127583
     3  C   -0.139280
     4  C   -0.089611
     5  C    0.000574
     6  C   -0.139532
     7  H    0.108247
     8  H    0.131707
     9  H    0.105395
    10  H    0.131371
    11  C    0.032784
    12  C   -0.157398
    13  C   -0.161431
    14  C   -0.110600
    15  C   -0.131206
    16  C   -0.021707
    17  H    0.127442
    18  H    0.126200
    19  H    0.143753
    20  H    0.157532
    21  H    0.105543
    22  N   -0.015905
    23  C    0.051906
    24  C   -0.210130
    25  C   -0.187282
    26  C    0.066542
    27  C   -0.118437
    28  C   -0.160657
    29  H    0.161358
    30  H    0.161424
    31  H    0.105135
    32  H    0.103456
    33  C   -0.214757
    34  C   -0.034841
    35  C   -0.008293
    36  C   -0.186343
    37  C   -0.216551
    38  C    0.127736
    39  H    0.140092
    40  H    0.137340
    41  H    0.111524
    42  H    0.122411
    43  O   -0.240389
    44  H    0.269185
    45  O   -0.236448
    46  H    0.269127
 Sum of Mulliken charges =  -0.00000
 Mulliken charges with hydrogens summed into heavy atoms:
               1
     1  C    0.016141
     2  C   -0.019336
     3  C   -0.007573
     4  C    0.015784
     5  C    0.000574
     6  C   -0.008161
    11  C    0.032784
    12  C   -0.029956
    13  C   -0.035231
    14  C    0.033153
    15  C    0.026326
    16  C   -0.021707
    22  N   -0.015905
    23  C    0.051906
    24  C   -0.048772
    25  C   -0.025858
    26  C    0.066542
    27  C   -0.013302
    28  C   -0.057201
    33  C   -0.214757
    34  C    0.105251
    35  C    0.129047
    36  C   -0.074819
    37  C   -0.094141
    38  C    0.127736
    43  O    0.028796
    45  O    0.032678
 Electronic spatial extent (au):  <R**2>=          13386.7718
 Charge=             -0.0000 electrons
 Dipole moment (field-independent basis, Debye):
    X=              1.2993    Y=             -1.0374    Z=             -1.4666  Tot=              2.2170
 Quadrupole moment (field-independent basis, Debye-Ang):
   XX=           -137.9421   YY=           -146.1445   ZZ=           -152.1052
   XY=             -3.6438   XZ=             -8.6817   YZ=             -6.8141
 Traceless Quadrupole moment (field-independent basis, Debye-Ang):
   XX=              7.4551   YY=             -0.7472   ZZ=             -6.7079
   XY=             -3.6438   XZ=             -8.6817   YZ=             -6.8141
 Octapole moment (field-independent basis, Debye-Ang**2):
  XXX=             55.8150  YYY=            -69.8700  ZZZ=              5.5536  XYY=            111.4254
  XXY=             -6.3268  XXZ=            -39.3452  XZZ=             -9.3198  YZZ=             13.3571
  YYZ=            -23.3659  XYZ=            -17.5826
 Hexadecapole moment (field-independent basis, Debye-Ang**3):
 XXXX=         -11924.8079 YYYY=          -4114.5660 ZZZZ=           -791.2420 XXXY=            -69.5072
 XXXZ=           -187.7543 YYYX=           -254.7811 YYYZ=           -103.7622 ZZZX=              3.7899
 ZZZY=            -15.9282 XXYY=          -2501.9663 XXZZ=          -2232.1761 YYZZ=           -823.1748
 XXYZ=           -275.0420 YYXZ=            -97.0234 ZZXY=             48.0637
 N-N= 2.186775923160D+03 E-N=-7.005165292838D+03  KE= 1.125393667956D+03
 No NMR shielding tensors so no spin-rotation constants.
 Leave Link  601 at Sun Jan 17 17:51:06 2021, MaxMem=  4026531840 cpu:               4.5 elap:               0.7
 (Enter /opt/ohpc/pub/libs/gaussian/g16-A.03/sandybridge/g16/l9999.exe)

 Test job not archived.
 1\1\GINC-CASCADEB002\SP\RLC-wHPBE\TZVP\C24H19N1O2\RDU230\17-Jan-2021\0
 \\#P LC-wHPBE/TZVP iop(3/107=0221900000, 3/108=0221900000) scf=(conver
 =6,fermi,ndamp=35,noincfock,novaracc,vshift=500,xqc)\\H19 C24 N1 O2\\0
 ,1\C,0,-6.538108,-0.217341,1.255514\C,0,-7.258661,0.087287,0.107878\C,
 0,-5.15139,-0.259049,1.219222\C,0,-6.580697,0.348691,-1.075777\C,0,-4.
 458004,0.000662,0.035726\C,0,-5.193998,0.304569,-1.110911\H,0,-8.34564
 4,0.121015,0.135956\H,0,-4.59391,-0.476283,2.12835\H,0,-7.136138,0.581
 164,-1.982188\H,0,-4.671509,0.488761,-2.047704\C,0,-2.974479,-0.044963
 ,-0.00277\C,0,-2.240322,0.918366,-0.694597\C,0,-2.265576,-1.051297,0.6
 54611\C,0,-0.856277,0.875925,-0.739808\C,0,-0.88157,-1.094369,0.628888
 \C,0,-0.155643,-0.133238,-0.077397\H,0,-2.762026,1.727417,-1.202285\H,
 0,-2.809037,-1.823891,1.195264\H,0,-0.306381,1.639189,-1.284917\H,0,-0
 .352632,-1.885069,1.15502\H,0,-7.059465,-0.416189,2.189743\N,0,1.25702
 6,-0.160831,-0.103806\C,0,1.965402,-1.377887,-0.17457\C,0,3.190004,-1.
 508547,0.478017\C,0,1.461496,-2.456008,-0.912094\C,0,3.903051,-2.69689
 1,0.390217\C,0,2.178621,-3.638306,-0.97461\C,0,3.402953,-3.775056,-0.3
 32839\H,0,3.600761,-0.690157,1.062074\H,0,0.51484,-2.358097,-1.435231\
 H,0,1.782807,-4.471654,-1.551437\H,0,3.963923,-4.706428,-0.398055\C,0,
 1.972861,1.068372,-0.045814\C,0,2.971482,1.350948,-0.972341\C,0,1.6830
 86,2.012203,0.939258\C,0,3.67678,2.543988,-0.910119\C,0,2.365608,3.214
 996,0.992156\C,0,3.371443,3.4833,0.069272\H,0,3.205268,0.621566,-1.744
 392\H,0,0.904271,1.798314,1.667748\H,0,4.460878,2.747602,-1.639197\H,0
 ,2.139895,3.954598,1.756001\O,0,4.022986,4.680331,0.173244\H,0,4.69528
 7,4.73835,-0.517835\O,0,5.097214,-2.751708,1.053752\H,0,5.479651,-3.63
 1493,0.941087\\Version=EM64L-G16RevA.03\State=1-A\HF=-1130.550656\RMSD
 =9.944e-07\Dipole=0.5111704,-0.4081628,-0.5769893\Quadrupole=5.5427012
 ,-0.5555185,-4.9871828,-2.7090778,-6.454665,-5.0660898\PG=C01 [X(C24H1
 9N1O2)]\\@


 I HAVE NOT FAILED, I HAVE ONLY DISCOVERED 10,000
 WAYS THAT DIDN'T WORK.  -- THOMAS A. EDISON
 Job cpu time:       0 days  1 hours 32 minutes 26.7 seconds.
 Elapsed time:       0 days  0 hours 11 minutes 35.6 seconds.
 File lengths (MBytes):  RWF=    176 Int=      0 D2E=      0 Chk=     28 Scr=      8
 Normal termination of Gaussian 16 at Sun Jan 17 17:51:06 2021.
