 Entering Gaussian System, Link 0=g16
 Input=mol_bp_ma_half_tune_c7.gjf
 Output=mol_bp_ma_half_tune_c7.log
 Initial command:
 /opt/ohpc/pub/libs/gaussian/g16-A.03/sandybridge/g16/l1.exe "/mnt/gpfs2_4m/scratch/rdu230/ondemand/projects/init_structures/wtuning/mol_bp_ma_half/tuning_mol_bp_ma_half_ocycle0/Gau-77275.inp" -scrdir="/mnt/gpfs2_4m/scratch/rdu230/ondemand/projects/init_structures/wtuning/mol_bp_ma_half/tuning_mol_bp_ma_half_ocycle0/"
 Entering Link 1 = /opt/ohpc/pub/libs/gaussian/g16-A.03/sandybridge/g16/l1.exe PID=     77276.
  
 Copyright (c) 1988,1990,1992,1993,1995,1998,2003,2009,2016,
            Gaussian, Inc.  All Rights Reserved.
  
 This is part of the Gaussian(R) 16 program.  It is based on
 the Gaussian(R) 09 system (copyright 2009, Gaussian, Inc.),
 the Gaussian(R) 03 system (copyright 2003, Gaussian, Inc.),
 the Gaussian(R) 98 system (copyright 1998, Gaussian, Inc.),
 the Gaussian(R) 94 system (copyright 1995, Gaussian, Inc.),
 the Gaussian 92(TM) system (copyright 1992, Gaussian, Inc.),
 the Gaussian 90(TM) system (copyright 1990, Gaussian, Inc.),
 the Gaussian 88(TM) system (copyright 1988, Gaussian, Inc.),
 the Gaussian 86(TM) system (copyright 1986, Carnegie Mellon
 University), and the Gaussian 82(TM) system (copyright 1983,
 Carnegie Mellon University). Gaussian is a federally registered
 trademark of Gaussian, Inc.
  
 This software contains proprietary and confidential information,
 including trade secrets, belonging to Gaussian, Inc.
  
 This software is provided under written license and may be
 used, copied, transmitted, or stored only in accord with that
 written license.
  
 The following legend is applicable only to US Government
 contracts under FAR:
  
                    RESTRICTED RIGHTS LEGEND
  
 Use, reproduction and disclosure by the US Government is
 subject to restrictions as set forth in subparagraphs (a)
 and (c) of the Commercial Computer Software - Restricted
 Rights clause in FAR 52.227-19.
  
 Gaussian, Inc.
 340 Quinnipiac St., Bldg. 40, Wallingford CT 06492
  
  
 ---------------------------------------------------------------
 Warning -- This program may not be used in any manner that
 competes with the business of Gaussian, Inc. or will provide
 assistance to any competitor of Gaussian, Inc.  The licensee
 of this program is prohibited from giving any competitor of
 Gaussian, Inc. access to this program.  By using this program,
 the user acknowledges that Gaussian, Inc. is engaged in the
 business of creating and licensing software in the field of
 computational chemistry and represents and warrants to the
 licensee that it is not a competitor of Gaussian, Inc. and that
 it will not use this program in any manner prohibited above.
 ---------------------------------------------------------------
  

 Cite this work as:
 Gaussian 16, Revision A.03,
 M. J. Frisch, G. W. Trucks, H. B. Schlegel, G. E. Scuseria, 
 M. A. Robb, J. R. Cheeseman, G. Scalmani, V. Barone, 
 G. A. Petersson, H. Nakatsuji, X. Li, M. Caricato, A. V. Marenich, 
 J. Bloino, B. G. Janesko, R. Gomperts, B. Mennucci, H. P. Hratchian, 
 J. V. Ortiz, A. F. Izmaylov, J. L. Sonnenberg, D. Williams-Young, 
 F. Ding, F. Lipparini, F. Egidi, J. Goings, B. Peng, A. Petrone, 
 T. Henderson, D. Ranasinghe, V. G. Zakrzewski, J. Gao, N. Rega, 
 G. Zheng, W. Liang, M. Hada, M. Ehara, K. Toyota, R. Fukuda, 
 J. Hasegawa, M. Ishida, T. Nakajima, Y. Honda, O. Kitao, H. Nakai, 
 T. Vreven, K. Throssell, J. A. Montgomery, Jr., J. E. Peralta, 
 F. Ogliaro, M. J. Bearpark, J. J. Heyd, E. N. Brothers, K. N. Kudin, 
 V. N. Staroverov, T. A. Keith, R. Kobayashi, J. Normand, 
 K. Raghavachari, A. P. Rendell, J. C. Burant, S. S. Iyengar, 
 J. Tomasi, M. Cossi, J. M. Millam, M. Klene, C. Adamo, R. Cammi, 
 J. W. Ochterski, R. L. Martin, K. Morokuma, O. Farkas, 
 J. B. Foresman, and D. J. Fox, Gaussian, Inc., Wallingford CT, 2016.
 
 ******************************************
 Gaussian 16:  EM64L-G16RevA.03 25-Dec-2016
                17-Jan-2021 
 ******************************************
 %mem=30GB
 %nproc=8
 Will use up to    8 processors via shared memory.
 ----------------------------------------------------------------------
 #P LC-wHPBE/TZVP iop(3/107=0176600000, 3/108=0176600000) scf=(conver=6
 ,fermi,ndamp=35,noincfock,novaracc,vshift=500,xqc)
 ----------------------------------------------------------------------
 1/38=1,172=1/1;
 2/12=2,17=6,18=5,40=1/2;
 3/5=19,7=101,11=2,25=1,30=1,74=-71,107=176600000,108=176600000/1,2,3;
 4//1;
 5/5=100002,6=6,8=3,10=500,13=1,18=-1,22=13,38=1,93=35/2,8;
 6/7=2,8=2,9=2,10=2,28=1/1;
 99/5=1,9=1/99;
 Leave Link    1 at Sun Jan 17 21:51:22 2021, MaxMem=  4026531840 cpu:               2.1 elap:               0.4
 (Enter /opt/ohpc/pub/libs/gaussian/g16-A.03/sandybridge/g16/l101.exe)
 -------------
 H19 C24 N1 O2
 -------------
 Symbolic Z-matrix:
 Charge =  1 Multiplicity = 2
 C                    -6.53811  -0.21734   1.25551 
 C                    -7.25866   0.08729   0.10788 
 C                    -5.15139  -0.25905   1.21922 
 C                    -6.5807    0.34869  -1.07578 
 C                    -4.458     0.00066   0.03573 
 C                    -5.194     0.30457  -1.11091 
 H                    -8.34564   0.12102   0.13596 
 H                    -4.59391  -0.47628   2.12835 
 H                    -7.13614   0.58116  -1.98219 
 H                    -4.67151   0.48876  -2.0477 
 C                    -2.97448  -0.04496  -0.00277 
 C                    -2.24032   0.91837  -0.6946 
 C                    -2.26558  -1.0513    0.65461 
 C                    -0.85628   0.87593  -0.73981 
 C                    -0.88157  -1.09437   0.62889 
 C                    -0.15564  -0.13324  -0.0774 
 H                    -2.76203   1.72742  -1.20229 
 H                    -2.80904  -1.82389   1.19526 
 H                    -0.30638   1.63919  -1.28492 
 H                    -0.35263  -1.88507   1.15502 
 H                    -7.05947  -0.41619   2.18974 
 N                     1.25703  -0.16083  -0.10381 
 C                     1.9654   -1.37789  -0.17457 
 C                     3.19     -1.50855   0.47802 
 C                     1.4615   -2.45601  -0.91209 
 C                     3.90305  -2.69689   0.39022 
 C                     2.17862  -3.63831  -0.97461 
 C                     3.40295  -3.77506  -0.33284 
 H                     3.60076  -0.69016   1.06207 
 H                     0.51484  -2.3581   -1.43523 
 H                     1.78281  -4.47165  -1.55144 
 H                     3.96392  -4.70643  -0.39806 
 C                     1.97286   1.06837  -0.04581 
 C                     2.97148   1.35095  -0.97234 
 C                     1.68309   2.0122    0.93926 
 C                     3.67678   2.54399  -0.91012 
 C                     2.36561   3.215     0.99216 
 C                     3.37144   3.4833    0.06927 
 H                     3.20527   0.62157  -1.74439 
 H                     0.90427   1.79831   1.66775 
 H                     4.46088   2.7476   -1.6392 
 H                     2.1399    3.9546    1.756 
 O                     4.02299   4.68033   0.17324 
 H                     4.69529   4.73835  -0.51784 
 O                     5.09721  -2.75171   1.05375 
 H                     5.47965  -3.63149   0.94109 
 
 ITRead=  0  0  0  0  0  0  0  0  0  0  0  0  0  0  0  0  0  0  0  0
 ITRead=  0  0  0  0  0  0  0  0  0  0  0  0  0  0  0  0  0  0  0  0
 ITRead=  0  0  0  0  0  0
 MicOpt= -1 -1 -1 -1 -1 -1 -1 -1 -1 -1 -1 -1 -1 -1 -1 -1 -1 -1 -1 -1
 MicOpt= -1 -1 -1 -1 -1 -1 -1 -1 -1 -1 -1 -1 -1 -1 -1 -1 -1 -1 -1 -1
 MicOpt= -1 -1 -1 -1 -1 -1
 NAtoms=     46 NQM=       46 NQMF=       0 NMMI=      0 NMMIF=      0
                NMic=       0 NMicF=      0.
                    Isotopes and Nuclear Properties:
 (Nuclear quadrupole moments (NQMom) in fm**2, nuclear magnetic moments (NMagM)
  in nuclear magnetons)

  Atom         1           2           3           4           5           6           7           8           9          10
 IAtWgt=          12          12          12          12          12          12           1           1           1           1
 AtmWgt=  12.0000000  12.0000000  12.0000000  12.0000000  12.0000000  12.0000000   1.0078250   1.0078250   1.0078250   1.0078250
 NucSpn=           0           0           0           0           0           0           1           1           1           1
 AtZEff=  -0.0000000  -0.0000000  -0.0000000  -0.0000000  -0.0000000  -0.0000000  -0.0000000  -0.0000000  -0.0000000  -0.0000000
 NQMom=    0.0000000   0.0000000   0.0000000   0.0000000   0.0000000   0.0000000   0.0000000   0.0000000   0.0000000   0.0000000
 NMagM=    0.0000000   0.0000000   0.0000000   0.0000000   0.0000000   0.0000000   2.7928460   2.7928460   2.7928460   2.7928460
 AtZNuc=   6.0000000   6.0000000   6.0000000   6.0000000   6.0000000   6.0000000   1.0000000   1.0000000   1.0000000   1.0000000

  Atom        11          12          13          14          15          16          17          18          19          20
 IAtWgt=          12          12          12          12          12          12           1           1           1           1
 AtmWgt=  12.0000000  12.0000000  12.0000000  12.0000000  12.0000000  12.0000000   1.0078250   1.0078250   1.0078250   1.0078250
 NucSpn=           0           0           0           0           0           0           1           1           1           1
 AtZEff=  -0.0000000  -0.0000000  -0.0000000  -0.0000000  -0.0000000  -0.0000000  -0.0000000  -0.0000000  -0.0000000  -0.0000000
 NQMom=    0.0000000   0.0000000   0.0000000   0.0000000   0.0000000   0.0000000   0.0000000   0.0000000   0.0000000   0.0000000
 NMagM=    0.0000000   0.0000000   0.0000000   0.0000000   0.0000000   0.0000000   2.7928460   2.7928460   2.7928460   2.7928460
 AtZNuc=   6.0000000   6.0000000   6.0000000   6.0000000   6.0000000   6.0000000   1.0000000   1.0000000   1.0000000   1.0000000

  Atom        21          22          23          24          25          26          27          28          29          30
 IAtWgt=           1          14          12          12          12          12          12          12           1           1
 AtmWgt=   1.0078250  14.0030740  12.0000000  12.0000000  12.0000000  12.0000000  12.0000000  12.0000000   1.0078250   1.0078250
 NucSpn=           1           2           0           0           0           0           0           0           1           1
 AtZEff=  -0.0000000  -0.0000000  -0.0000000  -0.0000000  -0.0000000  -0.0000000  -0.0000000  -0.0000000  -0.0000000  -0.0000000
 NQMom=    0.0000000   2.0440000   0.0000000   0.0000000   0.0000000   0.0000000   0.0000000   0.0000000   0.0000000   0.0000000
 NMagM=    2.7928460   0.4037610   0.0000000   0.0000000   0.0000000   0.0000000   0.0000000   0.0000000   2.7928460   2.7928460
 AtZNuc=   1.0000000   7.0000000   6.0000000   6.0000000   6.0000000   6.0000000   6.0000000   6.0000000   1.0000000   1.0000000

  Atom        31          32          33          34          35          36          37          38          39          40
 IAtWgt=           1           1          12          12          12          12          12          12           1           1
 AtmWgt=   1.0078250   1.0078250  12.0000000  12.0000000  12.0000000  12.0000000  12.0000000  12.0000000   1.0078250   1.0078250
 NucSpn=           1           1           0           0           0           0           0           0           1           1
 AtZEff=  -0.0000000  -0.0000000  -0.0000000  -0.0000000  -0.0000000  -0.0000000  -0.0000000  -0.0000000  -0.0000000  -0.0000000
 NQMom=    0.0000000   0.0000000   0.0000000   0.0000000   0.0000000   0.0000000   0.0000000   0.0000000   0.0000000   0.0000000
 NMagM=    2.7928460   2.7928460   0.0000000   0.0000000   0.0000000   0.0000000   0.0000000   0.0000000   2.7928460   2.7928460
 AtZNuc=   1.0000000   1.0000000   6.0000000   6.0000000   6.0000000   6.0000000   6.0000000   6.0000000   1.0000000   1.0000000

  Atom        41          42          43          44          45          46
 IAtWgt=           1           1          16           1          16           1
 AtmWgt=   1.0078250   1.0078250  15.9949146   1.0078250  15.9949146   1.0078250
 NucSpn=           1           1           0           1           0           1
 AtZEff=  -0.0000000  -0.0000000  -0.0000000  -0.0000000  -0.0000000  -0.0000000
 NQMom=    0.0000000   0.0000000   0.0000000   0.0000000   0.0000000   0.0000000
 NMagM=    2.7928460   2.7928460   0.0000000   2.7928460   0.0000000   2.7928460
 AtZNuc=   1.0000000   1.0000000   8.0000000   1.0000000   8.0000000   1.0000000
 Leave Link  101 at Sun Jan 17 21:51:23 2021, MaxMem=  4026531840 cpu:               0.7 elap:               0.1
 (Enter /opt/ohpc/pub/libs/gaussian/g16-A.03/sandybridge/g16/l202.exe)
                          Input orientation:                          
 ---------------------------------------------------------------------
 Center     Atomic      Atomic             Coordinates (Angstroms)
 Number     Number       Type             X           Y           Z
 ---------------------------------------------------------------------
      1          6           0       -6.538108   -0.217341    1.255514
      2          6           0       -7.258661    0.087287    0.107878
      3          6           0       -5.151390   -0.259049    1.219222
      4          6           0       -6.580697    0.348691   -1.075777
      5          6           0       -4.458004    0.000662    0.035726
      6          6           0       -5.193998    0.304569   -1.110911
      7          1           0       -8.345644    0.121015    0.135956
      8          1           0       -4.593910   -0.476283    2.128350
      9          1           0       -7.136138    0.581164   -1.982188
     10          1           0       -4.671509    0.488761   -2.047704
     11          6           0       -2.974479   -0.044963   -0.002770
     12          6           0       -2.240322    0.918366   -0.694597
     13          6           0       -2.265576   -1.051297    0.654611
     14          6           0       -0.856277    0.875925   -0.739808
     15          6           0       -0.881570   -1.094369    0.628888
     16          6           0       -0.155643   -0.133238   -0.077397
     17          1           0       -2.762026    1.727417   -1.202285
     18          1           0       -2.809037   -1.823891    1.195264
     19          1           0       -0.306381    1.639189   -1.284917
     20          1           0       -0.352632   -1.885069    1.155020
     21          1           0       -7.059465   -0.416189    2.189743
     22          7           0        1.257026   -0.160831   -0.103806
     23          6           0        1.965402   -1.377887   -0.174570
     24          6           0        3.190004   -1.508547    0.478017
     25          6           0        1.461496   -2.456008   -0.912094
     26          6           0        3.903051   -2.696891    0.390217
     27          6           0        2.178621   -3.638306   -0.974610
     28          6           0        3.402953   -3.775056   -0.332839
     29          1           0        3.600761   -0.690157    1.062074
     30          1           0        0.514840   -2.358097   -1.435231
     31          1           0        1.782807   -4.471654   -1.551437
     32          1           0        3.963923   -4.706428   -0.398055
     33          6           0        1.972861    1.068372   -0.045814
     34          6           0        2.971482    1.350948   -0.972341
     35          6           0        1.683086    2.012203    0.939258
     36          6           0        3.676780    2.543988   -0.910119
     37          6           0        2.365608    3.214996    0.992156
     38          6           0        3.371443    3.483300    0.069272
     39          1           0        3.205268    0.621566   -1.744392
     40          1           0        0.904271    1.798314    1.667748
     41          1           0        4.460878    2.747602   -1.639197
     42          1           0        2.139895    3.954598    1.756001
     43          8           0        4.022986    4.680331    0.173244
     44          1           0        4.695287    4.738350   -0.517835
     45          8           0        5.097214   -2.751708    1.053752
     46          1           0        5.479651   -3.631493    0.941087
 ---------------------------------------------------------------------
                    Distance matrix (angstroms):
                    1          2          3          4          5
     1  C    0.000000
     2  C    1.388907   0.000000
     3  C    1.387820   2.407410   0.000000
     4  C    2.399401   1.388887   2.771153   0.000000
     5  C    2.421206   2.802925   1.396029   2.421237   0.000000
     6  C    2.771099   2.407383   2.397707   1.387846   1.396003
     7  H    2.152924   1.087869   3.394285   2.152945   3.890794
     8  H    2.146811   3.391285   1.088342   3.859318   2.150586
     9  H    3.387914   2.151117   3.859302   1.088182   3.403140
    10  H    3.859277   3.391323   3.385604   2.146919   2.150466
    11  C    3.783179   4.287651   2.505601   3.783004   1.484726
    12  C    4.854248   5.149600   3.677408   4.394165   2.508718
    13  C    4.394439   5.150358   3.045384   4.855356   2.509258
    14  C    6.120437   6.506231   4.855302   5.758458   3.786816
    15  C    5.758321   6.506539   4.390628   6.121140   3.787059
    16  C    6.520704   7.108855   5.162803   6.519995   4.305930
    17  H    4.907306   4.962487   3.939391   4.061913   2.718583
    18  H    4.060862   4.963282   2.817077   4.909497   2.718936
    19  H    6.981040   7.258269   5.774784   6.409069   4.654551
    20  H    6.407147   7.258094   5.067163   6.982473   4.654340
    21  H    1.088181   2.151123   2.146475   3.387902   3.403109
    22  N    7.912968   8.521930   6.544299   7.914180   5.719014
    23  C    8.700672   9.343974   7.337791   8.765218   6.573033
    24  C    9.844180  10.576308   8.466964  10.066291   7.808032
    25  C    8.585093   9.140560   7.286933   8.518803   6.478740
    26  C   10.766369  11.507179   9.413460  11.015157   8.792593
    27  C    9.625893  10.203632   8.364289   9.624554   7.635945
    28  C   10.677307  11.348213   9.378059  10.827304   8.728490
    29  H   10.151731  10.928950   8.764171  10.455224   8.153178
    30  H    7.846465   8.293878   6.599870   7.602799   5.697073
    31  H    9.757857  10.260868   8.573545   9.664894   7.840180
    32  H   11.540314  12.214011  10.270526  11.713349   9.657832
    33  C    8.705349   9.284780   7.356447   8.645352   6.519408
    34  C    9.892177  10.364340   8.565984   9.605173   7.618184
    35  C    8.524020   9.184298   7.207429   8.667050   6.525002
    36  C   10.800872  11.254136   9.504088  10.491073   8.575421
    37  C    9.546018  10.158300   8.284069   9.619170   7.603182
    38  C   10.644300  11.159458   9.379032  10.496761   8.569138
    39  H   10.229202  10.640027   8.910231   9.812574   7.891773
    40  H    7.721516   8.484944   6.411314   8.102659   5.886344
    41  H   11.753635  12.144017  10.469298  11.313204   9.481429
    42  H    9.641748  10.295886   8.438352   9.852424   7.881956
    43  O   11.691673  12.180964  10.471901  11.522207   9.687384
    44  H   12.405354  12.842148  11.178033  12.113142  10.321572
    45  O   11.909846  12.713073  10.548678  12.268699   9.995705
    46  H   12.497273  13.296171  11.156602  12.859300  10.619285
                    6          7          8          9         10
     6  C    0.000000
     7  H    3.394295   0.000000
     8  H    3.385653   4.289744   0.000000
     9  H    2.146517   2.482172   4.947488   0.000000
    10  H    1.088349   4.289857   4.286812   2.467231   0.000000
    11  C    2.505277   5.375519   2.711137   4.650757   2.710448
    12  C    3.045368   6.212934   3.931088   5.073520   2.815338
    13  C    3.678464   6.213738   2.814904   5.774081   3.932277
    14  C    4.390898   7.578091   4.901499   6.408358   4.051726
    15  C    4.856023   7.578426   4.051158   6.981744   4.902457
    16  C    5.161865   8.196724   4.968019   7.270895   4.966089
    17  H    2.819102   5.962232   4.393771   4.588573   2.427988
    18  H    3.941678   5.963121   2.423318   5.882541   4.397045
    19  H    5.069545   8.303823   5.874395   6.946307   4.578173
    20  H    5.776485   8.303680   4.573892   7.870218   5.877517
    21  H    3.859246   2.482113   2.467051   4.290175   4.947446
    22  N    6.545729   9.609797   6.270206   8.632733   6.272817
    23  C    7.413798  10.424049   7.010057   9.483849   7.144340
    24  C    8.723736  11.655199   8.023620  10.818905   8.495404
    25  C    7.208045  10.194089   7.059147   9.180895   6.897465
    26  C    9.696311  12.571228   8.952684  11.757451   9.466516
    27  C    8.361839  11.230583   8.092832  10.275401   8.068983
    28  C    9.547581  12.386633   8.993841  11.522562   9.290739
    29  H    9.113678  12.009675   8.266518  11.232310   8.915774
    30  H    6.307599   9.333960   6.506893   8.214370   5.947936
    31  H    8.466533  11.248352   8.376535  10.259829   8.155378
    32  H   10.463545  13.233095   9.874885  12.396752  10.211857
    33  C    7.285719  10.363497   7.087696   9.325276   6.963560
    34  C    8.233418  11.437587   8.377841  10.187067   7.766279
    35  C    7.376550  10.237056   6.856178   9.400076   7.184963
    36  C    9.151285  12.308686   9.314432  11.041794   8.672484
    37  C    8.369057  11.181982   7.959357  10.298882   8.135977
    38  C    9.212163  12.190141   9.130441  11.092346   8.839566
    39  H    8.429084  11.713660   8.776707  10.344219   7.883733
    40  H    6.865938   9.524739   5.967909   8.913566   6.827066
    41  H    9.973170  13.193071  10.323615  11.802622   9.416461
    42  H    8.679164  11.281287   8.069416  10.554568   8.536710
    43  O   10.283440  13.182252  10.230543  12.082016   9.904348
    44  H   10.853944  13.849661  10.976515  12.625733  10.398864
    45  O   10.951513  13.776985  10.012502  13.037633  10.749308
    46  H   11.559847  14.348113  10.622692  13.618008  11.355854
                   11         12         13         14         15
    11  C    0.000000
    12  C    1.394853   0.000000
    13  C    1.395493   2.387587   0.000000
    14  C    2.424467   1.385433   2.764907   0.000000
    15  C    2.424977   2.765668   1.384915   2.399172   0.000000
    16  C    2.821205   2.415097   2.414640   1.395739   1.396274
    17  H    2.150652   1.088341   3.378724   2.137944   3.853801
    18  H    2.151102   3.378607   1.088374   3.853152   2.137314
    19  H    3.405733   2.146670   3.852133   1.087245   3.386123
    20  H    3.405958   3.852753   2.145912   3.386314   1.087105
    21  H    4.651025   5.772746   5.073595   6.980786   6.408009
    22  N    4.234297   3.707444   3.711718   2.438321   2.445798
    23  C    5.119436   4.819888   4.323815   3.655275   2.971730
    24  C    6.354061   6.062456   5.477556   4.851927   4.095366
    25  C    5.130096   5.013697   4.280052   4.062454   3.117474
    26  C    7.381570   7.210266   6.389823   6.057489   5.051499
    27  C    6.356967   6.353639   5.394244   5.444632   4.290407
    28  C    7.395551   7.348852   6.366015   6.319675   5.144720
    29  H    6.692081   6.308050   5.891550   5.056143   4.521319
    30  H    4.424690   4.344498   3.715626   3.580848   2.794201
    31  H    6.680249   6.780270   5.740635   6.018314   4.822735
    32  H    8.368209   8.379672   7.298955   7.383345   6.130284
    33  C    5.071246   4.265481   4.790401   2.919364   3.644235
    34  C    6.184100   5.237096   5.987030   3.864124   4.836271
    35  C    5.178056   4.388518   5.005795   3.249424   4.040369
    36  C    7.194803   6.140130   7.119414   4.833223   6.031976
    37  C    6.335120   5.416109   6.305796   4.341831   5.408027
    38  C    7.261168   6.217257   7.258180   5.032557   6.273463
    39  H    6.454981   5.553792   6.203533   4.191663   5.027836
    40  H    4.607928   4.030316   4.381171   3.121964   3.554725
    41  H    8.109306   7.010311   8.058435   5.708258   6.960366
    42  H    6.726558   5.866041   6.758714   4.968333   5.990968
    43  O    8.445348   7.357619   8.522282   6.254149   7.590088
    44  H    9.053766   7.919987   9.129527   6.766643   8.150885
    45  O    8.578749   8.388421   7.567125   7.198655   6.218773
    46  H    9.231813   9.109043   8.168722   7.955263   6.855625
                   16         17         18         19         20
    16  C    0.000000
    17  H    3.394207   0.000000
    18  H    3.393888   4.285118   0.000000
    19  H    2.149959   2.458618   4.940396   0.000000
    20  H    2.150946   4.940862   2.457496   4.286703   0.000000
    21  H    7.272052   5.879531   4.586584   7.867781   6.943333
    22  N    1.413185   4.574376   4.581072   2.660702   2.673694
    23  C    2.461184   5.748712   4.987046   3.936574   2.719986
    24  C    3.659688   6.980082   6.049990   5.024031   3.626344
    25  C    2.950783   5.951756   4.803955   4.476050   2.808913
    26  C    4.823274   8.156826   6.816330   6.271123   4.399411
    27  C    4.305727   7.297452   5.733863   5.841531   3.743849
    28  C    5.098205   8.309038   6.688121   6.631716   4.459842
    29  H    3.964735   7.173357   6.510653   5.118591   4.131074
    30  H    2.691330   5.242475   4.272357   4.083539   2.772303
    31  H    4.975162   7.694537   5.969929   6.463601   4.309922
    32  H    6.163417   9.342352   7.531313   7.699927   5.385606
    33  C    2.444462   4.918427   5.724684   2.656342   3.946230
    34  C    3.575282   5.750454   6.942083   3.305325   5.103646
    35  C    3.002903   4.942300   5.912726   3.007336   4.402207
    36  C    4.748519   6.496951   8.097952   4.101793   6.333838
    37  C    4.325658   5.772443   7.225551   3.848085   5.781524
    38  C    5.053830   6.505338   8.223896   4.331393   6.623214
    39  H    3.826790   6.093060   7.126970   3.684882   5.229576
    40  H    2.810666   4.656592   5.208864   3.195189   3.925558
    41  H    5.661336   7.307668   9.043472   4.907224   7.241489
    42  H    5.034009   6.143340   7.628715   4.537903   6.377741
    43  O    6.379201   7.526498   9.488201   5.488005   7.950748
    44  H    6.888968   8.071289  10.114969   5.933793   8.494093
    45  O    5.977323   9.323085   7.961763   7.344943   5.519252
    46  H    6.710562  10.061670   8.487307   8.137159   6.091904
                   21         22         23         24         25
    21  H    0.000000
    22  N    8.630736   0.000000
    23  C    9.378863   1.409975   0.000000
    24  C   10.448678   2.427192   1.393769   0.000000
    25  C    9.294570   2.441920   1.400074   2.412018   0.000000
    26  C   11.340928   3.698257   2.411066   1.388635   2.777630
    27  C   10.282869   3.701415   2.407285   2.769277   1.384198
    28  C   11.274201   4.209523   2.799647   2.416588   2.417577
    29  H   10.723204   2.670685   2.162559   1.086097   3.404706
    30  H    8.618674   2.674231   2.157361   3.396874   1.086009
    31  H   10.422524   4.577693   3.391238   3.857316   2.138885
    32  H   12.108589   5.298710   3.888858   3.404834   3.404522
    33  C    9.422555   1.423630   2.449656   2.897645   3.665132
    34  C   10.664963   2.445238   3.015821   3.213721   4.095925
    35  C    9.159312   2.447772   3.579529   3.857360   4.841644
    36  C   11.560223   3.717714   4.341768   4.311254   5.468770
    37  C   10.171122   3.718373   4.755627   4.822429   6.050113
    38  C   11.336060   4.216682   5.066315   5.011839   6.315565
    39  H   11.041698   2.664454   2.828325   3.078428   3.633858
    40  H    8.282366   2.664787   3.822092   4.192298   5.006530
    41  H   12.545464   4.591413   5.039067   4.920622   6.050002
    42  H   10.194123   4.601641   5.673883   5.708058   6.976735
    43  O   12.363717   5.582485   6.407545   6.252116   7.659408
    44  H   13.117715   5.999586   6.706598   6.502409   7.897571
    45  O   12.431008   4.774896   3.633787   2.348270   4.143722
    46  H   13.004874   5.564877   4.321270   3.156551   4.578386
                   26         27         28         29         30
    26  C    0.000000
    27  C    2.392211   0.000000
    28  C    1.391168   1.389086   0.000000
    29  H    2.137698   3.855145   3.391388   0.000000
    30  H    3.863550   2.149250   3.400623   4.305980   0.000000
    31  H    3.378644   1.088057   2.143619   4.943189   2.467462
    32  H    2.159471   2.158843   1.089217   4.288857   4.299601
    33  C    4.253582   4.801856   5.058294   2.640057   3.974543
    34  C    4.371428   5.051860   5.183729   2.949737   4.472848
    35  C    5.235003   5.986376   6.169971   3.315918   5.109062
    36  C    5.404524   6.361556   6.351264   3.788802   5.856965
    37  C    6.138116   7.132383   7.189751   4.096427   6.354283
    38  C    6.211310   7.295875   7.269554   4.296043   6.674251
    39  H    4.006946   4.448941   4.621888   3.123025   4.026459
    40  H    5.552624   6.177610   6.427147   3.718923   5.201527
    41  H    5.837139   6.813970   6.735788   4.455879   6.456081
    42  H    7.015439   8.069072   8.105931   4.918273   7.257746
    43  O    7.381386   8.597614   8.493181   5.459893   8.027064
    44  H    7.532264   8.758460   8.612922   5.758714   8.287178
    45  O    1.367227   3.663126   2.416691   2.547437   5.229543
    46  H    1.913794   3.816640   2.440527   3.492323   5.649582
                   31         32         33         34         35
    31  H    0.000000
    32  H    2.478442   0.000000
    33  C    5.744120   6.118555   0.000000
    34  C    5.970845   6.164945   1.391239   0.000000
    35  C    6.946503   7.220154   1.394688   2.398215   0.000000
    36  C    7.295043   7.274146   2.414085   1.387322   2.770885
    37  C    8.117519   8.199772   2.416532   2.775069   1.383960
    38  C    8.272349   8.224419   2.793055   2.406627   2.402405
    39  H    5.291646   5.547585   2.145607   1.087528   3.384211
    40  H    7.102639   7.479350   2.147323   3.382834   1.087658
    41  H    7.700482   7.572976   3.398369   2.147938   3.860747
    42  H    9.059160   9.109358   3.406573   3.861914   2.156071
    43  O    9.578714   9.404314   4.158996   3.674618   3.630539
    44  H    9.714682   9.473810   4.593816   3.827868   4.316057
    45  O    4.553078   2.685707   5.056050   5.045352   5.862101
    46  H    4.537092   2.290462   5.946451   5.897189   6.801854
                   36         37         38         39         40
    36  C    0.000000
    37  C    2.405842   0.000000
    38  C    1.390951   1.391189   0.000000
    39  H    2.148032   3.862590   3.392125   0.000000
    40  H    3.858527   2.144509   3.388398   4.280423   0.000000
    41  H    1.089873   3.395973   2.155687   2.471366   4.948382
    42  H    3.385267   1.086930   2.141001   4.949432   2.486788
    43  O    2.420226   2.358967   1.366822   4.562846   4.501772
    44  H    2.450810   3.166715   1.916353   4.546703   5.271849
    45  O    5.823986   6.562547   6.543914   4.773683   6.217754
    46  H    6.694316   7.521588   7.471605   5.520247   7.137573
                   41         42         43         44         45
    41  H    0.000000
    42  H    4.286160   0.000000
    43  O    2.685542   2.564730   0.000000
    44  H    2.296841   3.509220   0.965891   0.000000
    45  O    6.156241   7.362977   7.560718   7.663707   0.000000
    46  H    6.956193   8.328675   8.473363   8.532172   0.965905
                   46
    46  H    0.000000
 Stoichiometry    C24H19NO2(1+,2)
 Framework group  C1[X(C24H19NO2)]
 Deg. of freedom   132
 Full point group                 C1      NOp   1
 Largest Abelian subgroup         C1      NOp   1
 Largest concise Abelian subgroup C1      NOp   1
                         Standard orientation:                         
 ---------------------------------------------------------------------
 Center     Atomic      Atomic             Coordinates (Angstroms)
 Number     Number       Type             X           Y           Z
 ---------------------------------------------------------------------
      1          6           0       -6.538108   -0.217341    1.255514
      2          6           0       -7.258661    0.087287    0.107878
      3          6           0       -5.151390   -0.259049    1.219222
      4          6           0       -6.580697    0.348691   -1.075777
      5          6           0       -4.458004    0.000662    0.035726
      6          6           0       -5.193998    0.304569   -1.110911
      7          1           0       -8.345644    0.121015    0.135956
      8          1           0       -4.593910   -0.476283    2.128350
      9          1           0       -7.136138    0.581164   -1.982188
     10          1           0       -4.671509    0.488761   -2.047704
     11          6           0       -2.974479   -0.044963   -0.002770
     12          6           0       -2.240322    0.918366   -0.694597
     13          6           0       -2.265576   -1.051297    0.654611
     14          6           0       -0.856277    0.875925   -0.739808
     15          6           0       -0.881570   -1.094369    0.628888
     16          6           0       -0.155643   -0.133238   -0.077397
     17          1           0       -2.762026    1.727417   -1.202285
     18          1           0       -2.809037   -1.823891    1.195264
     19          1           0       -0.306381    1.639189   -1.284917
     20          1           0       -0.352632   -1.885069    1.155020
     21          1           0       -7.059465   -0.416189    2.189743
     22          7           0        1.257026   -0.160831   -0.103806
     23          6           0        1.965402   -1.377887   -0.174570
     24          6           0        3.190004   -1.508547    0.478017
     25          6           0        1.461496   -2.456008   -0.912094
     26          6           0        3.903051   -2.696891    0.390217
     27          6           0        2.178621   -3.638306   -0.974610
     28          6           0        3.402953   -3.775056   -0.332839
     29          1           0        3.600761   -0.690157    1.062074
     30          1           0        0.514840   -2.358097   -1.435231
     31          1           0        1.782807   -4.471654   -1.551437
     32          1           0        3.963923   -4.706428   -0.398055
     33          6           0        1.972861    1.068372   -0.045814
     34          6           0        2.971482    1.350948   -0.972341
     35          6           0        1.683086    2.012203    0.939258
     36          6           0        3.676780    2.543988   -0.910119
     37          6           0        2.365608    3.214996    0.992156
     38          6           0        3.371443    3.483300    0.069272
     39          1           0        3.205268    0.621566   -1.744392
     40          1           0        0.904271    1.798314    1.667748
     41          1           0        4.460878    2.747602   -1.639197
     42          1           0        2.139895    3.954598    1.756001
     43          8           0        4.022986    4.680331    0.173244
     44          1           0        4.695287    4.738350   -0.517835
     45          8           0        5.097214   -2.751708    1.053752
     46          1           0        5.479651   -3.631493    0.941087
 ---------------------------------------------------------------------
 Rotational constants (GHZ):           0.2747871           0.0974680           0.0767524
 Leave Link  202 at Sun Jan 17 21:51:23 2021, MaxMem=  4026531840 cpu:               0.2 elap:               0.1
 (Enter /opt/ohpc/pub/libs/gaussian/g16-A.03/sandybridge/g16/l301.exe)
 Standard basis: TZVP (5D, 7F)
 Ernie: Thresh=  0.10000D-02 Tol=  0.10000D-05 Strict=F.
 There are   654 symmetry adapted cartesian basis functions of A   symmetry.
 There are   627 symmetry adapted basis functions of A   symmetry.
   627 basis functions,  1097 primitive gaussians,   654 cartesian basis functions
    93 alpha electrons       92 beta electrons
       nuclear repulsion energy      2186.7759231597 Hartrees.
 IExCor=33909 DFT=T Ex+Corr=LC-wHPBE ExCW=0 ScaHFX=  1.000000
 ScaDFX=  1.000000  1.000000  1.000000  1.000000 ScalE2=  1.000000  1.000000
 IRadAn=      5 IRanWt=     -1 IRanGd=            0 ICorTp=0 IEmpDi=  4
 HFx  wShort=  0.000000 wLong=  0.176600 cFull=  0.000000 cShort=  0.000000 cLong=  1.000000
 DFx  wShort=  0.000000 wLong=  0.176600 cFull=  0.000000 cShort=  1.000000 cLong=  0.000000
 NAtoms=   46 NActive=   46 NUniq=   46 SFac= 1.00D+00 NAtFMM=   60 NAOKFM=F Big=F
 Integral buffers will be    131072 words long.
 Raffenetti 2 integral format.
 Two-electron integral symmetry is turned on.
 Leave Link  301 at Sun Jan 17 21:51:23 2021, MaxMem=  4026531840 cpu:               0.4 elap:               0.1
 (Enter /opt/ohpc/pub/libs/gaussian/g16-A.03/sandybridge/g16/l302.exe)
 NPDir=0 NMtPBC=     1 NCelOv=     1 NCel=       1 NClECP=     1 NCelD=      1
         NCelK=      1 NCelE2=     1 NClLst=     1 CellRange=     0.0.
 One-electron integrals computed using PRISM.
 One-electron integral symmetry used in STVInt
 NBasis=   627 RedAO= T EigKep=  6.83D-06  NBF=   627
 NBsUse=   627 1.00D-06 EigRej= -1.00D+00 NBFU=   627
 Precomputing XC quadrature grid using
 IXCGrd= 4 IRadAn=           5 IRanWt=          -1 IRanGd=           0 AccXCQ= 0.00D+00.
 Generated NRdTot=       0 NPtTot=           0 NUsed=           0 NTot=          32
 NSgBfM=   623   621   621   623   623 MxSgAt=    46 MxSgA2=    46.
 Leave Link  302 at Sun Jan 17 21:51:25 2021, MaxMem=  4026531840 cpu:              13.2 elap:               1.8
 (Enter /opt/ohpc/pub/libs/gaussian/g16-A.03/sandybridge/g16/l303.exe)
 DipDrv:  MaxL=1.
 Leave Link  303 at Sun Jan 17 21:51:25 2021, MaxMem=  4026531840 cpu:               1.0 elap:               0.2
 (Enter /opt/ohpc/pub/libs/gaussian/g16-A.03/sandybridge/g16/l401.exe)
 ExpMin= 9.52D-02 ExpMax= 2.70D+04 ExpMxC= 9.22D+02 IAcc=3 IRadAn=         5 AccDes= 0.00D+00
 Harris functional with IExCor=33909 and IRadAn=       5 diagonalized for initial guess.
 HarFok:  IExCor=33909 AccDes= 0.00D+00 IRadAn=         5 IDoV= 1 UseB2=F ITyADJ=14
 ICtDFT=  3500011 ScaDFX=  1.000000  1.000000  1.000000  1.000000
 FoFCou: FMM=F IPFlag=           0 FMFlag=      100000 FMFlg1=           0
         NFxFlg=           0 DoJE=T BraDBF=F KetDBF=T FulRan=T
         wScrn=  0.000000 ICntrl=       500 IOpCl=  0 I1Cent=   200000004 NGrid=           0
         NMat0=    1 NMatS0=      1 NMatT0=    0 NMatD0=    1 NMtDS0=    0 NMtDT0=    0
 Petite list used in FoFCou.
 Harris En= -1112.76263721431    
 JPrj=0 DoOrth=F DoCkMO=F.
 Initial guess <Sx>= 0.0000 <Sy>= 0.0000 <Sz>= 0.5000 <S**2>= 0.7500 S= 0.5000
 Leave Link  401 at Sun Jan 17 21:51:31 2021, MaxMem=  4026531840 cpu:              53.4 elap:               6.7
 (Enter /opt/ohpc/pub/libs/gaussian/g16-A.03/sandybridge/g16/l502.exe)
 Integral symmetry usage will be decided dynamically.
 UHF open shell SCF:
 Using DIIS extrapolation, IDIIS=    10.
 NGot=  4026531840 LenX=  4025664800 LenY=  4025236430
 Requested convergence on RMS density matrix=1.00D-06 within  32 cycles.
 Requested convergence on MAX density matrix=1.00D-04.
 Requested convergence on             energy=1.00D-04.
 Virtual orbitals will be shifted by   0.500 hartree.
 No special actions if energy rises.
 Dynamic level shift is on during FON iterations.

 Cycle   1  Pass 1  IDiag  1:
 FoFJK:  IHMeth= 1 ICntrl=       0 DoSepK=T KAlg= 0 I1Cent=           0 FoldK=F
 IRaf=         1 NMat=       1 IRICut=       1 DoRegI=T DoRafI=F ISym2E= 0 IDoP0=0 IntGTp=1.
 FoFCou: FMM=F IPFlag=           0 FMFlag=      100000 FMFlg1=           0
         NFxFlg=           0 DoJE=T BraDBF=F KetDBF=F FulRan=T
         wScrn=  0.000000 ICntrl=       500 IOpCl=  0 I1Cent=           0 NGrid=           0
         NMat0=    1 NMatS0=      1 NMatT0=    0 NMatD0=    1 NMtDS0=    0 NMtDT0=    0
 Symmetry not used in FoFCou.
 E= -1129.80691233760    
 DIIS: error= 2.18D-02 at cycle   1 NSaved=   1.
 NSaved= 1 IEnMin= 1 EnMin= -1129.80691233760     IErMin= 1 ErrMin= 2.18D-02
 ErrMax= 2.18D-02  0.00D+00 EMaxC= 1.00D+00 BMatC= 1.84D+00 BMatP= 1.84D+00
 IDIUse=1 WtCom= 1.00D+00 WtEn= 0.00D+00
 Coeff-Com:  0.100D+01
 Coeff:      0.100D+01
 Gap=     0.379 Goal=   None    Shift=    0.500
 T= 1305. Gap= 0.688 NK=0 IS=   94 IE=  627 IFin=   93
          NO(<0.9)=   0  NV(>0.1)=   0     93.00e < EF      0.00e >EF  Err=0.0D+00
 Gap=     0.093 Goal=   None    Shift=    0.500
 T= 1305. Gap= 0.512 NK=0 IS=   93 IE=  627 IFin=   92
          NO(<0.9)=   0  NV(>0.1)=   0     92.00e < EF      0.00e >EF  Err=0.0D+00
 GapD=    0.093 DampG=0.500 DampE=0.500 DampFc=0.2500 IDamp=-1.
 Damping current iteration by 2.50D-01
 RMSDP=2.57D-03 MaxDP=1.29D-01              OVMax= 7.86D-02

 Cycle   2  Pass 1  IDiag  1:
 E= -1129.96639287496     Delta-E=       -0.159480537359 Rises=F Damp=T
 DIIS: error= 1.44D-02 at cycle   2 NSaved=   2.
 NSaved= 2 IEnMin= 2 EnMin= -1129.96639287496     IErMin= 2 ErrMin= 1.44D-02
 ErrMax= 1.44D-02  0.00D+00 EMaxC= 1.00D+00 BMatC= 8.39D-01 BMatP= 1.84D+00
 IDIUse=1 WtCom= 1.00D+00 WtEn= 0.00D+00
 Coeff-Com: -0.185D+01 0.285D+01
 Coeff:     -0.185D+01 0.285D+01
 Gap=     0.283 Goal=   None    Shift=    0.500
 T= 1233. Gap= 0.756 NK=0 IS=   94 IE=  627 IFin=   93
          NO(<0.9)=   0  NV(>0.1)=   0     93.00e < EF      0.00e >EF  Err=0.0D+00
 Gap=     0.173 Goal=   None    Shift=    0.500
 T= 1233. Gap= 0.644 NK=0 IS=   93 IE=  627 IFin=   92
          NO(<0.9)=   0  NV(>0.1)=   0     92.00e < EF      0.00e >EF  Err=0.0D+00
 GapD=    0.173 DampG=1.000 DampE=0.500 DampFc=0.5000 IDamp=-1.
 Damping current iteration by 5.00D-01
 RMSDP=1.88D-03 MaxDP=1.17D-01 DE=-1.59D-01 OVMax= 2.77D-02

 Cycle   3  Pass 1  IDiag  1:
 E= -1130.13113511085     Delta-E=       -0.164742235897 Rises=F Damp=T
 DIIS: error= 6.52D-03 at cycle   3 NSaved=   3.
 NSaved= 3 IEnMin= 3 EnMin= -1130.13113511085     IErMin= 3 ErrMin= 6.52D-03
 ErrMax= 6.52D-03  0.00D+00 EMaxC= 1.00D+00 BMatC= 1.59D-01 BMatP= 8.39D-01
 IDIUse=1 WtCom= 1.00D+00 WtEn= 0.00D+00
 Coeff-Com:  0.923D-02-0.758D+00 0.175D+01
 Coeff:      0.923D-02-0.758D+00 0.175D+01
 Gap=     0.271 Goal=   None    Shift=    0.500
 T= 1049. Gap= 0.769 NK=4 IS=   94 IE=  106 IFin=   93
          NO(<0.9)=   0  NV(>0.1)=   0     93.00e < EF      0.00e >EF  Err=0.0D+00
 Gap=     0.146 Goal=   None    Shift=    0.500
 T= 1049. Gap= 0.645 NK=4 IS=   93 IE=  105 IFin=   92
          NO(<0.9)=   0  NV(>0.1)=   0     92.00e < EF      0.00e >EF  Err=0.0D+00
 GapD=    0.146 DampG=1.000 DampE=1.000 DampFc=1.0000 IDamp=-1.
 RMSDP=9.61D-04 MaxDP=7.32D-02 DE=-1.65D-01 OVMax= 1.06D-02

 Cycle   4  Pass 1  IDiag  1:
 E= -1130.24470218047     Delta-E=       -0.113567069617 Rises=F Damp=F
 DIIS: error= 1.90D-03 at cycle   4 NSaved=   4.
 NSaved= 4 IEnMin= 4 EnMin= -1130.24470218047     IErMin= 4 ErrMin= 1.90D-03
 ErrMax= 1.90D-03  0.00D+00 EMaxC= 1.00D+00 BMatC= 3.83D-03 BMatP= 1.59D-01
 IDIUse=1 WtCom= 1.00D+00 WtEn= 0.00D+00
 Coeff-Com:  0.163D+00-0.262D+00 0.155D+00 0.943D+00
 Coeff:      0.163D+00-0.262D+00 0.155D+00 0.943D+00
 Gap=     0.270 Goal=   None    Shift=    0.500
 T=  672. Gap= 0.770 NK=4 IS=   94 IE=  106 IFin=   93
          NO(<0.9)=   0  NV(>0.1)=   0     93.00e < EF      0.00e >EF  Err=0.0D+00
 Gap=     0.148 Goal=   None    Shift=    0.500
 T=  672. Gap= 0.648 NK=4 IS=   93 IE=  105 IFin=   92
          NO(<0.9)=   0  NV(>0.1)=   0     92.00e < EF      0.00e >EF  Err=0.0D+00
 GapD=    0.148 DampG=1.000 DampE=1.000 DampFc=1.0000 IDamp=-1.
 RMSDP=1.41D-04 MaxDP=6.07D-03 DE=-1.14D-01 OVMax= 8.49D-03

 Cycle   5  Pass 1  IDiag  1:
 E= -1130.24582308500     Delta-E=       -0.001120904527 Rises=F Damp=F
 DIIS: error= 1.47D-03 at cycle   5 NSaved=   5.
 NSaved= 5 IEnMin= 5 EnMin= -1130.24582308500     IErMin= 5 ErrMin= 1.47D-03
 ErrMax= 1.47D-03  0.00D+00 EMaxC= 1.00D+00 BMatC= 6.85D-04 BMatP= 3.83D-03
 IDIUse=1 WtCom= 1.00D+00 WtEn= 0.00D+00
 Coeff-Com:  0.464D-01-0.570D-02-0.114D+00-0.399D-01 0.111D+01
 Coeff:      0.464D-01-0.570D-02-0.114D+00-0.399D-01 0.111D+01
 Gap=     0.271 Goal=   None    Shift=    0.500
 T=  171. Gap= 0.771 NK=4 IS=   94 IE=  106 IFin=   93
          NO(<0.9)=   0  NV(>0.1)=   0     93.00e < EF      0.00e >EF  Err=0.0D+00
 Gap=     0.151 Goal=   None    Shift=    0.500
 T=  171. Gap= 0.651 NK=4 IS=   93 IE=  105 IFin=   92
          NO(<0.9)=   0  NV(>0.1)=   0     92.00e < EF      0.00e >EF  Err=0.0D+00
 GapD=    0.151 DampG=1.000 DampE=1.000 DampFc=1.0000 IDamp=-1.
 RMSDP=9.60D-05 MaxDP=3.76D-03 DE=-1.12D-03 OVMax= 6.15D-03

 Cycle   6  Pass 1  IDiag  1:
 E= -1130.24623242983     Delta-E=       -0.000409344833 Rises=F Damp=F
 DIIS: error= 1.17D-03 at cycle   6 NSaved=   6.
 NSaved= 6 IEnMin= 6 EnMin= -1130.24623242983     IErMin= 6 ErrMin= 1.17D-03
 ErrMax= 1.17D-03  0.00D+00 EMaxC= 1.00D+00 BMatC= 2.09D-04 BMatP= 6.85D-04
 IDIUse=1 WtCom= 1.00D+00 WtEn= 0.00D+00
 Coeff-Com: -0.419D-01 0.913D-01-0.911D-01-0.295D+00 0.511D-01 0.129D+01
 Coeff:     -0.419D-01 0.913D-01-0.911D-01-0.295D+00 0.511D-01 0.129D+01
 Gap=     0.272 Goal=   None    Shift=    0.500
 Gap=     0.152 Goal=   None    Shift=    0.500
 GapD=    0.152 DampG=1.000 DampE=1.000 DampFc=1.0000 IDamp=-1.
 RMSDP=5.95D-05 MaxDP=2.86D-03 DE=-4.09D-04 OVMax= 5.62D-03

 Cycle   7  Pass 1  IDiag  1:
 E= -1130.24645528166     Delta-E=       -0.000222851826 Rises=F Damp=F
 DIIS: error= 1.04D-03 at cycle   7 NSaved=   7.
 NSaved= 7 IEnMin= 7 EnMin= -1130.24645528166     IErMin= 7 ErrMin= 1.04D-03
 ErrMax= 1.04D-03  0.00D+00 EMaxC= 1.00D+00 BMatC= 1.03D-04 BMatP= 2.09D-04
 IDIUse=1 WtCom= 1.00D+00 WtEn= 0.00D+00
 Coeff-Com: -0.287D-01 0.331D-01 0.435D-03-0.867D-01-0.305D+00-0.160D+00
 Coeff-Com:  0.155D+01
 Coeff:     -0.287D-01 0.331D-01 0.435D-03-0.867D-01-0.305D+00-0.160D+00
 Coeff:      0.155D+01
 Gap=     0.272 Goal=   None    Shift=    0.500
 Gap=     0.153 Goal=   None    Shift=    0.500
 GapD=    0.153 DampG=1.000 DampE=1.000 DampFc=1.0000 IDamp=-1.
 RMSDP=3.60D-05 MaxDP=1.68D-03 DE=-2.23D-04 OVMax= 5.02D-03

 Cycle   8  Pass 1  IDiag  1:
 E= -1130.24659583855     Delta-E=       -0.000140556894 Rises=F Damp=F
 DIIS: error= 9.26D-04 at cycle   8 NSaved=   8.
 NSaved= 8 IEnMin= 8 EnMin= -1130.24659583855     IErMin= 8 ErrMin= 9.26D-04
 ErrMax= 9.26D-04  0.00D+00 EMaxC= 1.00D+00 BMatC= 5.96D-05 BMatP= 1.03D-04
 IDIUse=1 WtCom= 1.00D+00 WtEn= 0.00D+00
 Coeff-Com:  0.945D-02-0.325D-01 0.425D-01 0.101D+00-0.156D+00-0.876D+00
 Coeff-Com:  0.173D+00 0.174D+01
 Coeff:      0.945D-02-0.325D-01 0.425D-01 0.101D+00-0.156D+00-0.876D+00
 Coeff:      0.173D+00 0.174D+01
 Gap=     0.272 Goal=   None    Shift=    0.500
 Gap=     0.154 Goal=   None    Shift=    0.500
 RMSDP=2.54D-05 MaxDP=8.68D-04 DE=-1.41D-04 OVMax= 4.80D-03

 Cycle   9  Pass 1  IDiag  1:
 E= -1130.24669249808     Delta-E=       -0.000096659528 Rises=F Damp=F
 DIIS: error= 7.95D-04 at cycle   9 NSaved=   9.
 NSaved= 9 IEnMin= 9 EnMin= -1130.24669249808     IErMin= 9 ErrMin= 7.95D-04
 ErrMax= 7.95D-04  0.00D+00 EMaxC= 1.00D+00 BMatC= 3.38D-05 BMatP= 5.96D-05
 IDIUse=1 WtCom= 1.00D+00 WtEn= 0.00D+00
 Coeff-Com:  0.123D-01-0.188D-01 0.804D-02 0.396D-01 0.158D+00-0.222D+00
 Coeff-Com: -0.838D+00-0.218D+00 0.208D+01
 Coeff:      0.123D-01-0.188D-01 0.804D-02 0.396D-01 0.158D+00-0.222D+00
 Coeff:     -0.838D+00-0.218D+00 0.208D+01
 Gap=     0.272 Goal=   None    Shift=    0.500
 Gap=     0.155 Goal=   None    Shift=    0.500
 RMSDP=1.77D-05 MaxDP=7.23D-04 DE=-9.67D-05 OVMax= 4.39D-03

 Cycle  10  Pass 1  IDiag  1:
 E= -1130.24675509357     Delta-E=       -0.000062595493 Rises=F Damp=F
 DIIS: error= 6.80D-04 at cycle  10 NSaved=  10.
 NSaved=10 IEnMin=10 EnMin= -1130.24675509357     IErMin=10 ErrMin= 6.80D-04
 ErrMax= 6.80D-04  0.00D+00 EMaxC= 1.00D+00 BMatC= 2.07D-05 BMatP= 3.38D-05
 IDIUse=1 WtCom= 1.00D+00 WtEn= 0.00D+00
 Coeff-Com: -0.172D-03 0.517D-02-0.994D-02-0.350D-01 0.146D+00 0.251D+00
 Coeff-Com: -0.581D+00-0.586D+00-0.220D+00 0.203D+01
 Coeff:     -0.172D-03 0.517D-02-0.994D-02-0.350D-01 0.146D+00 0.251D+00
 Coeff:     -0.581D+00-0.586D+00-0.220D+00 0.203D+01
 Gap=     0.272 Goal=   None    Shift=    0.500
 Gap=     0.155 Goal=   None    Shift=    0.500
 RMSDP=1.39D-05 MaxDP=6.44D-04 DE=-6.26D-05 OVMax= 3.74D-03

 Cycle  11  Pass 1  IDiag  1:
 E= -1130.24679418147     Delta-E=       -0.000039087894 Rises=F Damp=F
 DIIS: error= 5.74D-04 at cycle  11 NSaved=  11.
 NSaved=11 IEnMin=11 EnMin= -1130.24679418147     IErMin=11 ErrMin= 5.74D-04
 ErrMax= 5.74D-04  0.00D+00 EMaxC= 1.00D+00 BMatC= 1.34D-05 BMatP= 2.07D-05
 IDIUse=1 WtCom= 1.00D+00 WtEn= 0.00D+00
 Coeff-Com: -0.830D-02 0.115D-01-0.293D-02-0.514D-01-0.529D-01 0.304D+00
 Coeff-Com:  0.258D+00-0.126D-02-0.208D+01 0.235D+00 0.239D+01
 Coeff:     -0.830D-02 0.115D-01-0.293D-02-0.514D-01-0.529D-01 0.304D+00
 Coeff:      0.258D+00-0.126D-02-0.208D+01 0.235D+00 0.239D+01
 Gap=     0.272 Goal=   None    Shift=    0.500
 Gap=     0.156 Goal=   None    Shift=    0.500
 RMSDP=1.22D-05 MaxDP=8.38D-04 DE=-3.91D-05 OVMax= 3.32D-03

 Cycle  12  Pass 1  IDiag  1:
 E= -1130.24682041837     Delta-E=       -0.000026236903 Rises=F Damp=F
 DIIS: error= 4.91D-04 at cycle  12 NSaved=  12.
 NSaved=12 IEnMin=12 EnMin= -1130.24682041837     IErMin=12 ErrMin= 4.91D-04
 ErrMax= 4.91D-04  0.00D+00 EMaxC= 1.00D+00 BMatC= 9.46D-06 BMatP= 1.34D-05
 IDIUse=1 WtCom= 1.00D+00 WtEn= 0.00D+00
 Coeff-Com: -0.238D-02-0.252D-02 0.101D-01-0.228D-01-0.112D+00 0.969D-01
 Coeff-Com:  0.417D+00 0.293D+00-0.130D+01-0.879D+00 0.100D+01 0.150D+01
 Coeff:     -0.238D-02-0.252D-02 0.101D-01-0.228D-01-0.112D+00 0.969D-01
 Coeff:      0.417D+00 0.293D+00-0.130D+01-0.879D+00 0.100D+01 0.150D+01
 Gap=     0.272 Goal=   None    Shift=    0.500
 Gap=     0.156 Goal=   None    Shift=    0.500
 RMSDP=8.39D-06 MaxDP=5.19D-04 DE=-2.62D-05 OVMax= 2.66D-03

 Cycle  13  Pass 1  IDiag  1:
 E= -1130.24683652642     Delta-E=       -0.000016108054 Rises=F Damp=F
 DIIS: error= 4.01D-04 at cycle  13 NSaved=  13.
 NSaved=13 IEnMin=13 EnMin= -1130.24683652642     IErMin=13 ErrMin= 4.01D-04
 ErrMax= 4.01D-04  0.00D+00 EMaxC= 1.00D+00 BMatC= 6.16D-06 BMatP= 9.46D-06
 IDIUse=1 WtCom= 1.00D+00 WtEn= 0.00D+00
 Coeff-Com:  0.572D-02-0.147D-01 0.147D-01 0.192D-01-0.690D-01-0.136D+00
 Coeff-Com:  0.156D+00 0.255D+00 0.519D+00-0.110D+01-0.737D+00-0.437D+00
 Coeff-Com:  0.252D+01
 Coeff:      0.572D-02-0.147D-01 0.147D-01 0.192D-01-0.690D-01-0.136D+00
 Coeff:      0.156D+00 0.255D+00 0.519D+00-0.110D+01-0.737D+00-0.437D+00
 Coeff:      0.252D+01
 Gap=     0.272 Goal=   None    Shift=    0.500
 Gap=     0.156 Goal=   None    Shift=    0.500
 RMSDP=8.16D-06 MaxDP=5.22D-04 DE=-1.61D-05 OVMax= 2.26D-03

 Cycle  14  Pass 1  IDiag  1:
 E= -1130.24684737017     Delta-E=       -0.000010843746 Rises=F Damp=F
 DIIS: error= 3.35D-04 at cycle  14 NSaved=  14.
 NSaved=14 IEnMin=14 EnMin= -1130.24684737017     IErMin=14 ErrMin= 3.35D-04
 ErrMax= 3.35D-04  0.00D+00 EMaxC= 1.00D+00 BMatC= 4.93D-06 BMatP= 6.16D-06
 IDIUse=1 WtCom= 1.00D+00 WtEn= 0.00D+00
 Coeff-Com:  0.388D-02-0.551D-02 0.130D-02 0.149D-01 0.344D-01-0.677D-01
 Coeff-Com: -0.220D+00-0.868D-01 0.100D+01 0.194D+00-0.810D+00-0.271D+01
 Coeff-Com:  0.178D+01 0.187D+01
 Coeff:      0.388D-02-0.551D-02 0.130D-02 0.149D-01 0.344D-01-0.677D-01
 Coeff:     -0.220D+00-0.868D-01 0.100D+01 0.194D+00-0.810D+00-0.271D+01
 Coeff:      0.178D+01 0.187D+01
 Gap=     0.272 Goal=   None    Shift=    0.500
 Gap=     0.156 Goal=   None    Shift=    0.500
 RMSDP=6.52D-06 MaxDP=3.67D-04 DE=-1.08D-05 OVMax= 1.95D-03

 Cycle  15  Pass 1  IDiag  1:
 E= -1130.24685488261     Delta-E=       -0.000007512442 Rises=F Damp=F
 DIIS: error= 2.76D-04 at cycle  15 NSaved=  15.
 NSaved=15 IEnMin=15 EnMin= -1130.24685488261     IErMin=15 ErrMin= 2.76D-04
 ErrMax= 2.76D-04  0.00D+00 EMaxC= 1.00D+00 BMatC= 3.55D-06 BMatP= 4.93D-06
 IDIUse=1 WtCom= 1.00D+00 WtEn= 0.00D+00
 Coeff-Com:  0.932D-03 0.737D-03-0.391D-02 0.532D-03 0.505D-01 0.212D-01
 Coeff-Com: -0.241D+00-0.156D+00 0.505D+00 0.698D+00-0.278D+00-0.253D+01
 Coeff-Com:  0.100D+01 0.454D+00 0.147D+01
 Coeff:      0.932D-03 0.737D-03-0.391D-02 0.532D-03 0.505D-01 0.212D-01
 Coeff:     -0.241D+00-0.156D+00 0.505D+00 0.698D+00-0.278D+00-0.253D+01
 Coeff:      0.100D+01 0.454D+00 0.147D+01
 Gap=     0.272 Goal=   None    Shift=    0.500
 Gap=     0.156 Goal=   None    Shift=    0.500
 RMSDP=4.68D-06 MaxDP=2.65D-04 DE=-7.51D-06 OVMax= 1.61D-03

 Cycle  16  Pass 1  IDiag  1:
 E= -1130.24685994974     Delta-E=       -0.000005067131 Rises=F Damp=F
 DIIS: error= 2.23D-04 at cycle  16 NSaved=  16.
 NSaved=16 IEnMin=16 EnMin= -1130.24685994974     IErMin=16 ErrMin= 2.23D-04
 ErrMax= 2.23D-04  0.00D+00 EMaxC= 1.00D+00 BMatC= 2.36D-06 BMatP= 3.55D-06
 IDIUse=1 WtCom= 1.00D+00 WtEn= 0.00D+00
 Coeff-Com: -0.258D-02 0.406D-02-0.190D-02-0.162D-01-0.677D-02 0.871D-01
 Coeff-Com:  0.564D-01 0.324D-02-0.708D+00 0.384D+00 0.688D+00 0.264D+00
 Coeff-Com: -0.315D+00-0.202D+01-0.684D+00 0.327D+01
 Coeff:     -0.258D-02 0.406D-02-0.190D-02-0.162D-01-0.677D-02 0.871D-01
 Coeff:      0.564D-01 0.324D-02-0.708D+00 0.384D+00 0.688D+00 0.264D+00
 Coeff:     -0.315D+00-0.202D+01-0.684D+00 0.327D+01
 Gap=     0.272 Goal=   None    Shift=    0.500
 Gap=     0.156 Goal=   None    Shift=    0.500
 RMSDP=4.91D-06 MaxDP=2.63D-04 DE=-5.07D-06 OVMax= 1.50D-03

 Cycle  17  Pass 1  IDiag  1:
 E= -1130.24686376215     Delta-E=       -0.000003812413 Rises=F Damp=F
 DIIS: error= 1.81D-04 at cycle  17 NSaved=  17.
 NSaved=17 IEnMin=17 EnMin= -1130.24686376215     IErMin=17 ErrMin= 1.81D-04
 ErrMax= 1.81D-04  0.00D+00 EMaxC= 1.00D+00 BMatC= 1.91D-06 BMatP= 2.36D-06
 IDIUse=1 WtCom= 1.00D+00 WtEn= 0.00D+00
 Coeff-Com: -0.207D-02 0.198D-02 0.986D-03-0.144D-01-0.253D-01 0.585D-01
 Coeff-Com:  0.152D+00 0.515D-01-0.745D+00 0.570D-01 0.644D+00 0.934D+00
 Coeff-Com: -0.295D+00-0.206D+01-0.137D+01 0.273D+01 0.876D+00
 Coeff:     -0.207D-02 0.198D-02 0.986D-03-0.144D-01-0.253D-01 0.585D-01
 Coeff:      0.152D+00 0.515D-01-0.745D+00 0.570D-01 0.644D+00 0.934D+00
 Coeff:     -0.295D+00-0.206D+01-0.137D+01 0.273D+01 0.876D+00
 Gap=     0.272 Goal=   None    Shift=    0.500
 Gap=     0.156 Goal=   None    Shift=    0.500
 RMSDP=3.32D-06 MaxDP=1.94D-04 DE=-3.81D-06 OVMax= 1.23D-03

 Cycle  18  Pass 1  IDiag  1:
 E= -1130.24686638829     Delta-E=       -0.000002626141 Rises=F Damp=F
 DIIS: error= 1.46D-04 at cycle  18 NSaved=  18.
 NSaved=18 IEnMin=18 EnMin= -1130.24686638829     IErMin=18 ErrMin= 1.46D-04
 ErrMax= 1.46D-04  0.00D+00 EMaxC= 1.00D+00 BMatC= 1.28D-06 BMatP= 1.91D-06
 IDIUse=1 WtCom= 1.00D+00 WtEn= 0.00D+00
 Coeff-Com:  0.138D-02-0.359D-02 0.369D-02 0.718D-02-0.182D-01-0.654D-01
 Coeff-Com:  0.978D-01 0.112D-01 0.274D+00-0.482D+00-0.233D+00 0.745D-01
 Coeff-Com:  0.687D+00 0.697D+00-0.101D+01-0.629D+00-0.305D+01 0.463D+01
 Coeff:      0.138D-02-0.359D-02 0.369D-02 0.718D-02-0.182D-01-0.654D-01
 Coeff:      0.978D-01 0.112D-01 0.274D+00-0.482D+00-0.233D+00 0.745D-01
 Coeff:      0.687D+00 0.697D+00-0.101D+01-0.629D+00-0.305D+01 0.463D+01
 Gap=     0.272 Goal=   None    Shift=    0.500
 Gap=     0.156 Goal=   None    Shift=    0.500
 RMSDP=3.87D-06 MaxDP=2.40D-04 DE=-2.63D-06 OVMax= 1.21D-03

 Cycle  19  Pass 1  IDiag  1:
 E= -1130.24686842020     Delta-E=       -0.000002031905 Rises=F Damp=F
 DIIS: error= 1.18D-04 at cycle  19 NSaved=  19.
 NSaved=19 IEnMin=19 EnMin= -1130.24686842020     IErMin=19 ErrMin= 1.18D-04
 ErrMax= 1.18D-04  0.00D+00 EMaxC= 1.00D+00 BMatC= 1.23D-06 BMatP= 1.28D-06
 IDIUse=1 WtCom= 1.00D+00 WtEn= 0.00D+00
 Coeff-Com:  0.123D-02-0.272D-02 0.227D-02 0.595D-02-0.700D-02-0.411D-01
 Coeff-Com:  0.206D-01-0.207D-01 0.352D+00-0.275D+00-0.255D+00-0.583D+00
 Coeff-Com:  0.963D+00 0.820D+00-0.391D+00-0.556D+00-0.362D+01 0.337D+01
 Coeff-Com:  0.121D+01
 Coeff:      0.123D-02-0.272D-02 0.227D-02 0.595D-02-0.700D-02-0.411D-01
 Coeff:      0.206D-01-0.207D-01 0.352D+00-0.275D+00-0.255D+00-0.583D+00
 Coeff:      0.963D+00 0.820D+00-0.391D+00-0.556D+00-0.362D+01 0.337D+01
 Coeff:      0.121D+01
 Gap=     0.272 Goal=   None    Shift=    0.500
 Gap=     0.156 Goal=   None    Shift=    0.500
 RMSDP=2.55D-06 MaxDP=1.41D-04 DE=-2.03D-06 OVMax= 9.84D-04

 Cycle  20  Pass 1  IDiag  1:
 E= -1130.24686977001     Delta-E=       -0.000001349809 Rises=F Damp=F
 DIIS: error= 9.53D-05 at cycle  20 NSaved=  20.
 NSaved=20 IEnMin=20 EnMin= -1130.24686977001     IErMin=20 ErrMin= 9.53D-05
 ErrMax= 9.53D-05  0.00D+00 EMaxC= 1.00D+00 BMatC= 9.01D-07 BMatP= 1.23D-06
 IDIUse=1 WtCom= 1.00D+00 WtEn= 0.00D+00
 Coeff-Com:  0.477D-04 0.210D-04-0.268D-03-0.128D-03 0.805D-03 0.173D-01
 Coeff-Com: -0.426D-01-0.966D-02 0.577D-01 0.130D+00-0.352D-01-0.690D+00
 Coeff-Com:  0.553D+00 0.108D+00 0.162D+00 0.448D+00-0.173D+01 0.750D+00
 Coeff-Com: -0.201D+01 0.329D+01
 Coeff:      0.477D-04 0.210D-04-0.268D-03-0.128D-03 0.805D-03 0.173D-01
 Coeff:     -0.426D-01-0.966D-02 0.577D-01 0.130D+00-0.352D-01-0.690D+00
 Coeff:      0.553D+00 0.108D+00 0.162D+00 0.448D+00-0.173D+01 0.750D+00
 Coeff:     -0.201D+01 0.329D+01
 Gap=     0.272 Goal=   None    Shift=    0.500
 Gap=     0.156 Goal=   None    Shift=    0.500
 RMSDP=2.23D-06 MaxDP=9.93D-05 DE=-1.35D-06 OVMax= 8.58D-04

 Cycle  21  Pass 1  IDiag  1:
 E= -1130.24687068261     Delta-E=       -0.000000912605 Rises=F Damp=F
 DIIS: error= 7.85D-05 at cycle  21 NSaved=  20.
 NSaved=20 IEnMin=20 EnMin= -1130.24687068261     IErMin=20 ErrMin= 7.85D-05
 ErrMax= 7.85D-05  0.00D+00 EMaxC= 1.00D+00 BMatC= 6.86D-07 BMatP= 9.01D-07
 IDIUse=1 WtCom= 1.00D+00 WtEn= 0.00D+00
 Coeff-Com: -0.126D-03 0.177D-03-0.163D-02-0.300D-02 0.118D-01 0.502D-02
 Coeff-Com:  0.236D-01-0.140D+00 0.104D+00 0.792D-01-0.211D-01 0.229D-01
 Coeff-Com: -0.357D+00-0.161D+00 0.873D+00-0.120D+00 0.454D+00-0.348D+01
 Coeff-Com:  0.164D+01 0.207D+01
 Coeff:     -0.126D-03 0.177D-03-0.163D-02-0.300D-02 0.118D-01 0.502D-02
 Coeff:      0.236D-01-0.140D+00 0.104D+00 0.792D-01-0.211D-01 0.229D-01
 Coeff:     -0.357D+00-0.161D+00 0.873D+00-0.120D+00 0.454D+00-0.348D+01
 Coeff:      0.164D+01 0.207D+01
 Gap=     0.272 Goal=   None    Shift=    0.500
 Gap=     0.156 Goal=   None    Shift=    0.500
 RMSDP=1.71D-06 MaxDP=8.13D-05 DE=-9.13D-07 OVMax= 7.18D-04

 Cycle  22  Pass 1  IDiag  1:
 E= -1130.24687127609     Delta-E=       -0.000000593475 Rises=F Damp=F
 DIIS: error= 6.37D-05 at cycle  22 NSaved=  20.
 NSaved=20 IEnMin=20 EnMin= -1130.24687127609     IErMin=20 ErrMin= 6.37D-05
 ErrMax= 6.37D-05  0.00D+00 EMaxC= 1.00D+00 BMatC= 4.92D-07 BMatP= 6.86D-07
 IDIUse=1 WtCom= 1.00D+00 WtEn= 0.00D+00
 Coeff-Com: -0.109D-03-0.236D-02-0.684D-03-0.305D-02 0.386D-01-0.756D-02
 Coeff-Com: -0.823D-01-0.325D-01 0.858D-01 0.177D+00-0.298D-01-0.172D+00
 Coeff-Com: -0.417D+00 0.479D+00-0.264D+00 0.121D+01-0.147D+01-0.682D+00
 Coeff-Com: -0.351D+00 0.253D+01
 Coeff:     -0.109D-03-0.236D-02-0.684D-03-0.305D-02 0.386D-01-0.756D-02
 Coeff:     -0.823D-01-0.325D-01 0.858D-01 0.177D+00-0.298D-01-0.172D+00
 Coeff:     -0.417D+00 0.479D+00-0.264D+00 0.121D+01-0.147D+01-0.682D+00
 Coeff:     -0.351D+00 0.253D+01
 Gap=     0.272 Goal=   None    Shift=    0.500
 Gap=     0.156 Goal=   None    Shift=    0.500
 RMSDP=1.27D-06 MaxDP=5.49D-05 DE=-5.93D-07 OVMax= 5.76D-04

 Cycle  23  Pass 1  IDiag  1:
 E= -1130.24687164764     Delta-E=       -0.000000371550 Rises=F Damp=F
 DIIS: error= 5.10D-05 at cycle  23 NSaved=  20.
 NSaved=20 IEnMin=20 EnMin= -1130.24687164764     IErMin=20 ErrMin= 5.10D-05
 ErrMax= 5.10D-05  0.00D+00 EMaxC= 1.00D+00 BMatC= 3.29D-07 BMatP= 4.92D-07
 IDIUse=1 WtCom= 1.00D+00 WtEn= 0.00D+00
 Coeff-Com:  0.288D-03-0.112D-02-0.114D-01 0.291D-01-0.234D-01 0.510D-01
 Coeff-Com: -0.107D+00 0.947D-02-0.310D-01 0.212D+00 0.110D+00-0.269D+00
 Coeff-Com: -0.347D-01-0.864D+00 0.126D+01 0.743D+00-0.120D+01-0.177D+01
 Coeff-Com:  0.780D+00 0.212D+01
 Coeff:      0.288D-03-0.112D-02-0.114D-01 0.291D-01-0.234D-01 0.510D-01
 Coeff:     -0.107D+00 0.947D-02-0.310D-01 0.212D+00 0.110D+00-0.269D+00
 Coeff:     -0.347D-01-0.864D+00 0.126D+01 0.743D+00-0.120D+01-0.177D+01
 Coeff:      0.780D+00 0.212D+01
 Gap=     0.272 Goal=   None    Shift=    0.500
 Gap=     0.156 Goal=   None    Shift=    0.500
 RMSDP=9.57D-07 MaxDP=3.27D-05 DE=-3.72D-07 OVMax= 4.62D-04

 SCF Done:  E(ULC-wHPBE) =  -1130.24687165     A.U. after   23 cycles
            NFock= 23  Conv=0.96D-06     -V/T= 2.0044
 <Sx>= 0.0000 <Sy>= 0.0000 <Sz>= 0.5000 <S**2>= 0.7663 S= 0.5081
 <L.S>= 0.000000000000E+00
 KE= 1.125265521536D+03 PE=-6.981817364035D+03 EE= 2.539529047691D+03
 Annihilation of the first spin contaminant:
 S**2 before annihilation     0.7663,   after     0.7502
 Leave Link  502 at Sun Jan 17 22:13:53 2021, MaxMem=  4026531840 cpu:           10705.0 elap:            1341.6
 (Enter /opt/ohpc/pub/libs/gaussian/g16-A.03/sandybridge/g16/l508.exe)
 QCSCF skips out because SCF is already converged.
 Leave Link  508 at Sun Jan 17 22:13:53 2021, MaxMem=  4026531840 cpu:               0.0 elap:               0.0
 (Enter /opt/ohpc/pub/libs/gaussian/g16-A.03/sandybridge/g16/l601.exe)
 Copying SCF densities to generalized density rwf, IOpCl= 1 IROHF=0.

 **********************************************************************

            Population analysis using the SCF density.

 **********************************************************************

 Orbital symmetries:
 Alpha Orbitals:
       Occupied  (A) (A) (A) (A) (A) (A) (A) (A) (A) (A) (A) (A)
                 (A) (A) (A) (A) (A) (A) (A) (A) (A) (A) (A) (A)
                 (A) (A) (A) (A) (A) (A) (A) (A) (A) (A) (A) (A)
                 (A) (A) (A) (A) (A) (A) (A) (A) (A) (A) (A) (A)
                 (A) (A) (A) (A) (A) (A) (A) (A) (A) (A) (A) (A)
                 (A) (A) (A) (A) (A) (A) (A) (A) (A) (A) (A) (A)
                 (A) (A) (A) (A) (A) (A) (A) (A) (A) (A) (A) (A)
                 (A) (A) (A) (A) (A) (A) (A) (A) (A)
       Virtual   (A) (A) (A) (A) (A) (A) (A) (A) (A) (A) (A) (A)
                 (A) (A) (A) (A) (A) (A) (A) (A) (A) (A) (A) (A)
                 (A) (A) (A) (A) (A) (A) (A) (A) (A) (A) (A) (A)
                 (A) (A) (A) (A) (A) (A) (A) (A) (A) (A) (A) (A)
                 (A) (A) (A) (A) (A) (A) (A) (A) (A) (A) (A) (A)
                 (A) (A) (A) (A) (A) (A) (A) (A) (A) (A) (A) (A)
                 (A) (A) (A) (A) (A) (A) (A) (A) (A) (A) (A) (A)
                 (A) (A) (A) (A) (A) (A) (A) (A) (A) (A) (A) (A)
                 (A) (A) (A) (A) (A) (A) (A) (A) (A) (A) (A) (A)
                 (A) (A) (A) (A) (A) (A) (A) (A) (A) (A) (A) (A)
                 (A) (A) (A) (A) (A) (A) (A) (A) (A) (A) (A) (A)
                 (A) (A) (A) (A) (A) (A) (A) (A) (A) (A) (A) (A)
                 (A) (A) (A) (A) (A) (A) (A) (A) (A) (A) (A) (A)
                 (A) (A) (A) (A) (A) (A) (A) (A) (A) (A) (A) (A)
                 (A) (A) (A) (A) (A) (A) (A) (A) (A) (A) (A) (A)
                 (A) (A) (A) (A) (A) (A) (A) (A) (A) (A) (A) (A)
                 (A) (A) (A) (A) (A) (A) (A) (A) (A) (A) (A) (A)
                 (A) (A) (A) (A) (A) (A) (A) (A) (A) (A) (A) (A)
                 (A) (A) (A) (A) (A) (A) (A) (A) (A) (A) (A) (A)
                 (A) (A) (A) (A) (A) (A) (A) (A) (A) (A) (A) (A)
                 (A) (A) (A) (A) (A) (A) (A) (A) (A) (A) (A) (A)
                 (A) (A) (A) (A) (A) (A) (A) (A) (A) (A) (A) (A)
                 (A) (A) (A) (A) (A) (A) (A) (A) (A) (A) (A) (A)
                 (A) (A) (A) (A) (A) (A) (A) (A) (A) (A) (A) (A)
                 (A) (A) (A) (A) (A) (A) (A) (A) (A) (A) (A) (A)
                 (A) (A) (A) (A) (A) (A) (A) (A) (A) (A) (A) (A)
                 (A) (A) (A) (A) (A) (A) (A) (A) (A) (A) (A) (A)
                 (A) (A) (A) (A) (A) (A) (A) (A) (A) (A) (A) (A)
                 (A) (A) (A) (A) (A) (A) (A) (A) (A) (A) (A) (A)
                 (A) (A) (A) (A) (A) (A) (A) (A) (A) (A) (A) (A)
                 (A) (A) (A) (A) (A) (A) (A) (A) (A) (A) (A) (A)
                 (A) (A) (A) (A) (A) (A) (A) (A) (A) (A) (A) (A)
                 (A) (A) (A) (A) (A) (A) (A) (A) (A) (A) (A) (A)
                 (A) (A) (A) (A) (A) (A) (A) (A) (A) (A) (A) (A)
                 (A) (A) (A) (A) (A) (A) (A) (A) (A) (A) (A) (A)
                 (A) (A) (A) (A) (A) (A) (A) (A) (A) (A) (A) (A)
                 (A) (A) (A) (A) (A) (A) (A) (A) (A) (A) (A) (A)
                 (A) (A) (A) (A) (A) (A) (A) (A) (A) (A) (A) (A)
                 (A) (A) (A) (A) (A) (A) (A) (A) (A) (A) (A) (A)
                 (A) (A) (A) (A) (A) (A) (A) (A) (A) (A) (A) (A)
                 (A) (A) (A) (A) (A) (A) (A) (A) (A) (A) (A) (A)
                 (A) (A) (A) (A) (A) (A) (A) (A) (A) (A) (A) (A)
                 (A) (A) (A) (A) (A) (A) (A) (A) (A) (A) (A) (A)
                 (A) (A) (A) (A) (A) (A) (A) (A) (A) (A) (A) (A)
                 (A) (A) (A) (A) (A) (A)
 Beta  Orbitals:
       Occupied  (A) (A) (A) (A) (A) (A) (A) (A) (A) (A) (A) (A)
                 (A) (A) (A) (A) (A) (A) (A) (A) (A) (A) (A) (A)
                 (A) (A) (A) (A) (A) (A) (A) (A) (A) (A) (A) (A)
                 (A) (A) (A) (A) (A) (A) (A) (A) (A) (A) (A) (A)
                 (A) (A) (A) (A) (A) (A) (A) (A) (A) (A) (A) (A)
                 (A) (A) (A) (A) (A) (A) (A) (A) (A) (A) (A) (A)
                 (A) (A) (A) (A) (A) (A) (A) (A) (A) (A) (A) (A)
                 (A) (A) (A) (A) (A) (A) (A) (A)
       Virtual   (A) (A) (A) (A) (A) (A) (A) (A) (A) (A) (A) (A)
                 (A) (A) (A) (A) (A) (A) (A) (A) (A) (A) (A) (A)
                 (A) (A) (A) (A) (A) (A) (A) (A) (A) (A) (A) (A)
                 (A) (A) (A) (A) (A) (A) (A) (A) (A) (A) (A) (A)
                 (A) (A) (A) (A) (A) (A) (A) (A) (A) (A) (A) (A)
                 (A) (A) (A) (A) (A) (A) (A) (A) (A) (A) (A) (A)
                 (A) (A) (A) (A) (A) (A) (A) (A) (A) (A) (A) (A)
                 (A) (A) (A) (A) (A) (A) (A) (A) (A) (A) (A) (A)
                 (A) (A) (A) (A) (A) (A) (A) (A) (A) (A) (A) (A)
                 (A) (A) (A) (A) (A) (A) (A) (A) (A) (A) (A) (A)
                 (A) (A) (A) (A) (A) (A) (A) (A) (A) (A) (A) (A)
                 (A) (A) (A) (A) (A) (A) (A) (A) (A) (A) (A) (A)
                 (A) (A) (A) (A) (A) (A) (A) (A) (A) (A) (A) (A)
                 (A) (A) (A) (A) (A) (A) (A) (A) (A) (A) (A) (A)
                 (A) (A) (A) (A) (A) (A) (A) (A) (A) (A) (A) (A)
                 (A) (A) (A) (A) (A) (A) (A) (A) (A) (A) (A) (A)
                 (A) (A) (A) (A) (A) (A) (A) (A) (A) (A) (A) (A)
                 (A) (A) (A) (A) (A) (A) (A) (A) (A) (A) (A) (A)
                 (A) (A) (A) (A) (A) (A) (A) (A) (A) (A) (A) (A)
                 (A) (A) (A) (A) (A) (A) (A) (A) (A) (A) (A) (A)
                 (A) (A) (A) (A) (A) (A) (A) (A) (A) (A) (A) (A)
                 (A) (A) (A) (A) (A) (A) (A) (A) (A) (A) (A) (A)
                 (A) (A) (A) (A) (A) (A) (A) (A) (A) (A) (A) (A)
                 (A) (A) (A) (A) (A) (A) (A) (A) (A) (A) (A) (A)
                 (A) (A) (A) (A) (A) (A) (A) (A) (A) (A) (A) (A)
                 (A) (A) (A) (A) (A) (A) (A) (A) (A) (A) (A) (A)
                 (A) (A) (A) (A) (A) (A) (A) (A) (A) (A) (A) (A)
                 (A) (A) (A) (A) (A) (A) (A) (A) (A) (A) (A) (A)
                 (A) (A) (A) (A) (A) (A) (A) (A) (A) (A) (A) (A)
                 (A) (A) (A) (A) (A) (A) (A) (A) (A) (A) (A) (A)
                 (A) (A) (A) (A) (A) (A) (A) (A) (A) (A) (A) (A)
                 (A) (A) (A) (A) (A) (A) (A) (A) (A) (A) (A) (A)
                 (A) (A) (A) (A) (A) (A) (A) (A) (A) (A) (A) (A)
                 (A) (A) (A) (A) (A) (A) (A) (A) (A) (A) (A) (A)
                 (A) (A) (A) (A) (A) (A) (A) (A) (A) (A) (A) (A)
                 (A) (A) (A) (A) (A) (A) (A) (A) (A) (A) (A) (A)
                 (A) (A) (A) (A) (A) (A) (A) (A) (A) (A) (A) (A)
                 (A) (A) (A) (A) (A) (A) (A) (A) (A) (A) (A) (A)
                 (A) (A) (A) (A) (A) (A) (A) (A) (A) (A) (A) (A)
                 (A) (A) (A) (A) (A) (A) (A) (A) (A) (A) (A) (A)
                 (A) (A) (A) (A) (A) (A) (A) (A) (A) (A) (A) (A)
                 (A) (A) (A) (A) (A) (A) (A) (A) (A) (A) (A) (A)
                 (A) (A) (A) (A) (A) (A) (A) (A) (A) (A) (A) (A)
                 (A) (A) (A) (A) (A) (A) (A) (A) (A) (A) (A) (A)
                 (A) (A) (A) (A) (A) (A) (A)
 The electronic state is 2-A.
 Alpha  occ. eigenvalues --  -19.00620 -18.99610 -14.31478 -10.18302 -10.17542
 Alpha  occ. eigenvalues --  -10.17281 -10.17111 -10.16652 -10.13142 -10.12904
 Alpha  occ. eigenvalues --  -10.12878 -10.12547 -10.12541 -10.12124 -10.12000
 Alpha  occ. eigenvalues --  -10.11964 -10.11829 -10.11806 -10.11465 -10.11352
 Alpha  occ. eigenvalues --  -10.11350 -10.09710 -10.08194 -10.08191 -10.07559
 Alpha  occ. eigenvalues --  -10.07518 -10.07499  -1.20180  -1.19379  -1.16093
 Alpha  occ. eigenvalues --   -1.02948  -1.02623  -1.00841  -0.98194  -0.93908
 Alpha  occ. eigenvalues --   -0.93167  -0.91982  -0.91253  -0.91019  -0.89272
 Alpha  occ. eigenvalues --   -0.87103  -0.86325  -0.81610  -0.81408  -0.79593
 Alpha  occ. eigenvalues --   -0.78383  -0.77557  -0.76451  -0.73833  -0.73286
 Alpha  occ. eigenvalues --   -0.72940  -0.72348  -0.71940  -0.67909  -0.67509
 Alpha  occ. eigenvalues --   -0.66914  -0.66633  -0.64355  -0.64195  -0.63108
 Alpha  occ. eigenvalues --   -0.62240  -0.60928  -0.60768  -0.60419  -0.60002
 Alpha  occ. eigenvalues --   -0.59650  -0.59345  -0.59080  -0.58763  -0.58261
 Alpha  occ. eigenvalues --   -0.57840  -0.56626  -0.55778  -0.55488  -0.55361
 Alpha  occ. eigenvalues --   -0.54304  -0.54037  -0.53098  -0.52622  -0.52314
 Alpha  occ. eigenvalues --   -0.51989  -0.51711  -0.49863  -0.48694  -0.48055
 Alpha  occ. eigenvalues --   -0.46280  -0.45403  -0.44715  -0.43957  -0.41463
 Alpha  occ. eigenvalues --   -0.40743  -0.40692  -0.38485
 Alpha virt. eigenvalues --   -0.11282  -0.10690  -0.10164  -0.08766  -0.07806
 Alpha virt. eigenvalues --   -0.06689  -0.05335  -0.03750  -0.01887  -0.01576
 Alpha virt. eigenvalues --   -0.00947   0.00213   0.00716   0.01976   0.02236
 Alpha virt. eigenvalues --    0.02678   0.03111   0.03461   0.04651   0.04809
 Alpha virt. eigenvalues --    0.05276   0.05524   0.05742   0.06300   0.06981
 Alpha virt. eigenvalues --    0.07435   0.07651   0.08056   0.08417   0.09631
 Alpha virt. eigenvalues --    0.09786   0.10103   0.10573   0.10757   0.10924
 Alpha virt. eigenvalues --    0.11464   0.12782   0.13295   0.13690   0.13915
 Alpha virt. eigenvalues --    0.14141   0.15050   0.15173   0.15298   0.15781
 Alpha virt. eigenvalues --    0.16394   0.16556   0.16818   0.17209   0.17751
 Alpha virt. eigenvalues --    0.17828   0.18193   0.18476   0.18882   0.19471
 Alpha virt. eigenvalues --    0.19920   0.20048   0.20128   0.21167   0.21219
 Alpha virt. eigenvalues --    0.21438   0.21695   0.22018   0.22226   0.22576
 Alpha virt. eigenvalues --    0.22770   0.23238   0.23756   0.23952   0.24645
 Alpha virt. eigenvalues --    0.24875   0.25446   0.25838   0.26189   0.26484
 Alpha virt. eigenvalues --    0.26955   0.27325   0.27885   0.28269   0.28914
 Alpha virt. eigenvalues --    0.29286   0.29358   0.29712   0.30096   0.30141
 Alpha virt. eigenvalues --    0.30336   0.31073   0.31477   0.31698   0.32006
 Alpha virt. eigenvalues --    0.32235   0.32931   0.33144   0.33200   0.33545
 Alpha virt. eigenvalues --    0.33699   0.34299   0.34788   0.34903   0.35966
 Alpha virt. eigenvalues --    0.36133   0.36284   0.36705   0.37138   0.37257
 Alpha virt. eigenvalues --    0.37644   0.38156   0.38240   0.38715   0.38956
 Alpha virt. eigenvalues --    0.39328   0.39654   0.40347   0.40400   0.40850
 Alpha virt. eigenvalues --    0.40928   0.41485   0.41504   0.41780   0.42382
 Alpha virt. eigenvalues --    0.42686   0.43098   0.43969   0.44295   0.44857
 Alpha virt. eigenvalues --    0.44968   0.45469   0.45777   0.46092   0.46835
 Alpha virt. eigenvalues --    0.47111   0.47378   0.48215   0.48340   0.48567
 Alpha virt. eigenvalues --    0.48929   0.49607   0.50703   0.50943   0.51343
 Alpha virt. eigenvalues --    0.51538   0.52345   0.52893   0.53234   0.54210
 Alpha virt. eigenvalues --    0.55813   0.56072   0.57069   0.57684   0.58237
 Alpha virt. eigenvalues --    0.58822   0.59032   0.60672   0.60965   0.61101
 Alpha virt. eigenvalues --    0.61595   0.62404   0.62571   0.62999   0.63135
 Alpha virt. eigenvalues --    0.64193   0.64606   0.64967   0.65441   0.65950
 Alpha virt. eigenvalues --    0.66240   0.66489   0.68083   0.68558   0.68790
 Alpha virt. eigenvalues --    0.69457   0.71269   0.72048   0.72837   0.73360
 Alpha virt. eigenvalues --    0.74388   0.75475   0.76522   0.77067   0.78217
 Alpha virt. eigenvalues --    0.78740   0.79781   0.80921   0.83473   0.84599
 Alpha virt. eigenvalues --    0.85924   0.86235   0.87588   1.03750   1.06276
 Alpha virt. eigenvalues --    1.07489   1.12395   1.12539   1.13575   1.14075
 Alpha virt. eigenvalues --    1.14777   1.15177   1.15629   1.15656   1.15914
 Alpha virt. eigenvalues --    1.16605   1.17543   1.17912   1.18391   1.18729
 Alpha virt. eigenvalues --    1.19531   1.19840   1.20244   1.20720   1.21078
 Alpha virt. eigenvalues --    1.21661   1.22145   1.22307   1.22882   1.23084
 Alpha virt. eigenvalues --    1.23586   1.23894   1.24421   1.24846   1.25390
 Alpha virt. eigenvalues --    1.25931   1.26301   1.26562   1.26797   1.27681
 Alpha virt. eigenvalues --    1.28386   1.29316   1.29941   1.31932   1.31988
 Alpha virt. eigenvalues --    1.32502   1.32726   1.33316   1.33481   1.33984
 Alpha virt. eigenvalues --    1.34588   1.34980   1.35260   1.35468   1.35914
 Alpha virt. eigenvalues --    1.36072   1.36306   1.36787   1.37057   1.37342
 Alpha virt. eigenvalues --    1.37684   1.38546   1.38772   1.39054   1.39120
 Alpha virt. eigenvalues --    1.39866   1.40017   1.40746   1.41095   1.41269
 Alpha virt. eigenvalues --    1.42175   1.42424   1.42952   1.43260   1.43522
 Alpha virt. eigenvalues --    1.43714   1.43843   1.44069   1.44288   1.44544
 Alpha virt. eigenvalues --    1.45436   1.45578   1.45965   1.46234   1.46766
 Alpha virt. eigenvalues --    1.47049   1.47389   1.47637   1.48263   1.48468
 Alpha virt. eigenvalues --    1.49582   1.49677   1.50418   1.50853   1.51510
 Alpha virt. eigenvalues --    1.52488   1.53359   1.54501   1.55492   1.56778
 Alpha virt. eigenvalues --    1.57254   1.58261   1.58658   1.59788   1.60522
 Alpha virt. eigenvalues --    1.62144   1.63983   1.65240   1.65796   1.66325
 Alpha virt. eigenvalues --    1.67020   1.67530   1.68125   1.68952   1.69554
 Alpha virt. eigenvalues --    1.69875   1.70101   1.70614   1.70945   1.71350
 Alpha virt. eigenvalues --    1.71959   1.72220   1.72479   1.73446   1.74133
 Alpha virt. eigenvalues --    1.74275   1.75048   1.76527   1.76774   1.77868
 Alpha virt. eigenvalues --    1.78800   1.79408   1.79602   1.80557   1.81125
 Alpha virt. eigenvalues --    1.81484   1.81813   1.81944   1.82210   1.82508
 Alpha virt. eigenvalues --    1.82908   1.83188   1.83285   1.83734   1.84584
 Alpha virt. eigenvalues --    1.85139   1.85670   1.86790   1.86896   1.87094
 Alpha virt. eigenvalues --    1.88435   1.88592   1.89577   1.89943   1.91199
 Alpha virt. eigenvalues --    1.91611   1.92167   1.92649   1.92741   1.93238
 Alpha virt. eigenvalues --    1.95021   1.95470   1.95644   1.96787   1.98122
 Alpha virt. eigenvalues --    1.99931   2.01698   2.03098   2.03351   2.06271
 Alpha virt. eigenvalues --    2.07440   2.08461   2.10325   2.10919   2.11819
 Alpha virt. eigenvalues --    2.12607   2.13797   2.14677   2.15914   2.17068
 Alpha virt. eigenvalues --    2.18192   2.18610   2.19154   2.19829   2.20020
 Alpha virt. eigenvalues --    2.20444   2.20835   2.21434   2.21476   2.21929
 Alpha virt. eigenvalues --    2.22086   2.23088   2.23348   2.23817   2.24551
 Alpha virt. eigenvalues --    2.25175   2.25754   2.26171   2.26725   2.27174
 Alpha virt. eigenvalues --    2.27528   2.27636   2.27793   2.28491   2.28612
 Alpha virt. eigenvalues --    2.29939   2.30126   2.30708   2.33415   2.34569
 Alpha virt. eigenvalues --    2.35777   2.37244   2.38523   2.41199   2.42243
 Alpha virt. eigenvalues --    2.42947   2.43303   2.44173   2.45487   2.45793
 Alpha virt. eigenvalues --    2.46728   2.46792   2.47655   2.49472   2.49787
 Alpha virt. eigenvalues --    2.49900   2.50249   2.51069   2.53110   2.53310
 Alpha virt. eigenvalues --    2.53808   2.54103   2.54737   2.55412   2.56561
 Alpha virt. eigenvalues --    2.57939   2.58049   2.58692   2.59827   2.60924
 Alpha virt. eigenvalues --    2.61632   2.62390   2.63291   2.63837   2.64056
 Alpha virt. eigenvalues --    2.65432   2.66168   2.66981   2.69269   2.71092
 Alpha virt. eigenvalues --    2.71150   2.73390   2.74081   2.74591   2.75180
 Alpha virt. eigenvalues --    2.76483   2.77562   2.81306   2.82234   2.82417
 Alpha virt. eigenvalues --    2.83453   2.85049   2.86586   2.87793   2.88587
 Alpha virt. eigenvalues --    2.89058   2.90274   2.91252   2.92133   2.92560
 Alpha virt. eigenvalues --    2.93455   2.94147   2.94970   2.96721   2.96810
 Alpha virt. eigenvalues --    2.97065   2.98152   2.98971   3.00203   3.01733
 Alpha virt. eigenvalues --    3.02068   3.03189   3.04728   3.05017   3.05968
 Alpha virt. eigenvalues --    3.06727   3.07515   3.08701   3.09752   3.10520
 Alpha virt. eigenvalues --    3.11020   3.12065   3.12552   3.13214   3.14827
 Alpha virt. eigenvalues --    3.15975   3.17232   3.18499   3.19589   3.22474
 Alpha virt. eigenvalues --    3.23189   3.24845   3.26367   3.28063   3.29002
 Alpha virt. eigenvalues --    3.29305   3.32965   3.33192   3.42108   3.43568
 Alpha virt. eigenvalues --    3.44617   3.45369   3.45939   3.47190   3.59351
 Alpha virt. eigenvalues --    3.69964   3.70563   3.78151   3.94892   3.95735
 Alpha virt. eigenvalues --    4.20315   4.21203  20.97473  21.10520  21.13000
 Alpha virt. eigenvalues --   21.21473  21.51400  21.56578  21.59019  21.60831
 Alpha virt. eigenvalues --   21.62199  21.63097  21.69122  21.73942  21.77956
 Alpha virt. eigenvalues --   21.82898  21.83939  21.84170  21.86196  21.87903
 Alpha virt. eigenvalues --   21.89525  21.91095  21.95691  21.99050  22.01525
 Alpha virt. eigenvalues --   22.04324  31.85849  43.11391  43.13814
  Beta  occ. eigenvalues --  -19.00530 -18.99626 -14.30692 -10.18191 -10.17600
  Beta  occ. eigenvalues --  -10.17342 -10.17131 -10.16654 -10.13042 -10.12811
  Beta  occ. eigenvalues --  -10.12697 -10.12411 -10.12406 -10.12142 -10.11889
  Beta  occ. eigenvalues --  -10.11826 -10.11776 -10.11709 -10.11487 -10.11404
  Beta  occ. eigenvalues --  -10.11400 -10.09724 -10.08160 -10.08157 -10.07547
  Beta  occ. eigenvalues --  -10.07530 -10.07488  -1.20017  -1.19407  -1.15086
  Beta  occ. eigenvalues --   -1.02732  -1.02428  -1.00577  -0.98091  -0.93702
  Beta  occ. eigenvalues --   -0.92955  -0.91866  -0.91102  -0.90859  -0.88957
  Beta  occ. eigenvalues --   -0.87068  -0.86086  -0.81367  -0.81218  -0.79398
  Beta  occ. eigenvalues --   -0.78211  -0.77435  -0.76322  -0.73745  -0.73182
  Beta  occ. eigenvalues --   -0.72850  -0.72226  -0.71759  -0.67792  -0.67313
  Beta  occ. eigenvalues --   -0.66509  -0.66467  -0.64157  -0.64075  -0.63000
  Beta  occ. eigenvalues --   -0.62139  -0.60800  -0.60646  -0.60350  -0.59866
  Beta  occ. eigenvalues --   -0.59453  -0.59027  -0.58900  -0.58610  -0.58189
  Beta  occ. eigenvalues --   -0.57261  -0.56386  -0.55713  -0.55359  -0.55239
  Beta  occ. eigenvalues --   -0.53967  -0.53763  -0.52635  -0.52514  -0.52102
  Beta  occ. eigenvalues --   -0.51907  -0.51629  -0.48777  -0.48653  -0.47919
  Beta  occ. eigenvalues --   -0.45652  -0.44780  -0.44352  -0.42694  -0.40684
  Beta  occ. eigenvalues --   -0.40652  -0.39530
  Beta virt. eigenvalues --   -0.23920  -0.10631  -0.10375  -0.09589  -0.08319
  Beta virt. eigenvalues --   -0.07322  -0.05951  -0.05253  -0.03245  -0.01845
  Beta virt. eigenvalues --   -0.01543  -0.00873   0.00288   0.00788   0.02026
[...]
     6   Atom       -0.010378      0.023763     -0.013385
     7   Atom        0.002336     -0.000381     -0.001955
     8   Atom       -0.000121     -0.000966      0.001087
     9   Atom        0.000716     -0.000674     -0.000042
    10   Atom       -0.000108     -0.000964      0.001072
    11   Atom       -0.071581     -0.013844      0.085424
    12   Atom        0.020245      0.002590     -0.022834
    13   Atom        0.021545      0.002026     -0.023571
    14   Atom       -0.054240      0.038328      0.015912
    15   Atom       -0.051840      0.037146      0.014694
    16   Atom        0.004400     -0.022211      0.017811
    17   Atom        0.001418     -0.000533     -0.000886
    18   Atom        0.001463     -0.000520     -0.000943
    19   Atom       -0.002645      0.003392     -0.000747
    20   Atom       -0.002991      0.003443     -0.000452
    21   Atom        0.000722     -0.000678     -0.000044
    22   Atom       -0.484631     -0.481985      0.966616
    23   Atom       -0.005703      0.012544     -0.006841
    24   Atom        0.018797     -0.032277      0.013480
    25   Atom       -0.000391     -0.021996      0.022387
    26   Atom        0.006988      0.014703     -0.021691
    27   Atom        0.008422      0.018337     -0.026759
    28   Atom       -0.034422     -0.051375      0.085797
    29   Atom        0.000790     -0.000503     -0.000287
    30   Atom        0.003897     -0.003692     -0.000205
    31   Atom        0.000747      0.000803     -0.001550
    32   Atom       -0.002842      0.006374     -0.003533
    33   Atom       -0.008921     -0.008333      0.017254
    34   Atom        0.057384     -0.029257     -0.028127
    35   Atom        0.016655      0.012388     -0.029043
    36   Atom        0.004708     -0.000215     -0.004493
    37   Atom       -0.006062      0.011709     -0.005647
    38   Atom        0.009169     -0.022595      0.013426
    39   Atom        0.000154     -0.001613      0.001459
    40   Atom       -0.000318     -0.001150      0.001469
    41   Atom       -0.000333     -0.000108      0.000441
    42   Atom       -0.000820      0.000317      0.000503
    43   Atom        0.032943     -0.039643      0.006700
    44   Atom        0.002338     -0.003693      0.001355
    45   Atom        0.012070      0.009394     -0.021464
    46   Atom        0.001927     -0.001707     -0.000220
 --------------------------------------------------------
                        XY            XZ            YZ
 --------------------------------------------------------
     1   Atom        0.000584     -0.000042     -0.003650
     2   Atom        0.001507      0.000363      0.010970
     3   Atom        0.009618     -0.000870      0.001163
     4   Atom       -0.001749     -0.000351     -0.003586
     5   Atom       -0.000290      0.000115      0.002428
     6   Atom       -0.007547      0.000771      0.001570
     7   Atom       -0.000075     -0.000100      0.000389
     8   Atom       -0.000004     -0.000078     -0.001193
     9   Atom       -0.000087     -0.000072     -0.000089
    10   Atom       -0.000113      0.000065     -0.001199
    11   Atom        0.004419      0.007186      0.101961
    12   Atom       -0.004416     -0.007163     -0.022870
    13   Atom        0.001422      0.002608     -0.024352
    14   Atom       -0.013148     -0.007447      0.080463
    15   Atom        0.021603      0.015037      0.080026
    16   Atom        0.002108      0.005339     -0.000395
    17   Atom        0.000375     -0.000272     -0.002006
    18   Atom       -0.000664      0.000021     -0.001913
    19   Atom        0.001379     -0.002017     -0.005251
    20   Atom       -0.001565      0.001655     -0.005184
    21   Atom       -0.000005      0.000025     -0.000094
    22   Atom       -0.001368      0.037679     -0.073230
    23   Atom       -0.015850      0.017151      0.010751
    24   Atom        0.033577     -0.063093     -0.035266
    25   Atom        0.056498     -0.079302     -0.061404
    26   Atom       -0.010883      0.022952      0.018325
    27   Atom       -0.013796      0.028310      0.017942
    28   Atom        0.029165     -0.085319     -0.062318
    29   Atom        0.002485      0.003471      0.003616
    30   Atom        0.000970      0.005953      0.000015
    31   Atom       -0.001801      0.001299      0.000430
    32   Atom       -0.007817     -0.003982     -0.001654
    33   Atom        0.005638      0.019054     -0.008404
    34   Atom       -0.031725      0.033281     -0.014562
    35   Atom       -0.051687      0.022185     -0.016681
    36   Atom        0.008255     -0.005271      0.008279
    37   Atom        0.004364     -0.012389      0.003527
    38   Atom       -0.034895      0.061428     -0.038635
    39   Atom       -0.000937     -0.004445      0.002708
    40   Atom       -0.000691     -0.004309      0.002447
    41   Atom        0.001073     -0.001571      0.000566
    42   Atom        0.000907     -0.001287      0.000965
    43   Atom       -0.072017      0.102555     -0.065323
    44   Atom        0.001197     -0.004921     -0.001911
    45   Atom       -0.007248      0.019672      0.013927
    46   Atom        0.000259      0.001735     -0.000129
 --------------------------------------------------------


 ---------------------------------------------------------------------------------
              Anisotropic Spin Dipole Couplings in Principal Axis System
 ---------------------------------------------------------------------------------

       Atom             a.u.   MegaHertz   Gauss  10(-4) cm-1        Axes

              Baa    -0.0105    -1.405    -0.501    -0.469 -0.0328  0.9652  0.2594
     1 C(13)  Bbb     0.0041     0.546     0.195     0.182  0.0828 -0.2560  0.9631
              Bcc     0.0064     0.859     0.306     0.286  0.9960  0.0531 -0.0715
 
              Baa    -0.0154    -2.070    -0.739    -0.690  0.0177 -0.2574  0.9661
     2 C(13)  Bbb    -0.0134    -1.798    -0.642    -0.600  0.9992 -0.0309 -0.0265
              Bcc     0.0288     3.868     1.380     1.290  0.0367  0.9658  0.2566
 
              Baa    -0.0140    -1.875    -0.669    -0.625  0.4914 -0.1562  0.8568
     3 C(13)  Bbb    -0.0114    -1.525    -0.544    -0.509  0.8293 -0.2168 -0.5151
              Bcc     0.0253     3.400     1.213     1.134  0.2663  0.9636  0.0230
 
              Baa    -0.0105    -1.409    -0.503    -0.470  0.1058  0.9610  0.2557
     4 C(13)  Bbb     0.0041     0.547     0.195     0.182 -0.0470 -0.2520  0.9666
              Bcc     0.0064     0.862     0.308     0.288  0.9933 -0.1142  0.0185
 
              Baa    -0.0098    -1.311    -0.468    -0.437  0.0217  0.9866 -0.1614
     5 C(13)  Bbb     0.0043     0.573     0.205     0.191  0.9983 -0.0302 -0.0501
              Bcc     0.0055     0.737     0.263     0.246  0.0543  0.1600  0.9856
 
              Baa    -0.0140    -1.879    -0.671    -0.627 -0.4520 -0.1270  0.8829
     6 C(13)  Bbb    -0.0114    -1.530    -0.546    -0.510  0.8680  0.1654  0.4681
              Bcc     0.0254     3.409     1.216     1.137 -0.2055  0.9780  0.0355
 
              Baa    -0.0020    -1.093    -0.390    -0.364  0.0183 -0.2265  0.9738
     7 H(1)   Bbb    -0.0003    -0.157    -0.056    -0.052  0.0364  0.9735  0.2257
              Bcc     0.0023     1.249     0.446     0.417  0.9992 -0.0313 -0.0260
 
              Baa    -0.0015    -0.808    -0.288    -0.269  0.0257  0.9084  0.4173
     8 H(1)   Bbb    -0.0001    -0.066    -0.023    -0.022  0.9989 -0.0398  0.0251
              Bcc     0.0016     0.873     0.312     0.291 -0.0394 -0.4162  0.9084
 
              Baa    -0.0007    -0.370    -0.132    -0.123  0.0684  0.9874  0.1427
     9 H(1)   Bbb    -0.0000    -0.018    -0.007    -0.006  0.0780 -0.1479  0.9859
              Bcc     0.0007     0.388     0.139     0.129  0.9946 -0.0564 -0.0871
 
              Baa    -0.0015    -0.813    -0.290    -0.271  0.0534  0.9070  0.4177
    10 H(1)   Bbb    -0.0001    -0.059    -0.021    -0.020  0.9967 -0.0229 -0.0778
              Bcc     0.0016     0.871     0.311     0.291  0.0610 -0.4205  0.9052
 
              Baa    -0.0776   -10.415    -3.716    -3.474  0.0111  0.8476 -0.5306
    11 C(13)  Bbb    -0.0719    -9.649    -3.443    -3.218  0.9992 -0.0297 -0.0264
              Bcc     0.1495    20.063     7.159     6.692  0.0381  0.5298  0.8472
 
              Baa    -0.0375    -5.034    -1.796    -1.679  0.1441  0.5021  0.8527
    12 C(13)  Bbb     0.0160     2.152     0.768     0.718  0.0313  0.8589 -0.5111
              Bcc     0.0215     2.882     1.028     0.961  0.9891 -0.1004 -0.1081
 
              Baa    -0.0384    -5.157    -1.840    -1.720 -0.0494  0.5164  0.8549
    13 C(13)  Bbb     0.0167     2.246     0.801     0.749  0.0264  0.8564 -0.5157
              Bcc     0.0217     2.911     1.039     0.971  0.9984  0.0029  0.0560
 
              Baa    -0.0579    -7.775    -2.774    -2.593  0.7830  0.4584 -0.4204
    14 C(13)  Bbb    -0.0518    -6.946    -2.478    -2.317  0.6154 -0.4732  0.6303
              Bcc     0.1097    14.720     5.253     4.910 -0.0900  0.7523  0.6526
 
              Baa    -0.0583    -7.826    -2.792    -2.610  0.7659 -0.5059  0.3967
    15 C(13)  Bbb    -0.0526    -7.061    -2.519    -2.355 -0.6230 -0.4316  0.6523
              Bcc     0.1109    14.887     5.312     4.966  0.1588  0.7468  0.6458
 
              Baa    -0.0224    -3.005    -1.072    -1.002 -0.0825  0.9964  0.0208
    16 C(13)  Bbb     0.0027     0.364     0.130     0.122  0.9401  0.0847 -0.3302
              Bcc     0.0197     2.641     0.942     0.881  0.3308  0.0077  0.9437
 
              Baa    -0.0027    -1.453    -0.519    -0.485 -0.0128  0.6764  0.7364
    17 H(1)   Bbb     0.0009     0.479     0.171     0.160  0.6621 -0.5461  0.5131
              Bcc     0.0018     0.974     0.348     0.325  0.7493  0.4942 -0.4409
 
              Baa    -0.0027    -1.441    -0.514    -0.481  0.1038  0.6735  0.7319
    18 H(1)   Bbb     0.0008     0.438     0.156     0.146 -0.5892 -0.5512  0.5908
              Bcc     0.0019     1.003     0.358     0.335  0.8013 -0.4925  0.3396
 
              Baa    -0.0048    -2.555    -0.912    -0.852  0.4619  0.4227  0.7797
    19 H(1)   Bbb    -0.0027    -1.437    -0.513    -0.479  0.8590 -0.4319 -0.2748
              Bcc     0.0075     3.991     1.424     1.331  0.2206  0.7968 -0.5626
 
              Baa    -0.0043    -2.292    -0.818    -0.765 -0.4744  0.4216  0.7727
    20 H(1)   Bbb    -0.0032    -1.713    -0.611    -0.571  0.8554  0.4282  0.2915
              Bcc     0.0075     4.006     1.429     1.336 -0.2080  0.7993 -0.5638
 
              Baa    -0.0007    -0.369    -0.132    -0.123  0.0008  0.9896  0.1439
    21 H(1)   Bbb    -0.0000    -0.016    -0.006    -0.005 -0.0341 -0.1438  0.9890
              Bcc     0.0007     0.385     0.138     0.129  0.9994 -0.0057  0.0336
 
              Baa    -0.4862   -18.751    -6.691    -6.255 -0.6832  0.7282  0.0544
    22 N(14)  Bbb    -0.4851   -18.710    -6.676    -6.241  0.7298  0.6835  0.0155
              Bcc     0.9713    37.460    13.367    12.495  0.0259 -0.0503  0.9984
 
              Baa    -0.0315    -4.225    -1.507    -1.409  0.6647  0.3943 -0.6346
    23 C(13)  Bbb     0.0097     1.307     0.467     0.436  0.5724  0.2772  0.7717
              Bcc     0.0217     2.917     1.041     0.973 -0.4802  0.8762  0.0414
 
              Baa    -0.0515    -6.908    -2.465    -2.304  0.0641  0.8496  0.5235
    24 C(13)  Bbb    -0.0460    -6.179    -2.205    -2.061  0.7376 -0.3937  0.5486
              Bcc     0.0975    13.087     4.670     4.365  0.6722  0.3510 -0.6519
 
              Baa    -0.0703    -9.434    -3.366    -3.147  0.8081 -0.4198  0.4132
    25 C(13)  Bbb    -0.0650    -8.727    -3.114    -2.911  0.0852  0.7774  0.6233
              Bcc     0.1353    18.161     6.480     6.058 -0.5829 -0.4684  0.6639
 
              Baa    -0.0424    -5.685    -2.029    -1.896 -0.4573 -0.3497  0.8176
    26 C(13)  Bbb     0.0196     2.630     0.938     0.877  0.8247  0.1772  0.5371
              Bcc     0.0228     3.056     1.090     1.019 -0.3327  0.9199  0.2074
 
              Baa    -0.0499    -6.691    -2.387    -2.232 -0.4739 -0.3125  0.8233
    27 C(13)  Bbb     0.0217     2.908     1.038     0.970  0.5865  0.5854  0.5597
              Bcc     0.0282     3.783     1.350     1.262 -0.6569  0.7481 -0.0941
 
              Baa    -0.0800   -10.731    -3.829    -3.580  0.7364  0.4144  0.5348
    28 C(13)  Bbb    -0.0732    -9.822    -3.505    -3.276 -0.5198  0.8525  0.0552
              Bcc     0.1532    20.553     7.334     6.856 -0.4330 -0.3186  0.8432
 
              Baa    -0.0042    -2.225    -0.794    -0.742 -0.2392 -0.5947  0.7676
    29 H(1)   Bbb    -0.0022    -1.197    -0.427    -0.399  0.7613 -0.6055 -0.2318
              Bcc     0.0064     3.422     1.221     1.141  0.6026  0.5289  0.5976
 
              Baa    -0.0048    -2.535    -0.905    -0.846 -0.5336  0.4788  0.6971
    30 H(1)   Bbb    -0.0034    -1.838    -0.656    -0.613  0.2294  0.8753 -0.4256
              Bcc     0.0082     4.373     1.560     1.459  0.8140  0.0672  0.5769
 
              Baa    -0.0026    -1.380    -0.492    -0.460 -0.5031 -0.3666  0.7826
    31 H(1)   Bbb    -0.0001    -0.046    -0.016    -0.015  0.4641  0.6493  0.6025
              Bcc     0.0027     1.426     0.509     0.476  0.7290 -0.6664  0.1565
 
              Baa    -0.0101    -5.389    -1.923    -1.798  0.7340  0.4032  0.5465
    32 H(1)   Bbb    -0.0008    -0.406    -0.145    -0.136 -0.4554 -0.3049  0.8365
              Bcc     0.0109     5.796     2.068     1.933 -0.5039  0.8628  0.0402
 
              Baa    -0.0241    -3.237    -1.155    -1.080  0.7426 -0.5015 -0.4439
    33 C(13)  Bbb    -0.0038    -0.514    -0.184    -0.172  0.5067  0.8541 -0.1174
              Bcc     0.0280     3.751     1.338     1.251  0.4380 -0.1377  0.8884
 
              Baa    -0.0433    -5.806    -2.072    -1.937 -0.0074  0.7125  0.7016
    34 C(13)  Bbb    -0.0366    -4.913    -1.753    -1.639 -0.4394 -0.6326  0.6378
              Bcc     0.0799    10.719     3.825     3.575  0.8983 -0.3035  0.3177
 
              Baa    -0.0401    -5.376    -1.918    -1.793 -0.6383 -0.4248  0.6420
    35 C(13)  Bbb    -0.0336    -4.508    -1.609    -1.504  0.3155  0.6164  0.7215
              Bcc     0.0737     9.884     3.527     3.297  0.7022 -0.6630  0.2594
 
              Baa    -0.0153    -2.049    -0.731    -0.684  0.4271 -0.6041  0.6728
    36 C(13)  Bbb     0.0044     0.585     0.209     0.195 -0.4670  0.4898  0.7362
              Bcc     0.0109     1.464     0.523     0.488  0.7743  0.6286  0.0729
 
              Baa    -0.0193    -2.584    -0.922    -0.862  0.7043 -0.1776  0.6873
    37 C(13)  Bbb     0.0065     0.871     0.311     0.291 -0.6851  0.0838  0.7236
              Bcc     0.0128     1.713     0.611     0.571  0.1861  0.9805  0.0626
 
              Baa    -0.0507    -6.798    -2.426    -2.268 -0.6077  0.2717  0.7462
    38 C(13)  Bbb    -0.0450    -6.038    -2.155    -2.014  0.4803  0.8740  0.0730
              Bcc     0.0957    12.837     4.580     4.282  0.6324 -0.4028  0.6617
 
              Baa    -0.0043    -2.280    -0.814    -0.760  0.5692 -0.4795  0.6679
    39 H(1)   Bbb    -0.0019    -1.038    -0.370    -0.346  0.5714  0.8148  0.0980
              Bcc     0.0062     3.317     1.184     1.107 -0.5912  0.3259  0.7377
 
              Baa    -0.0042    -2.259    -0.806    -0.754  0.6560 -0.3734  0.6559
    40 H(1)   Bbb    -0.0015    -0.822    -0.293    -0.274  0.4941  0.8694  0.0007
              Bcc     0.0058     3.081     1.099     1.028 -0.5705  0.3236  0.7548
 
              Baa    -0.0022    -1.194    -0.426    -0.398  0.7021 -0.4910  0.5157
    41 H(1)   Bbb     0.0005     0.283     0.101     0.095  0.2840  0.8572  0.4296
              Bcc     0.0017     0.910     0.325     0.304 -0.6529 -0.1552  0.7413
 
              Baa    -0.0022    -1.200    -0.428    -0.400  0.7380 -0.4500  0.5029
    42 H(1)   Bbb     0.0008     0.409     0.146     0.137  0.6138  0.7572 -0.2232
              Bcc     0.0015     0.791     0.282     0.264 -0.2804  0.4734  0.8350
 
              Baa    -0.0858     6.209     2.215     2.071 -0.0625  0.7813  0.6210
    43 O(17)  Bbb    -0.0828     5.991     2.138     1.998  0.7319  0.4589 -0.5037
              Bcc     0.1686   -12.200    -4.353    -4.069  0.6786 -0.4230  0.6005
 
              Baa    -0.0044    -2.349    -0.838    -0.784  0.1536  0.8911  0.4271
    44 H(1)   Bbb    -0.0028    -1.506    -0.537    -0.502  0.6776 -0.4096  0.6108
              Bcc     0.0072     3.855     1.375     1.286  0.7192  0.1956 -0.6667
 
              Baa    -0.0360     2.603     0.929     0.868 -0.4000 -0.3268  0.8563
    45 O(17)  Bbb     0.0147    -1.067    -0.381    -0.356 -0.0374  0.9393  0.3410
              Bcc     0.0212    -1.536    -0.548    -0.512  0.9158 -0.1043  0.3879
 
              Baa    -0.0018    -0.963    -0.344    -0.321 -0.2037  0.9323  0.2988
    46 H(1)   Bbb    -0.0011    -0.584    -0.208    -0.195 -0.4413 -0.3599  0.8220
              Bcc     0.0029     1.547     0.552     0.516  0.8739  0.0356  0.4847
 

 ---------------------------------------------------------------------------------

 No NMR shielding tensors so no spin-rotation constants.
 Leave Link  601 at Sun Jan 17 22:13:54 2021, MaxMem=  4026531840 cpu:               6.1 elap:               0.9
 (Enter /opt/ohpc/pub/libs/gaussian/g16-A.03/sandybridge/g16/l9999.exe)

 Test job not archived.
 1\1\GINC-CASCADEB002\SP\ULC-wHPBE\TZVP\C24H19N1O2(1+,2)\RDU230\17-Jan-
 2021\0\\#P LC-wHPBE/TZVP iop(3/107=0176600000, 3/108=0176600000) scf=(
 conver=6,fermi,ndamp=35,noincfock,novaracc,vshift=500,xqc)\\H19 C24 N1
  O2\\1,2\C,0,-6.538108,-0.217341,1.255514\C,0,-7.258661,0.087287,0.107
 878\C,0,-5.15139,-0.259049,1.219222\C,0,-6.580697,0.348691,-1.075777\C
 ,0,-4.458004,0.000662,0.035726\C,0,-5.193998,0.304569,-1.110911\H,0,-8
 .345644,0.121015,0.135956\H,0,-4.59391,-0.476283,2.12835\H,0,-7.136138
 ,0.581164,-1.982188\H,0,-4.671509,0.488761,-2.047704\C,0,-2.974479,-0.
 044963,-0.00277\C,0,-2.240322,0.918366,-0.694597\C,0,-2.265576,-1.0512
 97,0.654611\C,0,-0.856277,0.875925,-0.739808\C,0,-0.88157,-1.094369,0.
 628888\C,0,-0.155643,-0.133238,-0.077397\H,0,-2.762026,1.727417,-1.202
 285\H,0,-2.809037,-1.823891,1.195264\H,0,-0.306381,1.639189,-1.284917\
 H,0,-0.352632,-1.885069,1.15502\H,0,-7.059465,-0.416189,2.189743\N,0,1
 .257026,-0.160831,-0.103806\C,0,1.965402,-1.377887,-0.17457\C,0,3.1900
 04,-1.508547,0.478017\C,0,1.461496,-2.456008,-0.912094\C,0,3.903051,-2
 .696891,0.390217\C,0,2.178621,-3.638306,-0.97461\C,0,3.402953,-3.77505
 6,-0.332839\H,0,3.600761,-0.690157,1.062074\H,0,0.51484,-2.358097,-1.4
 35231\H,0,1.782807,-4.471654,-1.551437\H,0,3.963923,-4.706428,-0.39805
 5\C,0,1.972861,1.068372,-0.045814\C,0,2.971482,1.350948,-0.972341\C,0,
 1.683086,2.012203,0.939258\C,0,3.67678,2.543988,-0.910119\C,0,2.365608
 ,3.214996,0.992156\C,0,3.371443,3.4833,0.069272\H,0,3.205268,0.621566,
 -1.744392\H,0,0.904271,1.798314,1.667748\H,0,4.460878,2.747602,-1.6391
 97\H,0,2.139895,3.954598,1.756001\O,0,4.022986,4.680331,0.173244\H,0,4
 .695287,4.73835,-0.517835\O,0,5.097214,-2.751708,1.053752\H,0,5.479651
 ,-3.631493,0.941087\\Version=EM64L-G16RevA.03\State=2-A\HF=-1130.24687
 16\S2=0.766329\S2-1=0.\S2A=0.750242\RMSD=9.566e-07\Dipole=1.7020947,-0
 .5624898,-0.6952819\Quadrupole=29.0097604,-2.0795796,-26.9301808,-3.06
 35941,-7.1313235,-4.4142739\PG=C01 [X(C24H19N1O2)]\\@


 MY DESCRIPTION OF EXPERIENCE IS NOT WHAT HAPPENS
 TO A MAN.  EXPERIENCE IS WHAT A MAN DOES WITH WHAT
 HAPPENS TO HIM.
                         - CHUCK KNOX, SEATTLE SEAHAWKS, 1985
 Job cpu time:       0 days  2 hours 59 minutes 42.6 seconds.
 Elapsed time:       0 days  0 hours 22 minutes 32.0 seconds.
 File lengths (MBytes):  RWF=    240 Int=      0 D2E=      0 Chk=     32 Scr=      8
 Normal termination of Gaussian 16 at Sun Jan 17 22:13:54 2021.
