 Entering Gaussian System, Link 0=g16
 Input=mol_bp_ma_half_tune_c6.gjf
 Output=mol_bp_ma_half_tune_c6.log
 Initial command:
 /opt/ohpc/pub/libs/gaussian/g16-A.03/sandybridge/g16/l1.exe "/mnt/gpfs2_4m/scratch/rdu230/ondemand/projects/init_structures/wtuning/mol_bp_ma_half/tuning_mol_bp_ma_half_ocycle0/Gau-71236.inp" -scrdir="/mnt/gpfs2_4m/scratch/rdu230/ondemand/projects/init_structures/wtuning/mol_bp_ma_half/tuning_mol_bp_ma_half_ocycle0/"
 Entering Link 1 = /opt/ohpc/pub/libs/gaussian/g16-A.03/sandybridge/g16/l1.exe PID=     71237.
  
 Copyright (c) 1988,1990,1992,1993,1995,1998,2003,2009,2016,
            Gaussian, Inc.  All Rights Reserved.
  
 This is part of the Gaussian(R) 16 program.  It is based on
 the Gaussian(R) 09 system (copyright 2009, Gaussian, Inc.),
 the Gaussian(R) 03 system (copyright 2003, Gaussian, Inc.),
 the Gaussian(R) 98 system (copyright 1998, Gaussian, Inc.),
 the Gaussian(R) 94 system (copyright 1995, Gaussian, Inc.),
 the Gaussian 92(TM) system (copyright 1992, Gaussian, Inc.),
 the Gaussian 90(TM) system (copyright 1990, Gaussian, Inc.),
 the Gaussian 88(TM) system (copyright 1988, Gaussian, Inc.),
 the Gaussian 86(TM) system (copyright 1986, Carnegie Mellon
 University), and the Gaussian 82(TM) system (copyright 1983,
 Carnegie Mellon University). Gaussian is a federally registered
 trademark of Gaussian, Inc.
  
 This software contains proprietary and confidential information,
 including trade secrets, belonging to Gaussian, Inc.
  
 This software is provided under written license and may be
 used, copied, transmitted, or stored only in accord with that
 written license.
  
 The following legend is applicable only to US Government
 contracts under FAR:
  
                    RESTRICTED RIGHTS LEGEND
  
 Use, reproduction and disclosure by the US Government is
 subject to restrictions as set forth in subparagraphs (a)
 and (c) of the Commercial Computer Software - Restricted
 Rights clause in FAR 52.227-19.
  
 Gaussian, Inc.
 340 Quinnipiac St., Bldg. 40, Wallingford CT 06492
  
  
 ---------------------------------------------------------------
 Warning -- This program may not be used in any manner that
 competes with the business of Gaussian, Inc. or will provide
 assistance to any competitor of Gaussian, Inc.  The licensee
 of this program is prohibited from giving any competitor of
 Gaussian, Inc. access to this program.  By using this program,
 the user acknowledges that Gaussian, Inc. is engaged in the
 business of creating and licensing software in the field of
 computational chemistry and represents and warrants to the
 licensee that it is not a competitor of Gaussian, Inc. and that
 it will not use this program in any manner prohibited above.
 ---------------------------------------------------------------
  

 Cite this work as:
 Gaussian 16, Revision A.03,
 M. J. Frisch, G. W. Trucks, H. B. Schlegel, G. E. Scuseria, 
 M. A. Robb, J. R. Cheeseman, G. Scalmani, V. Barone, 
 G. A. Petersson, H. Nakatsuji, X. Li, M. Caricato, A. V. Marenich, 
 J. Bloino, B. G. Janesko, R. Gomperts, B. Mennucci, H. P. Hratchian, 
 J. V. Ortiz, A. F. Izmaylov, J. L. Sonnenberg, D. Williams-Young, 
 F. Ding, F. Lipparini, F. Egidi, J. Goings, B. Peng, A. Petrone, 
 T. Henderson, D. Ranasinghe, V. G. Zakrzewski, J. Gao, N. Rega, 
 G. Zheng, W. Liang, M. Hada, M. Ehara, K. Toyota, R. Fukuda, 
 J. Hasegawa, M. Ishida, T. Nakajima, Y. Honda, O. Kitao, H. Nakai, 
 T. Vreven, K. Throssell, J. A. Montgomery, Jr., J. E. Peralta, 
 F. Ogliaro, M. J. Bearpark, J. J. Heyd, E. N. Brothers, K. N. Kudin, 
 V. N. Staroverov, T. A. Keith, R. Kobayashi, J. Normand, 
 K. Raghavachari, A. P. Rendell, J. C. Burant, S. S. Iyengar, 
 J. Tomasi, M. Cossi, J. M. Millam, M. Klene, C. Adamo, R. Cammi, 
 J. W. Ochterski, R. L. Martin, K. Morokuma, O. Farkas, 
 J. B. Foresman, and D. J. Fox, Gaussian, Inc., Wallingford CT, 2016.
 
 ******************************************
 Gaussian 16:  EM64L-G16RevA.03 25-Dec-2016
                17-Jan-2021 
 ******************************************
 %mem=30GB
 %nproc=8
 Will use up to    8 processors via shared memory.
 ----------------------------------------------------------------------
 #P LC-wHPBE/TZVP iop(3/107=0181600000, 3/108=0181600000) scf=(conver=6
 ,fermi,ndamp=35,noincfock,novaracc,vshift=500,xqc)
 ----------------------------------------------------------------------
 1/38=1,172=1/1;
 2/12=2,17=6,18=5,40=1/2;
 3/5=19,7=101,11=2,25=1,30=1,74=-71,107=181600000,108=181600000/1,2,3;
 4//1;
 5/5=100002,6=6,8=3,10=500,13=1,18=-1,22=13,38=1,93=35/2,8;
 6/7=2,8=2,9=2,10=2,28=1/1;
 99/5=1,9=1/99;
 Leave Link    1 at Sun Jan 17 21:17:55 2021, MaxMem=  4026531840 cpu:               2.9 elap:               0.4
 (Enter /opt/ohpc/pub/libs/gaussian/g16-A.03/sandybridge/g16/l101.exe)
 -------------
 H19 C24 N1 O2
 -------------
 Symbolic Z-matrix:
 Charge =  1 Multiplicity = 2
 C                    -6.53811  -0.21734   1.25551 
 C                    -7.25866   0.08729   0.10788 
 C                    -5.15139  -0.25905   1.21922 
 C                    -6.5807    0.34869  -1.07578 
 C                    -4.458     0.00066   0.03573 
 C                    -5.194     0.30457  -1.11091 
 H                    -8.34564   0.12102   0.13596 
 H                    -4.59391  -0.47628   2.12835 
 H                    -7.13614   0.58116  -1.98219 
 H                    -4.67151   0.48876  -2.0477 
 C                    -2.97448  -0.04496  -0.00277 
 C                    -2.24032   0.91837  -0.6946 
 C                    -2.26558  -1.0513    0.65461 
 C                    -0.85628   0.87593  -0.73981 
 C                    -0.88157  -1.09437   0.62889 
 C                    -0.15564  -0.13324  -0.0774 
 H                    -2.76203   1.72742  -1.20229 
 H                    -2.80904  -1.82389   1.19526 
 H                    -0.30638   1.63919  -1.28492 
 H                    -0.35263  -1.88507   1.15502 
 H                    -7.05947  -0.41619   2.18974 
 N                     1.25703  -0.16083  -0.10381 
 C                     1.9654   -1.37789  -0.17457 
 C                     3.19     -1.50855   0.47802 
 C                     1.4615   -2.45601  -0.91209 
 C                     3.90305  -2.69689   0.39022 
 C                     2.17862  -3.63831  -0.97461 
 C                     3.40295  -3.77506  -0.33284 
 H                     3.60076  -0.69016   1.06207 
 H                     0.51484  -2.3581   -1.43523 
 H                     1.78281  -4.47165  -1.55144 
 H                     3.96392  -4.70643  -0.39806 
 C                     1.97286   1.06837  -0.04581 
 C                     2.97148   1.35095  -0.97234 
 C                     1.68309   2.0122    0.93926 
 C                     3.67678   2.54399  -0.91012 
 C                     2.36561   3.215     0.99216 
 C                     3.37144   3.4833    0.06927 
 H                     3.20527   0.62157  -1.74439 
 H                     0.90427   1.79831   1.66775 
 H                     4.46088   2.7476   -1.6392 
 H                     2.1399    3.9546    1.756 
 O                     4.02299   4.68033   0.17324 
 H                     4.69529   4.73835  -0.51784 
 O                     5.09721  -2.75171   1.05375 
 H                     5.47965  -3.63149   0.94109 
 
 ITRead=  0  0  0  0  0  0  0  0  0  0  0  0  0  0  0  0  0  0  0  0
 ITRead=  0  0  0  0  0  0  0  0  0  0  0  0  0  0  0  0  0  0  0  0
 ITRead=  0  0  0  0  0  0
 MicOpt= -1 -1 -1 -1 -1 -1 -1 -1 -1 -1 -1 -1 -1 -1 -1 -1 -1 -1 -1 -1
 MicOpt= -1 -1 -1 -1 -1 -1 -1 -1 -1 -1 -1 -1 -1 -1 -1 -1 -1 -1 -1 -1
 MicOpt= -1 -1 -1 -1 -1 -1
 NAtoms=     46 NQM=       46 NQMF=       0 NMMI=      0 NMMIF=      0
                NMic=       0 NMicF=      0.
                    Isotopes and Nuclear Properties:
 (Nuclear quadrupole moments (NQMom) in fm**2, nuclear magnetic moments (NMagM)
  in nuclear magnetons)

  Atom         1           2           3           4           5           6           7           8           9          10
 IAtWgt=          12          12          12          12          12          12           1           1           1           1
 AtmWgt=  12.0000000  12.0000000  12.0000000  12.0000000  12.0000000  12.0000000   1.0078250   1.0078250   1.0078250   1.0078250
 NucSpn=           0           0           0           0           0           0           1           1           1           1
 AtZEff=  -0.0000000  -0.0000000  -0.0000000  -0.0000000  -0.0000000  -0.0000000  -0.0000000  -0.0000000  -0.0000000  -0.0000000
 NQMom=    0.0000000   0.0000000   0.0000000   0.0000000   0.0000000   0.0000000   0.0000000   0.0000000   0.0000000   0.0000000
 NMagM=    0.0000000   0.0000000   0.0000000   0.0000000   0.0000000   0.0000000   2.7928460   2.7928460   2.7928460   2.7928460
 AtZNuc=   6.0000000   6.0000000   6.0000000   6.0000000   6.0000000   6.0000000   1.0000000   1.0000000   1.0000000   1.0000000

  Atom        11          12          13          14          15          16          17          18          19          20
 IAtWgt=          12          12          12          12          12          12           1           1           1           1
 AtmWgt=  12.0000000  12.0000000  12.0000000  12.0000000  12.0000000  12.0000000   1.0078250   1.0078250   1.0078250   1.0078250
 NucSpn=           0           0           0           0           0           0           1           1           1           1
 AtZEff=  -0.0000000  -0.0000000  -0.0000000  -0.0000000  -0.0000000  -0.0000000  -0.0000000  -0.0000000  -0.0000000  -0.0000000
 NQMom=    0.0000000   0.0000000   0.0000000   0.0000000   0.0000000   0.0000000   0.0000000   0.0000000   0.0000000   0.0000000
 NMagM=    0.0000000   0.0000000   0.0000000   0.0000000   0.0000000   0.0000000   2.7928460   2.7928460   2.7928460   2.7928460
 AtZNuc=   6.0000000   6.0000000   6.0000000   6.0000000   6.0000000   6.0000000   1.0000000   1.0000000   1.0000000   1.0000000

  Atom        21          22          23          24          25          26          27          28          29          30
 IAtWgt=           1          14          12          12          12          12          12          12           1           1
 AtmWgt=   1.0078250  14.0030740  12.0000000  12.0000000  12.0000000  12.0000000  12.0000000  12.0000000   1.0078250   1.0078250
 NucSpn=           1           2           0           0           0           0           0           0           1           1
 AtZEff=  -0.0000000  -0.0000000  -0.0000000  -0.0000000  -0.0000000  -0.0000000  -0.0000000  -0.0000000  -0.0000000  -0.0000000
 NQMom=    0.0000000   2.0440000   0.0000000   0.0000000   0.0000000   0.0000000   0.0000000   0.0000000   0.0000000   0.0000000
 NMagM=    2.7928460   0.4037610   0.0000000   0.0000000   0.0000000   0.0000000   0.0000000   0.0000000   2.7928460   2.7928460
 AtZNuc=   1.0000000   7.0000000   6.0000000   6.0000000   6.0000000   6.0000000   6.0000000   6.0000000   1.0000000   1.0000000

  Atom        31          32          33          34          35          36          37          38          39          40
 IAtWgt=           1           1          12          12          12          12          12          12           1           1
 AtmWgt=   1.0078250   1.0078250  12.0000000  12.0000000  12.0000000  12.0000000  12.0000000  12.0000000   1.0078250   1.0078250
 NucSpn=           1           1           0           0           0           0           0           0           1           1
 AtZEff=  -0.0000000  -0.0000000  -0.0000000  -0.0000000  -0.0000000  -0.0000000  -0.0000000  -0.0000000  -0.0000000  -0.0000000
 NQMom=    0.0000000   0.0000000   0.0000000   0.0000000   0.0000000   0.0000000   0.0000000   0.0000000   0.0000000   0.0000000
 NMagM=    2.7928460   2.7928460   0.0000000   0.0000000   0.0000000   0.0000000   0.0000000   0.0000000   2.7928460   2.7928460
 AtZNuc=   1.0000000   1.0000000   6.0000000   6.0000000   6.0000000   6.0000000   6.0000000   6.0000000   1.0000000   1.0000000

  Atom        41          42          43          44          45          46
 IAtWgt=           1           1          16           1          16           1
 AtmWgt=   1.0078250   1.0078250  15.9949146   1.0078250  15.9949146   1.0078250
 NucSpn=           1           1           0           1           0           1
 AtZEff=  -0.0000000  -0.0000000  -0.0000000  -0.0000000  -0.0000000  -0.0000000
 NQMom=    0.0000000   0.0000000   0.0000000   0.0000000   0.0000000   0.0000000
 NMagM=    2.7928460   2.7928460   0.0000000   2.7928460   0.0000000   2.7928460
 AtZNuc=   1.0000000   1.0000000   8.0000000   1.0000000   8.0000000   1.0000000
 Leave Link  101 at Sun Jan 17 21:17:55 2021, MaxMem=  4026531840 cpu:               0.6 elap:               0.1
 (Enter /opt/ohpc/pub/libs/gaussian/g16-A.03/sandybridge/g16/l202.exe)
                          Input orientation:                          
 ---------------------------------------------------------------------
 Center     Atomic      Atomic             Coordinates (Angstroms)
 Number     Number       Type             X           Y           Z
 ---------------------------------------------------------------------
      1          6           0       -6.538108   -0.217341    1.255514
      2          6           0       -7.258661    0.087287    0.107878
      3          6           0       -5.151390   -0.259049    1.219222
      4          6           0       -6.580697    0.348691   -1.075777
      5          6           0       -4.458004    0.000662    0.035726
      6          6           0       -5.193998    0.304569   -1.110911
      7          1           0       -8.345644    0.121015    0.135956
      8          1           0       -4.593910   -0.476283    2.128350
      9          1           0       -7.136138    0.581164   -1.982188
     10          1           0       -4.671509    0.488761   -2.047704
     11          6           0       -2.974479   -0.044963   -0.002770
     12          6           0       -2.240322    0.918366   -0.694597
     13          6           0       -2.265576   -1.051297    0.654611
     14          6           0       -0.856277    0.875925   -0.739808
     15          6           0       -0.881570   -1.094369    0.628888
     16          6           0       -0.155643   -0.133238   -0.077397
     17          1           0       -2.762026    1.727417   -1.202285
     18          1           0       -2.809037   -1.823891    1.195264
     19          1           0       -0.306381    1.639189   -1.284917
     20          1           0       -0.352632   -1.885069    1.155020
     21          1           0       -7.059465   -0.416189    2.189743
     22          7           0        1.257026   -0.160831   -0.103806
     23          6           0        1.965402   -1.377887   -0.174570
     24          6           0        3.190004   -1.508547    0.478017
     25          6           0        1.461496   -2.456008   -0.912094
     26          6           0        3.903051   -2.696891    0.390217
     27          6           0        2.178621   -3.638306   -0.974610
     28          6           0        3.402953   -3.775056   -0.332839
     29          1           0        3.600761   -0.690157    1.062074
     30          1           0        0.514840   -2.358097   -1.435231
     31          1           0        1.782807   -4.471654   -1.551437
     32          1           0        3.963923   -4.706428   -0.398055
     33          6           0        1.972861    1.068372   -0.045814
     34          6           0        2.971482    1.350948   -0.972341
     35          6           0        1.683086    2.012203    0.939258
     36          6           0        3.676780    2.543988   -0.910119
     37          6           0        2.365608    3.214996    0.992156
     38          6           0        3.371443    3.483300    0.069272
     39          1           0        3.205268    0.621566   -1.744392
     40          1           0        0.904271    1.798314    1.667748
     41          1           0        4.460878    2.747602   -1.639197
     42          1           0        2.139895    3.954598    1.756001
     43          8           0        4.022986    4.680331    0.173244
     44          1           0        4.695287    4.738350   -0.517835
     45          8           0        5.097214   -2.751708    1.053752
     46          1           0        5.479651   -3.631493    0.941087
 ---------------------------------------------------------------------
                    Distance matrix (angstroms):
                    1          2          3          4          5
     1  C    0.000000
     2  C    1.388907   0.000000
     3  C    1.387820   2.407410   0.000000
     4  C    2.399401   1.388887   2.771153   0.000000
     5  C    2.421206   2.802925   1.396029   2.421237   0.000000
     6  C    2.771099   2.407383   2.397707   1.387846   1.396003
     7  H    2.152924   1.087869   3.394285   2.152945   3.890794
     8  H    2.146811   3.391285   1.088342   3.859318   2.150586
     9  H    3.387914   2.151117   3.859302   1.088182   3.403140
    10  H    3.859277   3.391323   3.385604   2.146919   2.150466
    11  C    3.783179   4.287651   2.505601   3.783004   1.484726
    12  C    4.854248   5.149600   3.677408   4.394165   2.508718
    13  C    4.394439   5.150358   3.045384   4.855356   2.509258
    14  C    6.120437   6.506231   4.855302   5.758458   3.786816
    15  C    5.758321   6.506539   4.390628   6.121140   3.787059
    16  C    6.520704   7.108855   5.162803   6.519995   4.305930
    17  H    4.907306   4.962487   3.939391   4.061913   2.718583
    18  H    4.060862   4.963282   2.817077   4.909497   2.718936
    19  H    6.981040   7.258269   5.774784   6.409069   4.654551
    20  H    6.407147   7.258094   5.067163   6.982473   4.654340
    21  H    1.088181   2.151123   2.146475   3.387902   3.403109
    22  N    7.912968   8.521930   6.544299   7.914180   5.719014
    23  C    8.700672   9.343974   7.337791   8.765218   6.573033
    24  C    9.844180  10.576308   8.466964  10.066291   7.808032
    25  C    8.585093   9.140560   7.286933   8.518803   6.478740
    26  C   10.766369  11.507179   9.413460  11.015157   8.792593
    27  C    9.625893  10.203632   8.364289   9.624554   7.635945
    28  C   10.677307  11.348213   9.378059  10.827304   8.728490
    29  H   10.151731  10.928950   8.764171  10.455224   8.153178
    30  H    7.846465   8.293878   6.599870   7.602799   5.697073
    31  H    9.757857  10.260868   8.573545   9.664894   7.840180
    32  H   11.540314  12.214011  10.270526  11.713349   9.657832
    33  C    8.705349   9.284780   7.356447   8.645352   6.519408
    34  C    9.892177  10.364340   8.565984   9.605173   7.618184
    35  C    8.524020   9.184298   7.207429   8.667050   6.525002
    36  C   10.800872  11.254136   9.504088  10.491073   8.575421
    37  C    9.546018  10.158300   8.284069   9.619170   7.603182
    38  C   10.644300  11.159458   9.379032  10.496761   8.569138
    39  H   10.229202  10.640027   8.910231   9.812574   7.891773
    40  H    7.721516   8.484944   6.411314   8.102659   5.886344
    41  H   11.753635  12.144017  10.469298  11.313204   9.481429
    42  H    9.641748  10.295886   8.438352   9.852424   7.881956
    43  O   11.691673  12.180964  10.471901  11.522207   9.687384
    44  H   12.405354  12.842148  11.178033  12.113142  10.321572
    45  O   11.909846  12.713073  10.548678  12.268699   9.995705
    46  H   12.497273  13.296171  11.156602  12.859300  10.619285
                    6          7          8          9         10
     6  C    0.000000
     7  H    3.394295   0.000000
     8  H    3.385653   4.289744   0.000000
     9  H    2.146517   2.482172   4.947488   0.000000
    10  H    1.088349   4.289857   4.286812   2.467231   0.000000
    11  C    2.505277   5.375519   2.711137   4.650757   2.710448
    12  C    3.045368   6.212934   3.931088   5.073520   2.815338
    13  C    3.678464   6.213738   2.814904   5.774081   3.932277
    14  C    4.390898   7.578091   4.901499   6.408358   4.051726
    15  C    4.856023   7.578426   4.051158   6.981744   4.902457
    16  C    5.161865   8.196724   4.968019   7.270895   4.966089
    17  H    2.819102   5.962232   4.393771   4.588573   2.427988
    18  H    3.941678   5.963121   2.423318   5.882541   4.397045
    19  H    5.069545   8.303823   5.874395   6.946307   4.578173
    20  H    5.776485   8.303680   4.573892   7.870218   5.877517
    21  H    3.859246   2.482113   2.467051   4.290175   4.947446
    22  N    6.545729   9.609797   6.270206   8.632733   6.272817
    23  C    7.413798  10.424049   7.010057   9.483849   7.144340
    24  C    8.723736  11.655199   8.023620  10.818905   8.495404
    25  C    7.208045  10.194089   7.059147   9.180895   6.897465
    26  C    9.696311  12.571228   8.952684  11.757451   9.466516
    27  C    8.361839  11.230583   8.092832  10.275401   8.068983
    28  C    9.547581  12.386633   8.993841  11.522562   9.290739
    29  H    9.113678  12.009675   8.266518  11.232310   8.915774
    30  H    6.307599   9.333960   6.506893   8.214370   5.947936
    31  H    8.466533  11.248352   8.376535  10.259829   8.155378
    32  H   10.463545  13.233095   9.874885  12.396752  10.211857
    33  C    7.285719  10.363497   7.087696   9.325276   6.963560
    34  C    8.233418  11.437587   8.377841  10.187067   7.766279
    35  C    7.376550  10.237056   6.856178   9.400076   7.184963
    36  C    9.151285  12.308686   9.314432  11.041794   8.672484
    37  C    8.369057  11.181982   7.959357  10.298882   8.135977
    38  C    9.212163  12.190141   9.130441  11.092346   8.839566
    39  H    8.429084  11.713660   8.776707  10.344219   7.883733
    40  H    6.865938   9.524739   5.967909   8.913566   6.827066
    41  H    9.973170  13.193071  10.323615  11.802622   9.416461
    42  H    8.679164  11.281287   8.069416  10.554568   8.536710
    43  O   10.283440  13.182252  10.230543  12.082016   9.904348
    44  H   10.853944  13.849661  10.976515  12.625733  10.398864
    45  O   10.951513  13.776985  10.012502  13.037633  10.749308
    46  H   11.559847  14.348113  10.622692  13.618008  11.355854
                   11         12         13         14         15
    11  C    0.000000
    12  C    1.394853   0.000000
    13  C    1.395493   2.387587   0.000000
    14  C    2.424467   1.385433   2.764907   0.000000
    15  C    2.424977   2.765668   1.384915   2.399172   0.000000
    16  C    2.821205   2.415097   2.414640   1.395739   1.396274
    17  H    2.150652   1.088341   3.378724   2.137944   3.853801
    18  H    2.151102   3.378607   1.088374   3.853152   2.137314
    19  H    3.405733   2.146670   3.852133   1.087245   3.386123
    20  H    3.405958   3.852753   2.145912   3.386314   1.087105
    21  H    4.651025   5.772746   5.073595   6.980786   6.408009
    22  N    4.234297   3.707444   3.711718   2.438321   2.445798
    23  C    5.119436   4.819888   4.323815   3.655275   2.971730
    24  C    6.354061   6.062456   5.477556   4.851927   4.095366
    25  C    5.130096   5.013697   4.280052   4.062454   3.117474
    26  C    7.381570   7.210266   6.389823   6.057489   5.051499
    27  C    6.356967   6.353639   5.394244   5.444632   4.290407
    28  C    7.395551   7.348852   6.366015   6.319675   5.144720
    29  H    6.692081   6.308050   5.891550   5.056143   4.521319
    30  H    4.424690   4.344498   3.715626   3.580848   2.794201
    31  H    6.680249   6.780270   5.740635   6.018314   4.822735
    32  H    8.368209   8.379672   7.298955   7.383345   6.130284
    33  C    5.071246   4.265481   4.790401   2.919364   3.644235
    34  C    6.184100   5.237096   5.987030   3.864124   4.836271
    35  C    5.178056   4.388518   5.005795   3.249424   4.040369
    36  C    7.194803   6.140130   7.119414   4.833223   6.031976
    37  C    6.335120   5.416109   6.305796   4.341831   5.408027
    38  C    7.261168   6.217257   7.258180   5.032557   6.273463
    39  H    6.454981   5.553792   6.203533   4.191663   5.027836
    40  H    4.607928   4.030316   4.381171   3.121964   3.554725
    41  H    8.109306   7.010311   8.058435   5.708258   6.960366
    42  H    6.726558   5.866041   6.758714   4.968333   5.990968
    43  O    8.445348   7.357619   8.522282   6.254149   7.590088
    44  H    9.053766   7.919987   9.129527   6.766643   8.150885
    45  O    8.578749   8.388421   7.567125   7.198655   6.218773
    46  H    9.231813   9.109043   8.168722   7.955263   6.855625
                   16         17         18         19         20
    16  C    0.000000
    17  H    3.394207   0.000000
    18  H    3.393888   4.285118   0.000000
    19  H    2.149959   2.458618   4.940396   0.000000
    20  H    2.150946   4.940862   2.457496   4.286703   0.000000
    21  H    7.272052   5.879531   4.586584   7.867781   6.943333
    22  N    1.413185   4.574376   4.581072   2.660702   2.673694
    23  C    2.461184   5.748712   4.987046   3.936574   2.719986
    24  C    3.659688   6.980082   6.049990   5.024031   3.626344
    25  C    2.950783   5.951756   4.803955   4.476050   2.808913
    26  C    4.823274   8.156826   6.816330   6.271123   4.399411
    27  C    4.305727   7.297452   5.733863   5.841531   3.743849
    28  C    5.098205   8.309038   6.688121   6.631716   4.459842
    29  H    3.964735   7.173357   6.510653   5.118591   4.131074
    30  H    2.691330   5.242475   4.272357   4.083539   2.772303
    31  H    4.975162   7.694537   5.969929   6.463601   4.309922
    32  H    6.163417   9.342352   7.531313   7.699927   5.385606
    33  C    2.444462   4.918427   5.724684   2.656342   3.946230
    34  C    3.575282   5.750454   6.942083   3.305325   5.103646
    35  C    3.002903   4.942300   5.912726   3.007336   4.402207
    36  C    4.748519   6.496951   8.097952   4.101793   6.333838
    37  C    4.325658   5.772443   7.225551   3.848085   5.781524
    38  C    5.053830   6.505338   8.223896   4.331393   6.623214
    39  H    3.826790   6.093060   7.126970   3.684882   5.229576
    40  H    2.810666   4.656592   5.208864   3.195189   3.925558
    41  H    5.661336   7.307668   9.043472   4.907224   7.241489
    42  H    5.034009   6.143340   7.628715   4.537903   6.377741
    43  O    6.379201   7.526498   9.488201   5.488005   7.950748
    44  H    6.888968   8.071289  10.114969   5.933793   8.494093
    45  O    5.977323   9.323085   7.961763   7.344943   5.519252
    46  H    6.710562  10.061670   8.487307   8.137159   6.091904
                   21         22         23         24         25
    21  H    0.000000
    22  N    8.630736   0.000000
    23  C    9.378863   1.409975   0.000000
    24  C   10.448678   2.427192   1.393769   0.000000
    25  C    9.294570   2.441920   1.400074   2.412018   0.000000
    26  C   11.340928   3.698257   2.411066   1.388635   2.777630
    27  C   10.282869   3.701415   2.407285   2.769277   1.384198
    28  C   11.274201   4.209523   2.799647   2.416588   2.417577
    29  H   10.723204   2.670685   2.162559   1.086097   3.404706
    30  H    8.618674   2.674231   2.157361   3.396874   1.086009
    31  H   10.422524   4.577693   3.391238   3.857316   2.138885
    32  H   12.108589   5.298710   3.888858   3.404834   3.404522
    33  C    9.422555   1.423630   2.449656   2.897645   3.665132
    34  C   10.664963   2.445238   3.015821   3.213721   4.095925
    35  C    9.159312   2.447772   3.579529   3.857360   4.841644
    36  C   11.560223   3.717714   4.341768   4.311254   5.468770
    37  C   10.171122   3.718373   4.755627   4.822429   6.050113
    38  C   11.336060   4.216682   5.066315   5.011839   6.315565
    39  H   11.041698   2.664454   2.828325   3.078428   3.633858
    40  H    8.282366   2.664787   3.822092   4.192298   5.006530
    41  H   12.545464   4.591413   5.039067   4.920622   6.050002
    42  H   10.194123   4.601641   5.673883   5.708058   6.976735
    43  O   12.363717   5.582485   6.407545   6.252116   7.659408
    44  H   13.117715   5.999586   6.706598   6.502409   7.897571
    45  O   12.431008   4.774896   3.633787   2.348270   4.143722
    46  H   13.004874   5.564877   4.321270   3.156551   4.578386
                   26         27         28         29         30
    26  C    0.000000
    27  C    2.392211   0.000000
    28  C    1.391168   1.389086   0.000000
    29  H    2.137698   3.855145   3.391388   0.000000
    30  H    3.863550   2.149250   3.400623   4.305980   0.000000
    31  H    3.378644   1.088057   2.143619   4.943189   2.467462
    32  H    2.159471   2.158843   1.089217   4.288857   4.299601
    33  C    4.253582   4.801856   5.058294   2.640057   3.974543
    34  C    4.371428   5.051860   5.183729   2.949737   4.472848
    35  C    5.235003   5.986376   6.169971   3.315918   5.109062
    36  C    5.404524   6.361556   6.351264   3.788802   5.856965
    37  C    6.138116   7.132383   7.189751   4.096427   6.354283
    38  C    6.211310   7.295875   7.269554   4.296043   6.674251
    39  H    4.006946   4.448941   4.621888   3.123025   4.026459
    40  H    5.552624   6.177610   6.427147   3.718923   5.201527
    41  H    5.837139   6.813970   6.735788   4.455879   6.456081
    42  H    7.015439   8.069072   8.105931   4.918273   7.257746
    43  O    7.381386   8.597614   8.493181   5.459893   8.027064
    44  H    7.532264   8.758460   8.612922   5.758714   8.287178
    45  O    1.367227   3.663126   2.416691   2.547437   5.229543
    46  H    1.913794   3.816640   2.440527   3.492323   5.649582
                   31         32         33         34         35
    31  H    0.000000
    32  H    2.478442   0.000000
    33  C    5.744120   6.118555   0.000000
    34  C    5.970845   6.164945   1.391239   0.000000
    35  C    6.946503   7.220154   1.394688   2.398215   0.000000
    36  C    7.295043   7.274146   2.414085   1.387322   2.770885
    37  C    8.117519   8.199772   2.416532   2.775069   1.383960
    38  C    8.272349   8.224419   2.793055   2.406627   2.402405
    39  H    5.291646   5.547585   2.145607   1.087528   3.384211
    40  H    7.102639   7.479350   2.147323   3.382834   1.087658
    41  H    7.700482   7.572976   3.398369   2.147938   3.860747
    42  H    9.059160   9.109358   3.406573   3.861914   2.156071
    43  O    9.578714   9.404314   4.158996   3.674618   3.630539
    44  H    9.714682   9.473810   4.593816   3.827868   4.316057
    45  O    4.553078   2.685707   5.056050   5.045352   5.862101
    46  H    4.537092   2.290462   5.946451   5.897189   6.801854
                   36         37         38         39         40
    36  C    0.000000
    37  C    2.405842   0.000000
    38  C    1.390951   1.391189   0.000000
    39  H    2.148032   3.862590   3.392125   0.000000
    40  H    3.858527   2.144509   3.388398   4.280423   0.000000
    41  H    1.089873   3.395973   2.155687   2.471366   4.948382
    42  H    3.385267   1.086930   2.141001   4.949432   2.486788
    43  O    2.420226   2.358967   1.366822   4.562846   4.501772
    44  H    2.450810   3.166715   1.916353   4.546703   5.271849
    45  O    5.823986   6.562547   6.543914   4.773683   6.217754
    46  H    6.694316   7.521588   7.471605   5.520247   7.137573
                   41         42         43         44         45
    41  H    0.000000
    42  H    4.286160   0.000000
    43  O    2.685542   2.564730   0.000000
    44  H    2.296841   3.509220   0.965891   0.000000
    45  O    6.156241   7.362977   7.560718   7.663707   0.000000
    46  H    6.956193   8.328675   8.473363   8.532172   0.965905
                   46
    46  H    0.000000
 Stoichiometry    C24H19NO2(1+,2)
 Framework group  C1[X(C24H19NO2)]
 Deg. of freedom   132
 Full point group                 C1      NOp   1
 Largest Abelian subgroup         C1      NOp   1
 Largest concise Abelian subgroup C1      NOp   1
                         Standard orientation:                         
 ---------------------------------------------------------------------
 Center     Atomic      Atomic             Coordinates (Angstroms)
 Number     Number       Type             X           Y           Z
 ---------------------------------------------------------------------
      1          6           0       -6.538108   -0.217341    1.255514
      2          6           0       -7.258661    0.087287    0.107878
      3          6           0       -5.151390   -0.259049    1.219222
      4          6           0       -6.580697    0.348691   -1.075777
      5          6           0       -4.458004    0.000662    0.035726
      6          6           0       -5.193998    0.304569   -1.110911
      7          1           0       -8.345644    0.121015    0.135956
      8          1           0       -4.593910   -0.476283    2.128350
      9          1           0       -7.136138    0.581164   -1.982188
     10          1           0       -4.671509    0.488761   -2.047704
     11          6           0       -2.974479   -0.044963   -0.002770
     12          6           0       -2.240322    0.918366   -0.694597
     13          6           0       -2.265576   -1.051297    0.654611
     14          6           0       -0.856277    0.875925   -0.739808
     15          6           0       -0.881570   -1.094369    0.628888
     16          6           0       -0.155643   -0.133238   -0.077397
     17          1           0       -2.762026    1.727417   -1.202285
     18          1           0       -2.809037   -1.823891    1.195264
     19          1           0       -0.306381    1.639189   -1.284917
     20          1           0       -0.352632   -1.885069    1.155020
     21          1           0       -7.059465   -0.416189    2.189743
     22          7           0        1.257026   -0.160831   -0.103806
     23          6           0        1.965402   -1.377887   -0.174570
     24          6           0        3.190004   -1.508547    0.478017
     25          6           0        1.461496   -2.456008   -0.912094
     26          6           0        3.903051   -2.696891    0.390217
     27          6           0        2.178621   -3.638306   -0.974610
     28          6           0        3.402953   -3.775056   -0.332839
     29          1           0        3.600761   -0.690157    1.062074
     30          1           0        0.514840   -2.358097   -1.435231
     31          1           0        1.782807   -4.471654   -1.551437
     32          1           0        3.963923   -4.706428   -0.398055
     33          6           0        1.972861    1.068372   -0.045814
     34          6           0        2.971482    1.350948   -0.972341
     35          6           0        1.683086    2.012203    0.939258
     36          6           0        3.676780    2.543988   -0.910119
     37          6           0        2.365608    3.214996    0.992156
     38          6           0        3.371443    3.483300    0.069272
     39          1           0        3.205268    0.621566   -1.744392
     40          1           0        0.904271    1.798314    1.667748
     41          1           0        4.460878    2.747602   -1.639197
     42          1           0        2.139895    3.954598    1.756001
     43          8           0        4.022986    4.680331    0.173244
     44          1           0        4.695287    4.738350   -0.517835
     45          8           0        5.097214   -2.751708    1.053752
     46          1           0        5.479651   -3.631493    0.941087
 ---------------------------------------------------------------------
 Rotational constants (GHZ):           0.2747871           0.0974680           0.0767524
 Leave Link  202 at Sun Jan 17 21:17:55 2021, MaxMem=  4026531840 cpu:               0.2 elap:               0.1
 (Enter /opt/ohpc/pub/libs/gaussian/g16-A.03/sandybridge/g16/l301.exe)
 Standard basis: TZVP (5D, 7F)
 Ernie: Thresh=  0.10000D-02 Tol=  0.10000D-05 Strict=F.
 There are   654 symmetry adapted cartesian basis functions of A   symmetry.
 There are   627 symmetry adapted basis functions of A   symmetry.
   627 basis functions,  1097 primitive gaussians,   654 cartesian basis functions
    93 alpha electrons       92 beta electrons
       nuclear repulsion energy      2186.7759231597 Hartrees.
 IExCor=33909 DFT=T Ex+Corr=LC-wHPBE ExCW=0 ScaHFX=  1.000000
 ScaDFX=  1.000000  1.000000  1.000000  1.000000 ScalE2=  1.000000  1.000000
 IRadAn=      5 IRanWt=     -1 IRanGd=            0 ICorTp=0 IEmpDi=  4
 HFx  wShort=  0.000000 wLong=  0.181600 cFull=  0.000000 cShort=  0.000000 cLong=  1.000000
 DFx  wShort=  0.000000 wLong=  0.181600 cFull=  0.000000 cShort=  1.000000 cLong=  0.000000
 NAtoms=   46 NActive=   46 NUniq=   46 SFac= 1.00D+00 NAtFMM=   60 NAOKFM=F Big=F
 Integral buffers will be    131072 words long.
 Raffenetti 2 integral format.
 Two-electron integral symmetry is turned on.
 Leave Link  301 at Sun Jan 17 21:17:55 2021, MaxMem=  4026531840 cpu:               0.4 elap:               0.1
 (Enter /opt/ohpc/pub/libs/gaussian/g16-A.03/sandybridge/g16/l302.exe)
 NPDir=0 NMtPBC=     1 NCelOv=     1 NCel=       1 NClECP=     1 NCelD=      1
         NCelK=      1 NCelE2=     1 NClLst=     1 CellRange=     0.0.
 One-electron integrals computed using PRISM.
 One-electron integral symmetry used in STVInt
 NBasis=   627 RedAO= T EigKep=  6.83D-06  NBF=   627
 NBsUse=   627 1.00D-06 EigRej= -1.00D+00 NBFU=   627
 Precomputing XC quadrature grid using
 IXCGrd= 4 IRadAn=           5 IRanWt=          -1 IRanGd=           0 AccXCQ= 0.00D+00.
 Generated NRdTot=       0 NPtTot=           0 NUsed=           0 NTot=          32
 NSgBfM=   623   621   621   623   623 MxSgAt=    46 MxSgA2=    46.
 Leave Link  302 at Sun Jan 17 21:17:56 2021, MaxMem=  4026531840 cpu:               8.9 elap:               1.2
 (Enter /opt/ohpc/pub/libs/gaussian/g16-A.03/sandybridge/g16/l303.exe)
 DipDrv:  MaxL=1.
 Leave Link  303 at Sun Jan 17 21:17:56 2021, MaxMem=  4026531840 cpu:               0.8 elap:               0.2
 (Enter /opt/ohpc/pub/libs/gaussian/g16-A.03/sandybridge/g16/l401.exe)
 ExpMin= 9.52D-02 ExpMax= 2.70D+04 ExpMxC= 9.22D+02 IAcc=3 IRadAn=         5 AccDes= 0.00D+00
 Harris functional with IExCor=33909 and IRadAn=       5 diagonalized for initial guess.
 HarFok:  IExCor=33909 AccDes= 0.00D+00 IRadAn=         5 IDoV= 1 UseB2=F ITyADJ=14
 ICtDFT=  3500011 ScaDFX=  1.000000  1.000000  1.000000  1.000000
 FoFCou: FMM=F IPFlag=           0 FMFlag=      100000 FMFlg1=           0
         NFxFlg=           0 DoJE=T BraDBF=F KetDBF=T FulRan=T
         wScrn=  0.000000 ICntrl=       500 IOpCl=  0 I1Cent=   200000004 NGrid=           0
         NMat0=    1 NMatS0=      1 NMatT0=    0 NMatD0=    1 NMtDS0=    0 NMtDT0=    0
 Petite list used in FoFCou.
 Harris En= -1112.29437825184    
 JPrj=0 DoOrth=F DoCkMO=F.
 Initial guess <Sx>= 0.0000 <Sy>= 0.0000 <Sz>= 0.5000 <S**2>= 0.7500 S= 0.5000
 Leave Link  401 at Sun Jan 17 21:18:03 2021, MaxMem=  4026531840 cpu:              54.0 elap:               6.8
 (Enter /opt/ohpc/pub/libs/gaussian/g16-A.03/sandybridge/g16/l502.exe)
 Integral symmetry usage will be decided dynamically.
 UHF open shell SCF:
 Using DIIS extrapolation, IDIIS=    10.
 NGot=  4026531840 LenX=  4025664800 LenY=  4025236430
 Requested convergence on RMS density matrix=1.00D-06 within  32 cycles.
 Requested convergence on MAX density matrix=1.00D-04.
 Requested convergence on             energy=1.00D-04.
 Virtual orbitals will be shifted by   0.500 hartree.
 No special actions if energy rises.
 Dynamic level shift is on during FON iterations.

 Cycle   1  Pass 1  IDiag  1:
 FoFJK:  IHMeth= 1 ICntrl=       0 DoSepK=T KAlg= 0 I1Cent=           0 FoldK=F
 IRaf=         1 NMat=       1 IRICut=       1 DoRegI=T DoRafI=F ISym2E= 0 IDoP0=0 IntGTp=1.
 FoFCou: FMM=F IPFlag=           0 FMFlag=      100000 FMFlg1=           0
         NFxFlg=           0 DoJE=T BraDBF=F KetDBF=F FulRan=T
         wScrn=  0.000000 ICntrl=       500 IOpCl=  0 I1Cent=           0 NGrid=           0
         NMat0=    1 NMatS0=      1 NMatT0=    0 NMatD0=    1 NMtDS0=    0 NMtDT0=    0
 Symmetry not used in FoFCou.
 E= -1129.81700369949    
 DIIS: error= 2.19D-02 at cycle   1 NSaved=   1.
 NSaved= 1 IEnMin= 1 EnMin= -1129.81700369949     IErMin= 1 ErrMin= 2.19D-02
 ErrMax= 2.19D-02  0.00D+00 EMaxC= 1.00D+00 BMatC= 1.83D+00 BMatP= 1.83D+00
 IDIUse=1 WtCom= 1.00D+00 WtEn= 0.00D+00
 Coeff-Com:  0.100D+01
 Coeff:      0.100D+01
 Gap=     0.381 Goal=   None    Shift=    0.500
 T= 1307. Gap= 0.691 NK=0 IS=   94 IE=  627 IFin=   93
          NO(<0.9)=   0  NV(>0.1)=   0     93.00e < EF      0.00e >EF  Err=0.0D+00
 Gap=     0.095 Goal=   None    Shift=    0.500
 T= 1307. Gap= 0.514 NK=0 IS=   93 IE=  627 IFin=   92
          NO(<0.9)=   0  NV(>0.1)=   0     92.00e < EF      0.00e >EF  Err=0.0D+00
 GapD=    0.095 DampG=0.500 DampE=0.500 DampFc=0.2500 IDamp=-1.
 Damping current iteration by 2.50D-01
 RMSDP=2.56D-03 MaxDP=1.27D-01              OVMax= 7.84D-02

 Cycle   2  Pass 1  IDiag  1:
 E= -1129.97499022343     Delta-E=       -0.157986523934 Rises=F Damp=T
 DIIS: error= 1.43D-02 at cycle   2 NSaved=   2.
 NSaved= 2 IEnMin= 2 EnMin= -1129.97499022343     IErMin= 2 ErrMin= 1.43D-02
 ErrMax= 1.43D-02  0.00D+00 EMaxC= 1.00D+00 BMatC= 8.36D-01 BMatP= 1.83D+00
 IDIUse=1 WtCom= 1.00D+00 WtEn= 0.00D+00
 Coeff-Com: -0.185D+01 0.285D+01
 Coeff:     -0.185D+01 0.285D+01
 Gap=     0.286 Goal=   None    Shift=    0.500
 T= 1233. Gap= 0.759 NK=0 IS=   94 IE=  627 IFin=   93
          NO(<0.9)=   0  NV(>0.1)=   0     93.00e < EF      0.00e >EF  Err=0.0D+00
 Gap=     0.175 Goal=   None    Shift=    0.500
 T= 1233. Gap= 0.645 NK=0 IS=   93 IE=  627 IFin=   92
          NO(<0.9)=   0  NV(>0.1)=   0     92.00e < EF      0.00e >EF  Err=0.0D+00
 GapD=    0.175 DampG=1.000 DampE=0.500 DampFc=0.5000 IDamp=-1.
 Damping current iteration by 5.00D-01
 RMSDP=1.88D-03 MaxDP=1.16D-01 DE=-1.58D-01 OVMax= 2.77D-02

 Cycle   3  Pass 1  IDiag  1:
 E= -1130.13856031466     Delta-E=       -0.163570091233 Rises=F Damp=T
 DIIS: error= 6.54D-03 at cycle   3 NSaved=   3.
 NSaved= 3 IEnMin= 3 EnMin= -1130.13856031466     IErMin= 3 ErrMin= 6.54D-03
 ErrMax= 6.54D-03  0.00D+00 EMaxC= 1.00D+00 BMatC= 1.60D-01 BMatP= 8.36D-01
 IDIUse=1 WtCom= 1.00D+00 WtEn= 0.00D+00
 Coeff-Com:  0.905D-02-0.762D+00 0.175D+01
 Coeff:      0.905D-02-0.762D+00 0.175D+01
 Gap=     0.274 Goal=   None    Shift=    0.500
 T= 1048. Gap= 0.772 NK=4 IS=   94 IE=  106 IFin=   93
          NO(<0.9)=   0  NV(>0.1)=   0     93.00e < EF      0.00e >EF  Err=0.0D+00
 Gap=     0.147 Goal=   None    Shift=    0.500
 T= 1048. Gap= 0.646 NK=4 IS=   93 IE=  105 IFin=   92
          NO(<0.9)=   0  NV(>0.1)=   0     92.00e < EF      0.00e >EF  Err=0.0D+00
 GapD=    0.147 DampG=1.000 DampE=1.000 DampFc=1.0000 IDamp=-1.
 RMSDP=9.63D-04 MaxDP=7.27D-02 DE=-1.64D-01 OVMax= 1.08D-02

 Cycle   4  Pass 1  IDiag  1:
 E= -1130.25166179943     Delta-E=       -0.113101484774 Rises=F Damp=F
 DIIS: error= 1.94D-03 at cycle   4 NSaved=   4.
 NSaved= 4 IEnMin= 4 EnMin= -1130.25166179943     IErMin= 4 ErrMin= 1.94D-03
 ErrMax= 1.94D-03  0.00D+00 EMaxC= 1.00D+00 BMatC= 3.73D-03 BMatP= 1.60D-01
 IDIUse=1 WtCom= 1.00D+00 WtEn= 0.00D+00
 Coeff-Com:  0.162D+00-0.260D+00 0.151D+00 0.946D+00
 Coeff:      0.162D+00-0.260D+00 0.151D+00 0.946D+00
 Gap=     0.272 Goal=   None    Shift=    0.500
 T=  671. Gap= 0.772 NK=4 IS=   94 IE=  106 IFin=   93
          NO(<0.9)=   0  NV(>0.1)=   0     93.00e < EF      0.00e >EF  Err=0.0D+00
 Gap=     0.150 Goal=   None    Shift=    0.500
 T=  671. Gap= 0.650 NK=4 IS=   93 IE=  104 IFin=   92
          NO(<0.9)=   0  NV(>0.1)=   0     92.00e < EF      0.00e >EF  Err=0.0D+00
 GapD=    0.150 DampG=1.000 DampE=1.000 DampFc=1.0000 IDamp=-1.
 RMSDP=1.38D-04 MaxDP=5.69D-03 DE=-1.13D-01 OVMax= 8.58D-03

 Cycle   5  Pass 1  IDiag  1:
 E= -1130.25277668620     Delta-E=       -0.001114886772 Rises=F Damp=F
 DIIS: error= 1.50D-03 at cycle   5 NSaved=   5.
 NSaved= 5 IEnMin= 5 EnMin= -1130.25277668620     IErMin= 5 ErrMin= 1.50D-03
 ErrMax= 1.50D-03  0.00D+00 EMaxC= 1.00D+00 BMatC= 6.81D-04 BMatP= 3.73D-03
 IDIUse=1 WtCom= 1.00D+00 WtEn= 0.00D+00
 Coeff-Com:  0.451D-01-0.189D-02-0.119D+00-0.474D-01 0.112D+01
 Coeff:      0.451D-01-0.189D-02-0.119D+00-0.474D-01 0.112D+01
 Gap=     0.273 Goal=   None    Shift=    0.500
 T=  177. Gap= 0.773 NK=4 IS=   94 IE=  106 IFin=   93
          NO(<0.9)=   0  NV(>0.1)=   0     93.00e < EF      0.00e >EF  Err=0.0D+00
 Gap=     0.153 Goal=   None    Shift=    0.500
 T=  177. Gap= 0.653 NK=4 IS=   93 IE=  105 IFin=   92
          NO(<0.9)=   0  NV(>0.1)=   0     92.00e < EF      0.00e >EF  Err=0.0D+00
 GapD=    0.153 DampG=1.000 DampE=1.000 DampFc=1.0000 IDamp=-1.
 RMSDP=9.47D-05 MaxDP=3.56D-03 DE=-1.11D-03 OVMax= 6.24D-03

 Cycle   6  Pass 1  IDiag  1:
 E= -1130.25319455583     Delta-E=       -0.000417869627 Rises=F Damp=F
 DIIS: error= 1.20D-03 at cycle   6 NSaved=   6.
 NSaved= 6 IEnMin= 6 EnMin= -1130.25319455583     IErMin= 6 ErrMin= 1.20D-03
 ErrMax= 1.20D-03  0.00D+00 EMaxC= 1.00D+00 BMatC= 2.15D-04 BMatP= 6.81D-04
 IDIUse=1 WtCom= 1.00D+00 WtEn= 0.00D+00
 Coeff-Com: -0.432D-01 0.936D-01-0.925D-01-0.303D+00 0.515D-01 0.129D+01
 Coeff:     -0.432D-01 0.936D-01-0.925D-01-0.303D+00 0.515D-01 0.129D+01
 Gap=     0.274 Goal=   None    Shift=    0.500
 Gap=     0.154 Goal=   None    Shift=    0.500
 GapD=    0.154 DampG=1.000 DampE=1.000 DampFc=1.0000 IDamp=-1.
 RMSDP=5.91D-05 MaxDP=2.74D-03 DE=-4.18D-04 OVMax= 5.61D-03

 Cycle   7  Pass 1  IDiag  1:
 E= -1130.25342564797     Delta-E=       -0.000231092135 Rises=F Damp=F
 DIIS: error= 1.07D-03 at cycle   7 NSaved=   7.
 NSaved= 7 IEnMin= 7 EnMin= -1130.25342564797     IErMin= 7 ErrMin= 1.07D-03
 ErrMax= 1.07D-03  0.00D+00 EMaxC= 1.00D+00 BMatC= 1.07D-04 BMatP= 2.15D-04
 IDIUse=1 WtCom= 1.00D+00 WtEn= 0.00D+00
 Coeff-Com: -0.289D-01 0.327D-01 0.214D-02-0.871D-01-0.313D+00-0.168D+00
 Coeff-Com:  0.156D+01
 Coeff:     -0.289D-01 0.327D-01 0.214D-02-0.871D-01-0.313D+00-0.168D+00
 Coeff:      0.156D+01
 Gap=     0.275 Goal=   None    Shift=    0.500
 Gap=     0.155 Goal=   None    Shift=    0.500
 GapD=    0.155 DampG=1.000 DampE=1.000 DampFc=1.0000 IDamp=-1.
 RMSDP=3.62D-05 MaxDP=1.63D-03 DE=-2.31D-04 OVMax= 5.06D-03

 Cycle   8  Pass 1  IDiag  1:
 E= -1130.25357184812     Delta-E=       -0.000146200158 Rises=F Damp=F
 DIIS: error= 9.50D-04 at cycle   8 NSaved=   8.
 NSaved= 8 IEnMin= 8 EnMin= -1130.25357184812     IErMin= 8 ErrMin= 9.50D-04
 ErrMax= 9.50D-04  0.00D+00 EMaxC= 1.00D+00 BMatC= 6.15D-05 BMatP= 1.07D-04
 IDIUse=1 WtCom= 1.00D+00 WtEn= 0.00D+00
 Coeff-Com:  0.981D-02-0.335D-01 0.436D-01 0.103D+00-0.157D+00-0.882D+00
 Coeff-Com:  0.176D+00 0.174D+01
 Coeff:      0.981D-02-0.335D-01 0.436D-01 0.103D+00-0.157D+00-0.882D+00
 Coeff:      0.176D+00 0.174D+01
 Gap=     0.275 Goal=   None    Shift=    0.500
 Gap=     0.156 Goal=   None    Shift=    0.500
 RMSDP=2.57D-05 MaxDP=8.87D-04 DE=-1.46D-04 OVMax= 4.97D-03

 Cycle   9  Pass 1  IDiag  1:
 E= -1130.25367207926     Delta-E=       -0.000100231133 Rises=F Damp=F
 DIIS: error= 8.15D-04 at cycle   9 NSaved=   9.
 NSaved= 9 IEnMin= 9 EnMin= -1130.25367207926     IErMin= 9 ErrMin= 8.15D-04
 ErrMax= 8.15D-04  0.00D+00 EMaxC= 1.00D+00 BMatC= 3.49D-05 BMatP= 6.15D-05
 IDIUse=1 WtCom= 1.00D+00 WtEn= 0.00D+00
 Coeff-Com:  0.123D-01-0.185D-01 0.729D-02 0.383D-01 0.164D+00-0.212D+00
 Coeff-Com: -0.853D+00-0.229D+00 0.209D+01
 Coeff:      0.123D-01-0.185D-01 0.729D-02 0.383D-01 0.164D+00-0.212D+00
 Coeff:     -0.853D+00-0.229D+00 0.209D+01
 Gap=     0.275 Goal=   None    Shift=    0.500
 Gap=     0.157 Goal=   None    Shift=    0.500
 RMSDP=1.80D-05 MaxDP=7.47D-04 DE=-1.00D-04 OVMax= 4.55D-03

 Cycle  10  Pass 1  IDiag  1:
 E= -1130.25373687092     Delta-E=       -0.000064791659 Rises=F Damp=F
 DIIS: error= 6.96D-04 at cycle  10 NSaved=  10.
 NSaved=10 IEnMin=10 EnMin= -1130.25373687092     IErMin=10 ErrMin= 6.96D-04
 ErrMax= 6.96D-04  0.00D+00 EMaxC= 1.00D+00 BMatC= 2.13D-05 BMatP= 3.49D-05
 IDIUse=1 WtCom= 1.00D+00 WtEn= 0.00D+00
 Coeff-Com: -0.345D-03 0.556D-02-0.104D-01-0.380D-01 0.147D+00 0.264D+00
 Coeff-Com: -0.585D+00-0.587D+00-0.240D+00 0.204D+01
 Coeff:     -0.345D-03 0.556D-02-0.104D-01-0.380D-01 0.147D+00 0.264D+00
 Coeff:     -0.585D+00-0.587D+00-0.240D+00 0.204D+01
 Gap=     0.275 Goal=   None    Shift=    0.500
 Gap=     0.157 Goal=   None    Shift=    0.500
 RMSDP=1.41D-05 MaxDP=6.58D-04 DE=-6.48D-05 OVMax= 3.86D-03

 Cycle  11  Pass 1  IDiag  1:
 E= -1130.25377720675     Delta-E=       -0.000040335835 Rises=F Damp=F
 DIIS: error= 5.86D-04 at cycle  11 NSaved=  11.
 NSaved=11 IEnMin=11 EnMin= -1130.25377720675     IErMin=11 ErrMin= 5.86D-04
 ErrMax= 5.86D-04  0.00D+00 EMaxC= 1.00D+00 BMatC= 1.37D-05 BMatP= 2.13D-05
 IDIUse=1 WtCom= 1.00D+00 WtEn= 0.00D+00
 Coeff-Com: -0.825D-02 0.109D-01-0.200D-02-0.524D-01-0.590D-01 0.306D+00
 Coeff-Com:  0.269D+00 0.735D-02-0.209D+01 0.232D+00 0.239D+01
 Coeff:     -0.825D-02 0.109D-01-0.200D-02-0.524D-01-0.590D-01 0.306D+00
 Coeff:      0.269D+00 0.735D-02-0.209D+01 0.232D+00 0.239D+01
 Gap=     0.275 Goal=   None    Shift=    0.500
 Gap=     0.158 Goal=   None    Shift=    0.500
 RMSDP=1.25D-05 MaxDP=8.53D-04 DE=-4.03D-05 OVMax= 3.43D-03

 Cycle  12  Pass 1  IDiag  1:
 E= -1130.25380417857     Delta-E=       -0.000026971816 Rises=F Damp=F
 DIIS: error= 5.01D-04 at cycle  12 NSaved=  12.
 NSaved=12 IEnMin=12 EnMin= -1130.25380417857     IErMin=12 ErrMin= 5.01D-04
 ErrMax= 5.01D-04  0.00D+00 EMaxC= 1.00D+00 BMatC= 9.70D-06 BMatP= 1.37D-05
 IDIUse=1 WtCom= 1.00D+00 WtEn= 0.00D+00
 Coeff-Com: -0.208D-02-0.344D-02 0.112D-01-0.220D-01-0.116D+00 0.927D-01
 Coeff-Com:  0.421D+00 0.298D+00-0.128D+01-0.897D+00 0.990D+00 0.151D+01
 Coeff:     -0.208D-02-0.344D-02 0.112D-01-0.220D-01-0.116D+00 0.927D-01
 Coeff:      0.421D+00 0.298D+00-0.128D+01-0.897D+00 0.990D+00 0.151D+01
 Gap=     0.275 Goal=   None    Shift=    0.500
 Gap=     0.158 Goal=   None    Shift=    0.500
 RMSDP=8.53D-06 MaxDP=5.24D-04 DE=-2.70D-05 OVMax= 2.75D-03

 Cycle  13  Pass 1  IDiag  1:
 E= -1130.25382062952     Delta-E=       -0.000016450953 Rises=F Damp=F
 DIIS: error= 4.09D-04 at cycle  13 NSaved=  13.
 NSaved=13 IEnMin=13 EnMin= -1130.25382062952     IErMin=13 ErrMin= 4.09D-04
 ErrMax= 4.09D-04  0.00D+00 EMaxC= 1.00D+00 BMatC= 6.29D-06 BMatP= 9.70D-06
 IDIUse=1 WtCom= 1.00D+00 WtEn= 0.00D+00
 Coeff-Com:  0.594D-02-0.150D-01 0.147D-01 0.205D-01-0.670D-01-0.139D+00
 Coeff-Com:  0.144D+00 0.247D+00 0.560D+00-0.110D+01-0.753D+00-0.434D+00
 Coeff-Com:  0.252D+01
 Coeff:      0.594D-02-0.150D-01 0.147D-01 0.205D-01-0.670D-01-0.139D+00
 Coeff:      0.144D+00 0.247D+00 0.560D+00-0.110D+01-0.753D+00-0.434D+00
 Coeff:      0.252D+01
 Gap=     0.275 Goal=   None    Shift=    0.500
 Gap=     0.158 Goal=   None    Shift=    0.500
 RMSDP=8.25D-06 MaxDP=5.25D-04 DE=-1.65D-05 OVMax= 2.33D-03

 Cycle  14  Pass 1  IDiag  1:
 E= -1130.25383164570     Delta-E=       -0.000011016181 Rises=F Damp=F
 DIIS: error= 3.41D-04 at cycle  14 NSaved=  14.
 NSaved=14 IEnMin=14 EnMin= -1130.25383164570     IErMin=14 ErrMin= 3.41D-04
 ErrMax= 3.41D-04  0.00D+00 EMaxC= 1.00D+00 BMatC= 5.00D-06 BMatP= 6.29D-06
 IDIUse=1 WtCom= 1.00D+00 WtEn= 0.00D+00
 Coeff-Com:  0.376D-02-0.501D-02 0.612D-03 0.148D-01 0.385D-01-0.647D-01
 Coeff-Com: -0.230D+00-0.932D-01 0.100D+01 0.203D+00-0.806D+00-0.266D+01
 Coeff-Com:  0.174D+01 0.186D+01
 Coeff:      0.376D-02-0.501D-02 0.612D-03 0.148D-01 0.385D-01-0.647D-01
 Coeff:     -0.230D+00-0.932D-01 0.100D+01 0.203D+00-0.806D+00-0.266D+01
 Coeff:      0.174D+01 0.186D+01
 Gap=     0.275 Goal=   None    Shift=    0.500
 Gap=     0.158 Goal=   None    Shift=    0.500
 RMSDP=6.57D-06 MaxDP=3.69D-04 DE=-1.10D-05 OVMax= 1.93D-03

 Cycle  15  Pass 1  IDiag  1:
 E= -1130.25383923502     Delta-E=       -0.000007589313 Rises=F Damp=F
 DIIS: error= 2.81D-04 at cycle  15 NSaved=  15.
 NSaved=15 IEnMin=15 EnMin= -1130.25383923502     IErMin=15 ErrMin= 2.81D-04
 ErrMax= 2.81D-04  0.00D+00 EMaxC= 1.00D+00 BMatC= 3.57D-06 BMatP= 5.00D-06
 IDIUse=1 WtCom= 1.00D+00 WtEn= 0.00D+00
 Coeff-Com:  0.742D-03 0.121D-02-0.439D-02-0.411D-03 0.523D-01 0.255D-01
 Coeff-Com: -0.241D+00-0.156D+00 0.476D+00 0.699D+00-0.259D+00-0.245D+01
 Coeff-Com:  0.945D+00 0.421D+00 0.149D+01
 Coeff:      0.742D-03 0.121D-02-0.439D-02-0.411D-03 0.523D-01 0.255D-01
 Coeff:     -0.241D+00-0.156D+00 0.476D+00 0.699D+00-0.259D+00-0.245D+01
 Coeff:      0.945D+00 0.421D+00 0.149D+01
 Gap=     0.275 Goal=   None    Shift=    0.500
 Gap=     0.158 Goal=   None    Shift=    0.500
 RMSDP=4.72D-06 MaxDP=2.67D-04 DE=-7.59D-06 OVMax= 1.57D-03

 Cycle  16  Pass 1  IDiag  1:
 E= -1130.25384433054     Delta-E=       -0.000005095530 Rises=F Damp=F
 DIIS: error= 2.27D-04 at cycle  16 NSaved=  16.
 NSaved=16 IEnMin=16 EnMin= -1130.25384433054     IErMin=16 ErrMin= 2.27D-04
 ErrMax= 2.27D-04  0.00D+00 EMaxC= 1.00D+00 BMatC= 2.36D-06 BMatP= 3.57D-06
 IDIUse=1 WtCom= 1.00D+00 WtEn= 0.00D+00
 Coeff-Com: -0.257D-02 0.388D-02-0.156D-02-0.168D-01-0.893D-02 0.871D-01
 Coeff-Com:  0.651D-01 0.654D-02-0.721D+00 0.372D+00 0.697D+00 0.295D+00
 Coeff-Com: -0.348D+00-0.202D+01-0.637D+00 0.323D+01
 Coeff:     -0.257D-02 0.388D-02-0.156D-02-0.168D-01-0.893D-02 0.871D-01
 Coeff:      0.651D-01 0.654D-02-0.721D+00 0.372D+00 0.697D+00 0.295D+00
 Coeff:     -0.348D+00-0.202D+01-0.637D+00 0.323D+01
 Gap=     0.275 Goal=   None    Shift=    0.500
 Gap=     0.158 Goal=   None    Shift=    0.500
 RMSDP=4.94D-06 MaxDP=2.67D-04 DE=-5.10D-06 OVMax= 1.47D-03

 Cycle  17  Pass 1  IDiag  1:
 E= -1130.25384816538     Delta-E=       -0.000003834831 Rises=F Damp=F
 DIIS: error= 1.84D-04 at cycle  17 NSaved=  17.
 NSaved=17 IEnMin=17 EnMin= -1130.25384816538     IErMin=17 ErrMin= 1.84D-04
 ErrMax= 1.84D-04  0.00D+00 EMaxC= 1.00D+00 BMatC= 1.89D-06 BMatP= 2.36D-06
 IDIUse=1 WtCom= 1.00D+00 WtEn= 0.00D+00
 Coeff-Com: -0.196D-02 0.161D-02 0.145D-02-0.143D-01-0.273D-01 0.561D-01
 Coeff-Com:  0.157D+00 0.528D-01-0.734D+00 0.427D-01 0.638D+00 0.927D+00
 Coeff-Com: -0.303D+00-0.202D+01-0.132D+01 0.266D+01 0.888D+00
 Coeff:     -0.196D-02 0.161D-02 0.145D-02-0.143D-01-0.273D-01 0.561D-01
 Coeff:      0.157D+00 0.528D-01-0.734D+00 0.427D-01 0.638D+00 0.927D+00
 Coeff:     -0.303D+00-0.202D+01-0.132D+01 0.266D+01 0.888D+00
 Gap=     0.275 Goal=   None    Shift=    0.500
 Gap=     0.158 Goal=   None    Shift=    0.500
 RMSDP=3.34D-06 MaxDP=1.96D-04 DE=-3.83D-06 OVMax= 1.21D-03

 Cycle  18  Pass 1  IDiag  1:
 E= -1130.25385079610     Delta-E=       -0.000002630726 Rises=F Damp=F
 DIIS: error= 1.48D-04 at cycle  18 NSaved=  18.
 NSaved=18 IEnMin=18 EnMin= -1130.25385079610     IErMin=18 ErrMin= 1.48D-04
 ErrMax= 1.48D-04  0.00D+00 EMaxC= 1.00D+00 BMatC= 1.26D-06 BMatP= 1.89D-06
 IDIUse=1 WtCom= 1.00D+00 WtEn= 0.00D+00
 Coeff-Com:  0.143D-02-0.359D-02 0.359D-02 0.789D-02-0.173D-01-0.656D-01
 Coeff-Com:  0.893D-01 0.795D-02 0.297D+00-0.480D+00-0.243D+00 0.523D-01
 Coeff-Com:  0.697D+00 0.725D+00-0.104D+01-0.643D+00-0.296D+01 0.457D+01
 Coeff:      0.143D-02-0.359D-02 0.359D-02 0.789D-02-0.173D-01-0.656D-01
 Coeff:      0.893D-01 0.795D-02 0.297D+00-0.480D+00-0.243D+00 0.523D-01
 Coeff:      0.697D+00 0.725D+00-0.104D+01-0.643D+00-0.296D+01 0.457D+01
 Gap=     0.275 Goal=   None    Shift=    0.500
 Gap=     0.158 Goal=   None    Shift=    0.500
 RMSDP=3.90D-06 MaxDP=2.41D-04 DE=-2.63D-06 OVMax= 1.19D-03

 Cycle  19  Pass 1  IDiag  1:
 E= -1130.25385283670     Delta-E=       -0.000002040602 Rises=F Damp=F
 DIIS: error= 1.20D-04 at cycle  19 NSaved=  19.
 NSaved=19 IEnMin=19 EnMin= -1130.25385283670     IErMin=19 ErrMin= 1.20D-04
 ErrMax= 1.20D-04  0.00D+00 EMaxC= 1.00D+00 BMatC= 1.21D-06 BMatP= 1.26D-06
 IDIUse=1 WtCom= 1.00D+00 WtEn= 0.00D+00
 Coeff-Com:  0.122D-02-0.258D-02 0.202D-02 0.612D-02-0.522D-02-0.388D-01
 Coeff-Com:  0.999D-02-0.243D-01 0.363D+00-0.260D+00-0.259D+00-0.603D+00
 Coeff-Com:  0.959D+00 0.828D+00-0.399D+00-0.534D+00-0.358D+01 0.330D+01
 Coeff-Com:  0.124D+01
 Coeff:      0.122D-02-0.258D-02 0.202D-02 0.612D-02-0.522D-02-0.388D-01
 Coeff:      0.999D-02-0.243D-01 0.363D+00-0.260D+00-0.259D+00-0.603D+00
 Coeff:      0.959D+00 0.828D+00-0.399D+00-0.534D+00-0.358D+01 0.330D+01
 Coeff:      0.124D+01
 Gap=     0.275 Goal=   None    Shift=    0.500
 Gap=     0.158 Goal=   None    Shift=    0.500
 RMSDP=2.57D-06 MaxDP=1.42D-04 DE=-2.04D-06 OVMax= 9.68D-04

 Cycle  20  Pass 1  IDiag  1:
 E= -1130.25385418739     Delta-E=       -0.000001350688 Rises=F Damp=F
 DIIS: error= 9.50D-05 at cycle  20 NSaved=  20.
 NSaved=20 IEnMin=20 EnMin= -1130.25385418739     IErMin=20 ErrMin= 9.50D-05
 ErrMax= 9.50D-05  0.00D+00 EMaxC= 1.00D+00 BMatC= 8.89D-07 BMatP= 1.21D-06
 IDIUse=1 WtCom= 1.00D+00 WtEn= 0.00D+00
 Coeff-Com:  0.173D-04 0.101D-03-0.354D-03-0.511D-03 0.164D-02 0.190D-01
 Coeff-Com: -0.448D-01-0.109D-01 0.507D-01 0.138D+00-0.292D-01-0.679D+00
 Coeff-Com:  0.533D+00 0.918D-01 0.175D+00 0.475D+00-0.177D+01 0.761D+00
 Coeff-Com: -0.193D+01 0.322D+01
 Coeff:      0.173D-04 0.101D-03-0.354D-03-0.511D-03 0.164D-02 0.190D-01
 Coeff:     -0.448D-01-0.109D-01 0.507D-01 0.138D+00-0.292D-01-0.679D+00
 Coeff:      0.533D+00 0.918D-01 0.175D+00 0.475D+00-0.177D+01 0.761D+00
 Coeff:     -0.193D+01 0.322D+01
 Gap=     0.275 Goal=   None    Shift=    0.500
 Gap=     0.158 Goal=   None    Shift=    0.500
 RMSDP=2.24D-06 MaxDP=1.00D-04 DE=-1.35D-06 OVMax= 8.43D-04

 Cycle  21  Pass 1  IDiag  1:
 E= -1130.25385509739     Delta-E=       -0.000000909998 Rises=F Damp=F
 DIIS: error= 7.81D-05 at cycle  21 NSaved=  20.
 NSaved=20 IEnMin=20 EnMin= -1130.25385509739     IErMin=20 ErrMin= 7.81D-05
 ErrMax= 7.81D-05  0.00D+00 EMaxC= 1.00D+00 BMatC= 6.72D-07 BMatP= 8.89D-07
 IDIUse=1 WtCom= 1.00D+00 WtEn= 0.00D+00
 Coeff-Com: -0.166D-03 0.259D-03-0.173D-02-0.364D-02 0.109D-01 0.969D-02
 Coeff-Com:  0.239D-01-0.146D+00 0.960D-01 0.848D-01 0.503D-02 0.701D-02
 Coeff-Com: -0.361D+00-0.163D+00 0.858D+00-0.134D+00 0.499D+00-0.339D+01
 Coeff-Com:  0.149D+01 0.212D+01
 Coeff:     -0.166D-03 0.259D-03-0.173D-02-0.364D-02 0.109D-01 0.969D-02
 Coeff:      0.239D-01-0.146D+00 0.960D-01 0.848D-01 0.503D-02 0.701D-02
 Coeff:     -0.361D+00-0.163D+00 0.858D+00-0.134D+00 0.499D+00-0.339D+01
 Coeff:      0.149D+01 0.212D+01
 Gap=     0.275 Goal=   None    Shift=    0.500
 Gap=     0.158 Goal=   None    Shift=    0.500
 RMSDP=1.72D-06 MaxDP=8.25D-05 DE=-9.10D-07 OVMax= 7.04D-04

 Cycle  22  Pass 1  IDiag  1:
 E= -1130.25385568555     Delta-E=       -0.000000588159 Rises=F Damp=F
 DIIS: error= 6.33D-05 at cycle  22 NSaved=  20.
 NSaved=20 IEnMin=20 EnMin= -1130.25385568555     IErMin=20 ErrMin= 6.33D-05
 ErrMax= 6.33D-05  0.00D+00 EMaxC= 1.00D+00 BMatC= 4.80D-07 BMatP= 6.72D-07
 IDIUse=1 WtCom= 1.00D+00 WtEn= 0.00D+00
 Coeff-Com: -0.103D-03-0.216D-02-0.111D-02-0.386D-02 0.393D-01-0.881D-02
 Coeff-Com: -0.725D-01-0.412D-01 0.806D-01 0.172D+00-0.217D-01-0.146D+00
 Coeff-Com: -0.424D+00 0.434D+00-0.253D+00 0.122D+01-0.140D+01-0.778D+00
 Coeff-Com: -0.297D+00 0.250D+01
 Coeff:     -0.103D-03-0.216D-02-0.111D-02-0.386D-02 0.393D-01-0.881D-02
 Coeff:     -0.725D-01-0.412D-01 0.806D-01 0.172D+00-0.217D-01-0.146D+00
 Coeff:     -0.424D+00 0.434D+00-0.253D+00 0.122D+01-0.140D+01-0.778D+00
 Coeff:     -0.297D+00 0.250D+01
 Gap=     0.275 Goal=   None    Shift=    0.500
 Gap=     0.158 Goal=   None    Shift=    0.500
 RMSDP=1.27D-06 MaxDP=5.52D-05 DE=-5.88D-07 OVMax= 5.64D-04

 Cycle  23  Pass 1  IDiag  1:
 E= -1130.25385605129     Delta-E=       -0.000000365742 Rises=F Damp=F
 DIIS: error= 5.06D-05 at cycle  23 NSaved=  20.
 NSaved=20 IEnMin=20 EnMin= -1130.25385605129     IErMin=20 ErrMin= 5.06D-05
 ErrMax= 5.06D-05  0.00D+00 EMaxC= 1.00D+00 BMatC= 3.19D-07 BMatP= 4.80D-07
 IDIUse=1 WtCom= 1.00D+00 WtEn= 0.00D+00
 Coeff-Com:  0.511D-03-0.126D-02-0.116D-01 0.271D-01-0.239D-01 0.632D-01
 Coeff-Com: -0.114D+00 0.966D-03-0.398D-01 0.225D+00 0.135D+00-0.281D+00
 Coeff-Com: -0.672D-01-0.849D+00 0.125D+01 0.805D+00-0.123D+01-0.177D+01
 Coeff-Com:  0.746D+00 0.214D+01
 Coeff:      0.511D-03-0.126D-02-0.116D-01 0.271D-01-0.239D-01 0.632D-01
 Coeff:     -0.114D+00 0.966D-03-0.398D-01 0.225D+00 0.135D+00-0.281D+00
 Coeff:     -0.672D-01-0.849D+00 0.125D+01 0.805D+00-0.123D+01-0.177D+01
 Coeff:      0.746D+00 0.214D+01
 Gap=     0.275 Goal=   None    Shift=    0.500
 Gap=     0.158 Goal=   None    Shift=    0.500
 RMSDP=9.53D-07 MaxDP=3.27D-05 DE=-3.66D-07 OVMax= 4.51D-04

 SCF Done:  E(ULC-wHPBE) =  -1130.25385605     A.U. after   23 cycles
            NFock= 23  Conv=0.95D-06     -V/T= 2.0044
 <Sx>= 0.0000 <Sy>= 0.0000 <Sz>= 0.5000 <S**2>= 0.7671 S= 0.5085
 <L.S>= 0.000000000000E+00
 KE= 1.125247952112D+03 PE=-6.981792866267D+03 EE= 2.539515134944D+03
 Annihilation of the first spin contaminant:
 S**2 before annihilation     0.7671,   after     0.7503
 Leave Link  502 at Sun Jan 17 21:40:26 2021, MaxMem=  4026531840 cpu:           10715.3 elap:            1342.9
 (Enter /opt/ohpc/pub/libs/gaussian/g16-A.03/sandybridge/g16/l508.exe)
 QCSCF skips out because SCF is already converged.
 Leave Link  508 at Sun Jan 17 21:40:26 2021, MaxMem=  4026531840 cpu:               0.1 elap:               0.0
 (Enter /opt/ohpc/pub/libs/gaussian/g16-A.03/sandybridge/g16/l601.exe)
 Copying SCF densities to generalized density rwf, IOpCl= 1 IROHF=0.

 **********************************************************************

            Population analysis using the SCF density.

 **********************************************************************

 Orbital symmetries:
 Alpha Orbitals:
       Occupied  (A) (A) (A) (A) (A) (A) (A) (A) (A) (A) (A) (A)
                 (A) (A) (A) (A) (A) (A) (A) (A) (A) (A) (A) (A)
                 (A) (A) (A) (A) (A) (A) (A) (A) (A) (A) (A) (A)
                 (A) (A) (A) (A) (A) (A) (A) (A) (A) (A) (A) (A)
                 (A) (A) (A) (A) (A) (A) (A) (A) (A) (A) (A) (A)
                 (A) (A) (A) (A) (A) (A) (A) (A) (A) (A) (A) (A)
                 (A) (A) (A) (A) (A) (A) (A) (A) (A) (A) (A) (A)
                 (A) (A) (A) (A) (A) (A) (A) (A) (A)
       Virtual   (A) (A) (A) (A) (A) (A) (A) (A) (A) (A) (A) (A)
                 (A) (A) (A) (A) (A) (A) (A) (A) (A) (A) (A) (A)
                 (A) (A) (A) (A) (A) (A) (A) (A) (A) (A) (A) (A)
                 (A) (A) (A) (A) (A) (A) (A) (A) (A) (A) (A) (A)
                 (A) (A) (A) (A) (A) (A) (A) (A) (A) (A) (A) (A)
                 (A) (A) (A) (A) (A) (A) (A) (A) (A) (A) (A) (A)
                 (A) (A) (A) (A) (A) (A) (A) (A) (A) (A) (A) (A)
                 (A) (A) (A) (A) (A) (A) (A) (A) (A) (A) (A) (A)
                 (A) (A) (A) (A) (A) (A) (A) (A) (A) (A) (A) (A)
                 (A) (A) (A) (A) (A) (A) (A) (A) (A) (A) (A) (A)
                 (A) (A) (A) (A) (A) (A) (A) (A) (A) (A) (A) (A)
                 (A) (A) (A) (A) (A) (A) (A) (A) (A) (A) (A) (A)
                 (A) (A) (A) (A) (A) (A) (A) (A) (A) (A) (A) (A)
                 (A) (A) (A) (A) (A) (A) (A) (A) (A) (A) (A) (A)
                 (A) (A) (A) (A) (A) (A) (A) (A) (A) (A) (A) (A)
                 (A) (A) (A) (A) (A) (A) (A) (A) (A) (A) (A) (A)
                 (A) (A) (A) (A) (A) (A) (A) (A) (A) (A) (A) (A)
                 (A) (A) (A) (A) (A) (A) (A) (A) (A) (A) (A) (A)
                 (A) (A) (A) (A) (A) (A) (A) (A) (A) (A) (A) (A)
                 (A) (A) (A) (A) (A) (A) (A) (A) (A) (A) (A) (A)
                 (A) (A) (A) (A) (A) (A) (A) (A) (A) (A) (A) (A)
                 (A) (A) (A) (A) (A) (A) (A) (A) (A) (A) (A) (A)
                 (A) (A) (A) (A) (A) (A) (A) (A) (A) (A) (A) (A)
                 (A) (A) (A) (A) (A) (A) (A) (A) (A) (A) (A) (A)
                 (A) (A) (A) (A) (A) (A) (A) (A) (A) (A) (A) (A)
                 (A) (A) (A) (A) (A) (A) (A) (A) (A) (A) (A) (A)
                 (A) (A) (A) (A) (A) (A) (A) (A) (A) (A) (A) (A)
                 (A) (A) (A) (A) (A) (A) (A) (A) (A) (A) (A) (A)
                 (A) (A) (A) (A) (A) (A) (A) (A) (A) (A) (A) (A)
                 (A) (A) (A) (A) (A) (A) (A) (A) (A) (A) (A) (A)
                 (A) (A) (A) (A) (A) (A) (A) (A) (A) (A) (A) (A)
                 (A) (A) (A) (A) (A) (A) (A) (A) (A) (A) (A) (A)
                 (A) (A) (A) (A) (A) (A) (A) (A) (A) (A) (A) (A)
                 (A) (A) (A) (A) (A) (A) (A) (A) (A) (A) (A) (A)
                 (A) (A) (A) (A) (A) (A) (A) (A) (A) (A) (A) (A)
                 (A) (A) (A) (A) (A) (A) (A) (A) (A) (A) (A) (A)
                 (A) (A) (A) (A) (A) (A) (A) (A) (A) (A) (A) (A)
                 (A) (A) (A) (A) (A) (A) (A) (A) (A) (A) (A) (A)
                 (A) (A) (A) (A) (A) (A) (A) (A) (A) (A) (A) (A)
                 (A) (A) (A) (A) (A) (A) (A) (A) (A) (A) (A) (A)
                 (A) (A) (A) (A) (A) (A) (A) (A) (A) (A) (A) (A)
                 (A) (A) (A) (A) (A) (A) (A) (A) (A) (A) (A) (A)
                 (A) (A) (A) (A) (A) (A) (A) (A) (A) (A) (A) (A)
                 (A) (A) (A) (A) (A) (A) (A) (A) (A) (A) (A) (A)
                 (A) (A) (A) (A) (A) (A)
 Beta  Orbitals:
       Occupied  (A) (A) (A) (A) (A) (A) (A) (A) (A) (A) (A) (A)
                 (A) (A) (A) (A) (A) (A) (A) (A) (A) (A) (A) (A)
                 (A) (A) (A) (A) (A) (A) (A) (A) (A) (A) (A) (A)
                 (A) (A) (A) (A) (A) (A) (A) (A) (A) (A) (A) (A)
                 (A) (A) (A) (A) (A) (A) (A) (A) (A) (A) (A) (A)
                 (A) (A) (A) (A) (A) (A) (A) (A) (A) (A) (A) (A)
                 (A) (A) (A) (A) (A) (A) (A) (A) (A) (A) (A) (A)
                 (A) (A) (A) (A) (A) (A) (A) (A)
       Virtual   (A) (A) (A) (A) (A) (A) (A) (A) (A) (A) (A) (A)
                 (A) (A) (A) (A) (A) (A) (A) (A) (A) (A) (A) (A)
                 (A) (A) (A) (A) (A) (A) (A) (A) (A) (A) (A) (A)
                 (A) (A) (A) (A) (A) (A) (A) (A) (A) (A) (A) (A)
                 (A) (A) (A) (A) (A) (A) (A) (A) (A) (A) (A) (A)
                 (A) (A) (A) (A) (A) (A) (A) (A) (A) (A) (A) (A)
                 (A) (A) (A) (A) (A) (A) (A) (A) (A) (A) (A) (A)
                 (A) (A) (A) (A) (A) (A) (A) (A) (A) (A) (A) (A)
                 (A) (A) (A) (A) (A) (A) (A) (A) (A) (A) (A) (A)
                 (A) (A) (A) (A) (A) (A) (A) (A) (A) (A) (A) (A)
                 (A) (A) (A) (A) (A) (A) (A) (A) (A) (A) (A) (A)
                 (A) (A) (A) (A) (A) (A) (A) (A) (A) (A) (A) (A)
                 (A) (A) (A) (A) (A) (A) (A) (A) (A) (A) (A) (A)
                 (A) (A) (A) (A) (A) (A) (A) (A) (A) (A) (A) (A)
                 (A) (A) (A) (A) (A) (A) (A) (A) (A) (A) (A) (A)
                 (A) (A) (A) (A) (A) (A) (A) (A) (A) (A) (A) (A)
                 (A) (A) (A) (A) (A) (A) (A) (A) (A) (A) (A) (A)
                 (A) (A) (A) (A) (A) (A) (A) (A) (A) (A) (A) (A)
                 (A) (A) (A) (A) (A) (A) (A) (A) (A) (A) (A) (A)
                 (A) (A) (A) (A) (A) (A) (A) (A) (A) (A) (A) (A)
                 (A) (A) (A) (A) (A) (A) (A) (A) (A) (A) (A) (A)
                 (A) (A) (A) (A) (A) (A) (A) (A) (A) (A) (A) (A)
                 (A) (A) (A) (A) (A) (A) (A) (A) (A) (A) (A) (A)
                 (A) (A) (A) (A) (A) (A) (A) (A) (A) (A) (A) (A)
                 (A) (A) (A) (A) (A) (A) (A) (A) (A) (A) (A) (A)
                 (A) (A) (A) (A) (A) (A) (A) (A) (A) (A) (A) (A)
                 (A) (A) (A) (A) (A) (A) (A) (A) (A) (A) (A) (A)
                 (A) (A) (A) (A) (A) (A) (A) (A) (A) (A) (A) (A)
                 (A) (A) (A) (A) (A) (A) (A) (A) (A) (A) (A) (A)
                 (A) (A) (A) (A) (A) (A) (A) (A) (A) (A) (A) (A)
                 (A) (A) (A) (A) (A) (A) (A) (A) (A) (A) (A) (A)
                 (A) (A) (A) (A) (A) (A) (A) (A) (A) (A) (A) (A)
                 (A) (A) (A) (A) (A) (A) (A) (A) (A) (A) (A) (A)
                 (A) (A) (A) (A) (A) (A) (A) (A) (A) (A) (A) (A)
                 (A) (A) (A) (A) (A) (A) (A) (A) (A) (A) (A) (A)
                 (A) (A) (A) (A) (A) (A) (A) (A) (A) (A) (A) (A)
                 (A) (A) (A) (A) (A) (A) (A) (A) (A) (A) (A) (A)
                 (A) (A) (A) (A) (A) (A) (A) (A) (A) (A) (A) (A)
                 (A) (A) (A) (A) (A) (A) (A) (A) (A) (A) (A) (A)
                 (A) (A) (A) (A) (A) (A) (A) (A) (A) (A) (A) (A)
                 (A) (A) (A) (A) (A) (A) (A) (A) (A) (A) (A) (A)
                 (A) (A) (A) (A) (A) (A) (A) (A) (A) (A) (A) (A)
                 (A) (A) (A) (A) (A) (A) (A) (A) (A) (A) (A) (A)
                 (A) (A) (A) (A) (A) (A) (A) (A) (A) (A) (A) (A)
                 (A) (A) (A) (A) (A) (A) (A)
 The electronic state is 2-A.
 Alpha  occ. eigenvalues --  -19.00878 -18.99878 -14.31811 -10.18594 -10.17838
 Alpha  occ. eigenvalues --  -10.17583 -10.17408 -10.16945 -10.13439 -10.13200
 Alpha  occ. eigenvalues --  -10.13171 -10.12846 -10.12840 -10.12406 -10.12299
 Alpha  occ. eigenvalues --  -10.12258 -10.12129 -10.12100 -10.11746 -10.11638
 Alpha  occ. eigenvalues --  -10.11636 -10.09983 -10.08467 -10.08464 -10.07829
 Alpha  occ. eigenvalues --  -10.07789 -10.07770  -1.20456  -1.19664  -1.16424
 Alpha  occ. eigenvalues --   -1.03258  -1.02933  -1.01148  -0.98488  -0.94207
 Alpha  occ. eigenvalues --   -0.93465  -0.92276  -0.91551  -0.91315  -0.89561
 Alpha  occ. eigenvalues --   -0.87382  -0.86606  -0.81889  -0.81681  -0.79867
 Alpha  occ. eigenvalues --   -0.78658  -0.77828  -0.76714  -0.74092  -0.73543
 Alpha  occ. eigenvalues --   -0.73201  -0.72606  -0.72189  -0.68166  -0.67764
 Alpha  occ. eigenvalues --   -0.67169  -0.66877  -0.64599  -0.64439  -0.63352
 Alpha  occ. eigenvalues --   -0.62478  -0.61171  -0.61006  -0.60653  -0.60243
 Alpha  occ. eigenvalues --   -0.59884  -0.59590  -0.59315  -0.58998  -0.58490
 Alpha  occ. eigenvalues --   -0.58083  -0.56860  -0.55998  -0.55708  -0.55583
 Alpha  occ. eigenvalues --   -0.54535  -0.54250  -0.53328  -0.52846  -0.52538
 Alpha  occ. eigenvalues --   -0.52202  -0.51925  -0.50087  -0.48891  -0.48250
 Alpha  occ. eigenvalues --   -0.46467  -0.45584  -0.44893  -0.44140  -0.41638
 Alpha  occ. eigenvalues --   -0.40903  -0.40852  -0.38642
 Alpha virt. eigenvalues --   -0.11166  -0.10563  -0.10041  -0.08629  -0.07673
 Alpha virt. eigenvalues --   -0.06556  -0.05186  -0.03599  -0.01744  -0.01438
 Alpha virt. eigenvalues --   -0.00813   0.00348   0.00847   0.02105   0.02366
 Alpha virt. eigenvalues --    0.02809   0.03243   0.03596   0.04784   0.04956
 Alpha virt. eigenvalues --    0.05441   0.05702   0.05889   0.06442   0.07124
 Alpha virt. eigenvalues --    0.07595   0.07794   0.08204   0.08561   0.09785
 Alpha virt. eigenvalues --    0.09947   0.10246   0.10725   0.10904   0.11096
 Alpha virt. eigenvalues --    0.11611   0.12927   0.13448   0.13843   0.14066
 Alpha virt. eigenvalues --    0.14287   0.15190   0.15326   0.15448   0.15928
 Alpha virt. eigenvalues --    0.16540   0.16710   0.16973   0.17363   0.17904
 Alpha virt. eigenvalues --    0.17978   0.18352   0.18632   0.19038   0.19623
 Alpha virt. eigenvalues --    0.20076   0.20207   0.20283   0.21326   0.21377
 Alpha virt. eigenvalues --    0.21600   0.21853   0.22177   0.22388   0.22737
 Alpha virt. eigenvalues --    0.22925   0.23400   0.23920   0.24117   0.24813
 Alpha virt. eigenvalues --    0.25043   0.25612   0.26004   0.26356   0.26647
 Alpha virt. eigenvalues --    0.27121   0.27498   0.28052   0.28439   0.29085
 Alpha virt. eigenvalues --    0.29459   0.29529   0.29878   0.30262   0.30307
 Alpha virt. eigenvalues --    0.30505   0.31242   0.31643   0.31866   0.32179
 Alpha virt. eigenvalues --    0.32398   0.33089   0.33307   0.33370   0.33719
 Alpha virt. eigenvalues --    0.33866   0.34463   0.34956   0.35076   0.36131
 Alpha virt. eigenvalues --    0.36298   0.36444   0.36865   0.37301   0.37419
 Alpha virt. eigenvalues --    0.37814   0.38320   0.38407   0.38877   0.39119
 Alpha virt. eigenvalues --    0.39489   0.39816   0.40516   0.40558   0.41021
 Alpha virt. eigenvalues --    0.41094   0.41655   0.41675   0.41947   0.42539
 Alpha virt. eigenvalues --    0.42858   0.43272   0.44138   0.44462   0.45026
 Alpha virt. eigenvalues --    0.45140   0.45643   0.45958   0.46264   0.47021
 Alpha virt. eigenvalues --    0.47291   0.47561   0.48393   0.48516   0.48744
 Alpha virt. eigenvalues --    0.49101   0.49791   0.50880   0.51126   0.51537
 Alpha virt. eigenvalues --    0.51719   0.52528   0.53079   0.53426   0.54399
 Alpha virt. eigenvalues --    0.55996   0.56258   0.57255   0.57868   0.58430
 Alpha virt. eigenvalues --    0.59011   0.59216   0.60854   0.61154   0.61286
 Alpha virt. eigenvalues --    0.61777   0.62596   0.62773   0.63186   0.63319
 Alpha virt. eigenvalues --    0.64385   0.64791   0.65149   0.65640   0.66144
 Alpha virt. eigenvalues --    0.66457   0.66674   0.68255   0.68740   0.68967
 Alpha virt. eigenvalues --    0.69633   0.71446   0.72225   0.73012   0.73541
 Alpha virt. eigenvalues --    0.74561   0.75650   0.76694   0.77241   0.78382
 Alpha virt. eigenvalues --    0.78912   0.79958   0.81104   0.83652   0.84771
 Alpha virt. eigenvalues --    0.86100   0.86408   0.87757   1.03957   1.06478
 Alpha virt. eigenvalues --    1.07697   1.12614   1.12761   1.13796   1.14293
 Alpha virt. eigenvalues --    1.15003   1.15399   1.15845   1.15881   1.16140
 Alpha virt. eigenvalues --    1.16830   1.17764   1.18134   1.18612   1.18966
 Alpha virt. eigenvalues --    1.19755   1.20057   1.20463   1.20941   1.21299
 Alpha virt. eigenvalues --    1.21875   1.22375   1.22523   1.23104   1.23303
 Alpha virt. eigenvalues --    1.23802   1.24119   1.24644   1.25070   1.25613
 Alpha virt. eigenvalues --    1.26162   1.26528   1.26788   1.27023   1.27905
 Alpha virt. eigenvalues --    1.28615   1.29534   1.30161   1.32152   1.32214
 Alpha virt. eigenvalues --    1.32726   1.32951   1.33539   1.33711   1.34204
 Alpha virt. eigenvalues --    1.34806   1.35208   1.35490   1.35695   1.36146
 Alpha virt. eigenvalues --    1.36296   1.36529   1.37010   1.37281   1.37561
 Alpha virt. eigenvalues --    1.37908   1.38771   1.39010   1.39284   1.39360
 Alpha virt. eigenvalues --    1.40090   1.40241   1.40979   1.41317   1.41498
 Alpha virt. eigenvalues --    1.42399   1.42648   1.43171   1.43486   1.43750
 Alpha virt. eigenvalues --    1.43941   1.44067   1.44300   1.44513   1.44772
 Alpha virt. eigenvalues --    1.45660   1.45804   1.46191   1.46461   1.46994
 Alpha virt. eigenvalues --    1.47273   1.47613   1.47864   1.48483   1.48693
 Alpha virt. eigenvalues --    1.49808   1.49900   1.50645   1.51083   1.51733
 Alpha virt. eigenvalues --    1.52709   1.53578   1.54719   1.55710   1.56996
 Alpha virt. eigenvalues --    1.57472   1.58488   1.58879   1.60008   1.60745
 Alpha virt. eigenvalues --    1.62366   1.64206   1.65465   1.66019   1.66551
 Alpha virt. eigenvalues --    1.67251   1.67758   1.68354   1.69184   1.69781
 Alpha virt. eigenvalues --    1.70104   1.70333   1.70845   1.71177   1.71588
 Alpha virt. eigenvalues --    1.72202   1.72457   1.72709   1.73676   1.74364
 Alpha virt. eigenvalues --    1.74521   1.75283   1.76761   1.77006   1.78097
 Alpha virt. eigenvalues --    1.79030   1.79640   1.79832   1.80790   1.81360
 Alpha virt. eigenvalues --    1.81726   1.82053   1.82183   1.82450   1.82742
 Alpha virt. eigenvalues --    1.83145   1.83418   1.83517   1.83967   1.84825
 Alpha virt. eigenvalues --    1.85378   1.85905   1.87031   1.87140   1.87327
 Alpha virt. eigenvalues --    1.88674   1.88829   1.89811   1.90181   1.91450
 Alpha virt. eigenvalues --    1.91847   1.92405   1.92895   1.92984   1.93476
 Alpha virt. eigenvalues --    1.95266   1.95704   1.95886   1.97019   1.98354
 Alpha virt. eigenvalues --    2.00164   2.01930   2.03341   2.03596   2.06509
 Alpha virt. eigenvalues --    2.07677   2.08696   2.10567   2.11157   2.12058
 Alpha virt. eigenvalues --    2.12839   2.14039   2.14919   2.16152   2.17314
 Alpha virt. eigenvalues --    2.18429   2.18851   2.19393   2.20070   2.20261
 Alpha virt. eigenvalues --    2.20681   2.21086   2.21674   2.21722   2.22172
 Alpha virt. eigenvalues --    2.22328   2.23331   2.23588   2.24060   2.24796
 Alpha virt. eigenvalues --    2.25418   2.26002   2.26417   2.26969   2.27420
 Alpha virt. eigenvalues --    2.27772   2.27884   2.28048   2.28739   2.28856
 Alpha virt. eigenvalues --    2.30198   2.30367   2.30948   2.33647   2.34801
 Alpha virt. eigenvalues --    2.36006   2.37481   2.38762   2.41440   2.42493
 Alpha virt. eigenvalues --    2.43201   2.43549   2.44426   2.45728   2.46033
 Alpha virt. eigenvalues --    2.46972   2.47043   2.47891   2.49715   2.50027
 Alpha virt. eigenvalues --    2.50142   2.50494   2.51314   2.53356   2.53563
 Alpha virt. eigenvalues --    2.54061   2.54350   2.54975   2.55656   2.56811
 Alpha virt. eigenvalues --    2.58202   2.58294   2.58934   2.60080   2.61180
 Alpha virt. eigenvalues --    2.61870   2.62631   2.63530   2.64076   2.64306
 Alpha virt. eigenvalues --    2.65675   2.66400   2.67218   2.69515   2.71334
 Alpha virt. eigenvalues --    2.71390   2.73634   2.74336   2.74832   2.75424
 Alpha virt. eigenvalues --    2.76718   2.77803   2.81539   2.82486   2.82669
 Alpha virt. eigenvalues --    2.83714   2.85299   2.86832   2.88065   2.88850
 Alpha virt. eigenvalues --    2.89295   2.90504   2.91495   2.92368   2.92797
 Alpha virt. eigenvalues --    2.93692   2.94384   2.95219   2.96974   2.97049
 Alpha virt. eigenvalues --    2.97304   2.98390   2.99211   3.00441   3.01977
 Alpha virt. eigenvalues --    3.02317   3.03431   3.04969   3.05257   3.06220
 Alpha virt. eigenvalues --    3.06971   3.07760   3.08939   3.09995   3.10774
 Alpha virt. eigenvalues --    3.11267   3.12314   3.12800   3.13463   3.15066
 Alpha virt. eigenvalues --    3.16219   3.17466   3.18746   3.19838   3.22715
 Alpha virt. eigenvalues --    3.23441   3.25083   3.26622   3.28308   3.29242
 Alpha virt. eigenvalues --    3.29560   3.33192   3.33443   3.42350   3.43813
 Alpha virt. eigenvalues --    3.44862   3.45618   3.46185   3.47443   3.59599
 Alpha virt. eigenvalues --    3.70204   3.70822   3.78399   3.95155   3.95992
 Alpha virt. eigenvalues --    4.20592   4.21471  20.97754  21.10787  21.13271
 Alpha virt. eigenvalues --   21.21751  21.51680  21.56851  21.59298  21.61106
 Alpha virt. eigenvalues --   21.62468  21.63367  21.69391  21.74219  21.78225
 Alpha virt. eigenvalues --   21.83171  21.84213  21.84443  21.86476  21.88183
 Alpha virt. eigenvalues --   21.89792  21.91365  21.95960  21.99330  22.01798
 Alpha virt. eigenvalues --   22.04594  31.86079  43.11695  43.14109
  Beta  occ. eigenvalues --  -19.00788 -18.99895 -14.31018 -10.18482 -10.17898
  Beta  occ. eigenvalues --  -10.17647 -10.17431 -10.16948 -10.13338 -10.13106
  Beta  occ. eigenvalues --  -10.12989 -10.12709 -10.12703 -10.12425 -10.12184
  Beta  occ. eigenvalues --  -10.12123 -10.12069 -10.12007 -10.11770 -10.11692
  Beta  occ. eigenvalues --  -10.11688 -10.09998 -10.08434 -10.08431 -10.07819
  Beta  occ. eigenvalues --  -10.07802 -10.07759  -1.20294  -1.19694  -1.15409
  Beta  occ. eigenvalues --   -1.03042  -1.02738  -1.00882  -0.98384  -0.94000
  Beta  occ. eigenvalues --   -0.93253  -0.92160  -0.91398  -0.91155  -0.89243
  Beta  occ. eigenvalues --   -0.87347  -0.86366  -0.81644  -0.81489  -0.79670
  Beta  occ. eigenvalues --   -0.78485  -0.77706  -0.76584  -0.74003  -0.73438
  Beta  occ. eigenvalues --   -0.73111  -0.72482  -0.72008  -0.68047  -0.67565
  Beta  occ. eigenvalues --   -0.66760  -0.66710  -0.64399  -0.64318  -0.63243
  Beta  occ. eigenvalues --   -0.62376  -0.61042  -0.60882  -0.60584  -0.60104
  Beta  occ. eigenvalues --   -0.59685  -0.59272  -0.59132  -0.58844  -0.58416
  Beta  occ. eigenvalues --   -0.57501  -0.56614  -0.55931  -0.55578  -0.55461
  Beta  occ. eigenvalues --   -0.54180  -0.53989  -0.52856  -0.52736  -0.52321
  Beta  occ. eigenvalues --   -0.52120  -0.51843  -0.48970  -0.48849  -0.48112
  Beta  occ. eigenvalues --   -0.45829  -0.44951  -0.44523  -0.42851  -0.40844
  Beta  occ. eigenvalues --   -0.40811  -0.39674
  Beta virt. eigenvalues --   -0.23862  -0.10512  -0.10245  -0.09461  -0.08174
  Beta virt. eigenvalues --   -0.07182  -0.05802  -0.05104  -0.03084  -0.01702
  Beta virt. eigenvalues --   -0.01405  -0.00740   0.00422   0.00920   0.02155
[...]
     7   Atom        0.002322     -0.000377     -0.001945
     8   Atom       -0.000122     -0.000962      0.001084
     9   Atom        0.000725     -0.000672     -0.000053
    10   Atom       -0.000109     -0.000960      0.001069
    11   Atom       -0.072091     -0.013913      0.086003
    12   Atom        0.020927      0.002615     -0.023543
    13   Atom        0.022213      0.002045     -0.024258
    14   Atom       -0.054919      0.038509      0.016410
    15   Atom       -0.052485      0.037338      0.015147
    16   Atom        0.005134     -0.022147      0.017013
    17   Atom        0.001468     -0.000561     -0.000906
    18   Atom        0.001509     -0.000543     -0.000967
    19   Atom       -0.002699      0.003429     -0.000731
    20   Atom       -0.003045      0.003483     -0.000438
    21   Atom        0.000731     -0.000675     -0.000055
    22   Atom       -0.488549     -0.485884      0.974434
    23   Atom       -0.005391      0.013065     -0.007674
    24   Atom        0.018773     -0.032748      0.013974
    25   Atom       -0.000505     -0.022257      0.022762
    26   Atom        0.007183      0.015078     -0.022261
    27   Atom        0.008590      0.018732     -0.027322
    28   Atom       -0.034561     -0.051603      0.086165
    29   Atom        0.000779     -0.000513     -0.000266
    30   Atom        0.003929     -0.003735     -0.000194
    31   Atom        0.000777      0.000792     -0.001569
    32   Atom       -0.002853      0.006397     -0.003544
    33   Atom       -0.009099     -0.008031      0.017129
    34   Atom        0.057749     -0.029520     -0.028229
    35   Atom        0.016812      0.012338     -0.029150
    36   Atom        0.004526      0.000003     -0.004529
    37   Atom       -0.006273      0.011955     -0.005682
    38   Atom        0.009266     -0.022716      0.013450
    39   Atom        0.000152     -0.001632      0.001480
    40   Atom       -0.000314     -0.001172      0.001486
    41   Atom       -0.000355     -0.000065      0.000421
    42   Atom       -0.000800      0.000322      0.000478
    43   Atom        0.032757     -0.039428      0.006671
    44   Atom        0.002327     -0.003666      0.001339
    45   Atom        0.012225      0.009747     -0.021972
    46   Atom        0.001939     -0.001737     -0.000202
 --------------------------------------------------------
                        XY            XZ            YZ
 --------------------------------------------------------
     1   Atom        0.000558     -0.000044     -0.003694
     2   Atom        0.001498      0.000361      0.010906
     3   Atom        0.009596     -0.000876      0.001190
     4   Atom       -0.001741     -0.000352     -0.003632
     5   Atom       -0.000321      0.000103      0.002137
     6   Atom       -0.007521      0.000779      0.001595
     7   Atom       -0.000075     -0.000099      0.000388
     8   Atom        0.000000     -0.000077     -0.001190
     9   Atom       -0.000085     -0.000082     -0.000087
    10   Atom       -0.000117      0.000064     -0.001196
    11   Atom        0.004451      0.007238      0.102709
    12   Atom       -0.004448     -0.007232     -0.023793
    13   Atom        0.001372      0.002556     -0.025255
    14   Atom       -0.013160     -0.007443      0.081393
    15   Atom        0.021718      0.015152      0.080932
    16   Atom        0.002059      0.005267     -0.001421
    17   Atom        0.000418     -0.000310     -0.001989
    18   Atom       -0.000711      0.000055     -0.001896
    19   Atom        0.001409     -0.002047     -0.005279
    20   Atom       -0.001592      0.001683     -0.005209
    21   Atom       -0.000007      0.000034     -0.000092
    22   Atom       -0.001377      0.037940     -0.073783
    23   Atom       -0.016180      0.018002      0.011354
    24   Atom        0.033957     -0.063939     -0.035782
    25   Atom        0.056835     -0.079880     -0.061849
    26   Atom       -0.011187      0.023595      0.018821
    27   Atom       -0.014086      0.028977      0.018381
    28   Atom        0.029328     -0.085778     -0.062647
    29   Atom        0.002543      0.003482      0.003656
    30   Atom        0.000987      0.005980      0.000004
    31   Atom       -0.001852      0.001302      0.000398
    32   Atom       -0.007850     -0.004007     -0.001666
    33   Atom        0.006147      0.018276     -0.007903
    34   Atom       -0.032076      0.033728     -0.014802
    35   Atom       -0.052148      0.022578     -0.016953
    36   Atom        0.008694     -0.005835      0.008651
    37   Atom        0.004789     -0.012969      0.003872
    38   Atom       -0.035116      0.061753     -0.038838
    39   Atom       -0.000959     -0.004457      0.002732
    40   Atom       -0.000707     -0.004338      0.002441
    41   Atom        0.001083     -0.001542      0.000591
    42   Atom        0.000939     -0.001292      0.000930
    43   Atom       -0.071595      0.101920     -0.064934
    44   Atom        0.001201     -0.004892     -0.001906
    45   Atom       -0.007506      0.020347      0.014342
    46   Atom        0.000287      0.001747     -0.000128
 --------------------------------------------------------


 ---------------------------------------------------------------------------------
              Anisotropic Spin Dipole Couplings in Principal Axis System
 ---------------------------------------------------------------------------------

       Atom             a.u.   MegaHertz   Gauss  10(-4) cm-1        Axes

              Baa    -0.0106    -1.427    -0.509    -0.476 -0.0309  0.9656  0.2581
     1 C(13)  Bbb     0.0042     0.557     0.199     0.186  0.0806 -0.2550  0.9636
              Bcc     0.0065     0.870     0.310     0.290  0.9963  0.0506 -0.0700
 
              Baa    -0.0153    -2.059    -0.735    -0.687  0.0177 -0.2573  0.9662
     2 C(13)  Bbb    -0.0133    -1.787    -0.638    -0.596  0.9992 -0.0309 -0.0265
              Bcc     0.0287     3.846     1.372     1.283  0.0367  0.9658  0.2566
 
              Baa    -0.0140    -1.877    -0.670    -0.626  0.4917 -0.1565  0.8566
     3 C(13)  Bbb    -0.0114    -1.525    -0.544    -0.509  0.8293 -0.2158 -0.5154
              Bcc     0.0254     3.402     1.214     1.135  0.2655  0.9638  0.0237
 
              Baa    -0.0107    -1.431    -0.511    -0.477  0.1038  0.9615  0.2545
     4 C(13)  Bbb     0.0042     0.558     0.199     0.186 -0.0448 -0.2512  0.9669
              Bcc     0.0065     0.873     0.312     0.291  0.9936 -0.1118  0.0170
 
              Baa    -0.0101    -1.357    -0.484    -0.453  0.0227  0.9902 -0.1377
     5 C(13)  Bbb     0.0045     0.610     0.218     0.203  0.9982 -0.0302 -0.0525
              Bcc     0.0056     0.747     0.267     0.249  0.0561  0.1363  0.9891
 
              Baa    -0.0140    -1.882    -0.672    -0.628 -0.4524 -0.1272  0.8827
     6 C(13)  Bbb    -0.0114    -1.529    -0.546    -0.510  0.8680  0.1643  0.4686
              Bcc     0.0254     3.411     1.217     1.138 -0.2047  0.9782  0.0361
 
              Baa    -0.0020    -1.087    -0.388    -0.363  0.0183 -0.2266  0.9738
     7 H(1)   Bbb    -0.0003    -0.155    -0.055    -0.052  0.0364  0.9735  0.2259
              Bcc     0.0023     1.242     0.443     0.414  0.9992 -0.0313 -0.0260
 
              Baa    -0.0015    -0.805    -0.287    -0.269  0.0231  0.9083  0.4177
     8 H(1)   Bbb    -0.0001    -0.066    -0.024    -0.022  0.9989 -0.0377  0.0266
              Bcc     0.0016     0.871     0.311     0.291 -0.0399 -0.4167  0.9082
 
              Baa    -0.0007    -0.368    -0.131    -0.123  0.0679  0.9874  0.1431
     9 H(1)   Bbb    -0.0000    -0.025    -0.009    -0.008  0.0886 -0.1489  0.9849
              Bcc     0.0007     0.393     0.140     0.131  0.9937 -0.0542 -0.0976
 
              Baa    -0.0015    -0.810    -0.289    -0.270  0.0562  0.9067  0.4179
    10 H(1)   Bbb    -0.0001    -0.059    -0.021    -0.020  0.9965 -0.0252 -0.0795
              Bcc     0.0016     0.869     0.310     0.290  0.0615 -0.4210  0.9050
 
              Baa    -0.0782   -10.490    -3.743    -3.499  0.0113  0.8475 -0.5307
    11 C(13)  Bbb    -0.0724    -9.717    -3.467    -3.241  0.9992 -0.0298 -0.0263
              Bcc     0.1506    20.207     7.210     6.740  0.0381  0.5300  0.8472
 
              Baa    -0.0388    -5.209    -1.859    -1.738  0.1407  0.5043  0.8520
    12 C(13)  Bbb     0.0167     2.239     0.799     0.747  0.0264  0.8583 -0.5124
              Bcc     0.0221     2.971     1.060     0.991  0.9897 -0.0946 -0.1074
 
              Baa    -0.0397    -5.330    -1.902    -1.778 -0.0467  0.5180  0.8541
    13 C(13)  Bbb     0.0174     2.330     0.831     0.777  0.0307  0.8554 -0.5171
              Bcc     0.0224     3.000     1.070     1.001  0.9984 -0.0020  0.0559
 
              Baa    -0.0586    -7.863    -2.806    -2.623  0.7871  0.4554 -0.4160
    14 C(13)  Bbb    -0.0523    -7.021    -2.505    -2.342  0.6103 -0.4778  0.6318
              Bcc     0.1109    14.885     5.311     4.965 -0.0890  0.7513  0.6540
 
              Baa    -0.0590    -7.912    -2.823    -2.639  0.7701 -0.5032  0.3921
    15 C(13)  Bbb    -0.0532    -7.136    -2.546    -2.380 -0.6181 -0.4364  0.6539
              Bcc     0.1121    15.048     5.370     5.020  0.1580  0.7459  0.6470
 
              Baa    -0.0224    -3.004    -1.072    -1.002 -0.0835  0.9954  0.0471
    16 C(13)  Bbb     0.0034     0.452     0.161     0.151  0.9320  0.0947 -0.3498
              Bcc     0.0190     2.552     0.911     0.851  0.3527 -0.0147  0.9356
 
              Baa    -0.0027    -1.457    -0.520    -0.486 -0.0131  0.6770  0.7358
    17 H(1)   Bbb     0.0008     0.447     0.159     0.149  0.6342 -0.5633  0.5296
              Bcc     0.0019     1.010     0.360     0.337  0.7730  0.4736 -0.4220
 
              Baa    -0.0027    -1.445    -0.515    -0.482  0.1041  0.6743  0.7310
    18 H(1)   Bbb     0.0008     0.403     0.144     0.135 -0.5726 -0.5604  0.5984
              Bcc     0.0020     1.041     0.372     0.347  0.8132 -0.4809  0.3278
 
              Baa    -0.0048    -2.567    -0.916    -0.856  0.4745  0.4158  0.7759
    19 H(1)   Bbb    -0.0027    -1.461    -0.521    -0.487  0.8519 -0.4390 -0.2856
              Bcc     0.0076     4.028     1.437     1.344  0.2219  0.7964 -0.5626
 
              Baa    -0.0043    -2.305    -0.823    -0.769 -0.4987  0.4086  0.7645
    20 H(1)   Bbb    -0.0033    -1.735    -0.619    -0.579  0.8412  0.4409  0.3131
              Bcc     0.0076     4.041     1.442     1.348 -0.2092  0.7991 -0.5636
 
              Baa    -0.0007    -0.367    -0.131    -0.123  0.0015  0.9895  0.1442
    21 H(1)   Bbb    -0.0000    -0.023    -0.008    -0.008 -0.0451 -0.1440  0.9885
              Bcc     0.0007     0.391     0.139     0.130  0.9990 -0.0079  0.0444
 
              Baa    -0.4901   -18.902    -6.745    -6.305 -0.6829  0.7285  0.0544
    22 N(14)  Bbb    -0.4890   -18.861    -6.730    -6.291  0.7301  0.6832  0.0155
              Bcc     0.9791    37.763    13.475    12.596  0.0259 -0.0503  0.9984
 
              Baa    -0.0328    -4.402    -1.571    -1.468  0.6553  0.3911 -0.6462
    23 C(13)  Bbb     0.0103     1.383     0.493     0.461  0.5829  0.2823  0.7619
              Bcc     0.0225     3.019     1.077     1.007 -0.4805  0.8760  0.0430
 
              Baa    -0.0522    -6.999    -2.497    -2.334  0.0599  0.8525  0.5193
    24 C(13)  Bbb    -0.0467    -6.262    -2.235    -2.089  0.7392 -0.3875  0.5508
              Bcc     0.0988    13.261     4.732     4.423  0.6708  0.3508 -0.6534
 
              Baa    -0.0708    -9.503    -3.391    -3.170  0.8078 -0.4248  0.4087
    25 C(13)  Bbb    -0.0655    -8.789    -3.136    -2.932  0.0911  0.7749  0.6255
              Bcc     0.1363    18.292     6.527     6.102 -0.5824 -0.4680  0.6646
 
              Baa    -0.0435    -5.841    -2.084    -1.948 -0.4576 -0.3499  0.8174
    26 C(13)  Bbb     0.0202     2.704     0.965     0.902  0.8234  0.1802  0.5380
              Bcc     0.0234     3.136     1.119     1.046 -0.3356  0.9193  0.2057
 
              Baa    -0.0510    -6.844    -2.442    -2.283 -0.4741 -0.3127  0.8230
    27 C(13)  Bbb     0.0222     2.981     1.064     0.994  0.5863  0.5853  0.5601
              Bcc     0.0288     3.863     1.378     1.289 -0.6569  0.7481 -0.0942
 
              Baa    -0.0804   -10.787    -3.849    -3.598  0.7364  0.4140  0.5350
    28 C(13)  Bbb    -0.0735    -9.869    -3.522    -3.292 -0.5196  0.8526  0.0554
              Bcc     0.1539    20.657     7.371     6.890 -0.4332 -0.3188  0.8430
 
              Baa    -0.0042    -2.234    -0.797    -0.745 -0.2270 -0.6035  0.7644
    29 H(1)   Bbb    -0.0023    -1.226    -0.437    -0.409  0.7662 -0.5951 -0.2423
              Bcc     0.0065     3.460     1.235     1.154  0.6012  0.5306  0.5975
 
              Baa    -0.0048    -2.552    -0.911    -0.851 -0.5291  0.4954  0.6890
    30 H(1)   Bbb    -0.0035    -1.848    -0.659    -0.617  0.2393  0.8661 -0.4389
              Bcc     0.0082     4.400     1.570     1.468  0.8141  0.0673  0.5768
 
              Baa    -0.0026    -1.384    -0.494    -0.462 -0.5036 -0.3672  0.7821
    31 H(1)   Bbb    -0.0001    -0.078    -0.028    -0.026  0.4597  0.6526  0.6024
              Bcc     0.0027     1.462     0.522     0.488  0.7315 -0.6628  0.1598
 
              Baa    -0.0102    -5.416    -1.933    -1.807  0.7339  0.4031  0.5467
    32 H(1)   Bbb    -0.0008    -0.402    -0.144    -0.134 -0.4554 -0.3051  0.8363
              Bcc     0.0109     5.818     2.076     1.941 -0.5040  0.8628  0.0403
 
              Baa    -0.0238    -3.196    -1.140    -1.066  0.7467 -0.5065 -0.4311
    33 C(13)  Bbb    -0.0032    -0.433    -0.155    -0.144  0.5070  0.8530 -0.1240
              Bcc     0.0270     3.629     1.295     1.211  0.4305 -0.1259  0.8938
 
              Baa    -0.0437    -5.863    -2.092    -1.956 -0.0054  0.7164  0.6977
    34 C(13)  Bbb    -0.0369    -4.957    -1.769    -1.653 -0.4411 -0.6279  0.6413
              Bcc     0.0806    10.820     3.861     3.609  0.8974 -0.3043  0.3194
 
              Baa    -0.0405    -5.431    -1.938    -1.812  0.6412  0.4289 -0.6363
    35 C(13)  Bbb    -0.0339    -4.548    -1.623    -1.517  0.3091  0.6147  0.7257
              Bcc     0.0744     9.980     3.561     3.329  0.7024 -0.6620  0.2616
 
              Baa    -0.0161    -2.161    -0.771    -0.721  0.4413 -0.5977  0.6693
    36 C(13)  Bbb     0.0048     0.645     0.230     0.215 -0.4702  0.4813  0.7398
              Bcc     0.0113     1.516     0.541     0.506  0.7643  0.6411  0.0687
 
              Baa    -0.0201    -2.700    -0.964    -0.901  0.7052 -0.1878  0.6837
    37 C(13)  Bbb     0.0069     0.932     0.332     0.311 -0.6810  0.0891  0.7269
              Bcc     0.0132     1.769     0.631     0.590  0.1975  0.9782  0.0650
 
              Baa    -0.0509    -6.834    -2.439    -2.280 -0.6073  0.2718  0.7465
    38 C(13)  Bbb    -0.0453    -6.073    -2.167    -2.026  0.4805  0.8740  0.0728
              Bcc     0.0962    12.907     4.605     4.305  0.6327 -0.4029  0.6614
 
              Baa    -0.0043    -2.284    -0.815    -0.762  0.5666 -0.4832  0.6675
    39 H(1)   Bbb    -0.0020    -1.054    -0.376    -0.352  0.5750  0.8120  0.0998
              Bcc     0.0063     3.338     1.191     1.114 -0.5902  0.3273  0.7379
 
              Baa    -0.0042    -2.263    -0.808    -0.755  0.6578 -0.3701  0.6560
    40 H(1)   Bbb    -0.0016    -0.838    -0.299    -0.279  0.4904  0.8715 -0.0001
              Bcc     0.0058     3.101     1.107     1.034 -0.5717  0.3217  0.7548
 
              Baa    -0.0022    -1.196    -0.427    -0.399  0.7028 -0.4898  0.5159
    41 H(1)   Bbb     0.0006     0.313     0.112     0.105  0.2824  0.8577  0.4297
              Bcc     0.0017     0.883     0.315     0.294 -0.6529 -0.1563  0.7411
 
              Baa    -0.0023    -1.202    -0.429    -0.401  0.7379 -0.4507  0.5025
    42 H(1)   Bbb     0.0008     0.437     0.156     0.146  0.6069  0.7688 -0.2016
              Bcc     0.0014     0.765     0.273     0.255 -0.2954  0.4537  0.8408
 
              Baa    -0.0853     6.172     2.202     2.059 -0.0559  0.7854  0.6165
    43 O(17)  Bbb    -0.0823     5.954     2.125     1.986  0.7324  0.4519 -0.5093
              Bcc     0.1676   -12.126    -4.327    -4.045  0.6786 -0.4230  0.6005
 
              Baa    -0.0044    -2.335    -0.833    -0.779  0.1527  0.8909  0.4278
    44 H(1)   Bbb    -0.0028    -1.499    -0.535    -0.500  0.6776 -0.4095  0.6109
              Bcc     0.0072     3.834     1.368     1.279  0.7194  0.1966 -0.6662
 
              Baa    -0.0370     2.680     0.956     0.894 -0.4029 -0.3267  0.8550
    45 O(17)  Bbb     0.0153    -1.104    -0.394    -0.368 -0.0386  0.9394  0.3407
              Bcc     0.0218    -1.576    -0.562    -0.526  0.9144 -0.1042  0.3911
 
              Baa    -0.0018    -0.982    -0.350    -0.328 -0.2062  0.9337  0.2927
    46 H(1)   Bbb    -0.0011    -0.578    -0.206    -0.193 -0.4421 -0.3558  0.8234
              Bcc     0.0029     1.561     0.557     0.521  0.8729  0.0403  0.4861
 

 ---------------------------------------------------------------------------------

 No NMR shielding tensors so no spin-rotation constants.
 Leave Link  601 at Sun Jan 17 21:40:28 2021, MaxMem=  4026531840 cpu:               8.7 elap:               1.4
 (Enter /opt/ohpc/pub/libs/gaussian/g16-A.03/sandybridge/g16/l9999.exe)

 Test job not archived.
 1\1\GINC-CASCADEB002\SP\ULC-wHPBE\TZVP\C24H19N1O2(1+,2)\RDU230\17-Jan-
 2021\0\\#P LC-wHPBE/TZVP iop(3/107=0181600000, 3/108=0181600000) scf=(
 conver=6,fermi,ndamp=35,noincfock,novaracc,vshift=500,xqc)\\H19 C24 N1
  O2\\1,2\C,0,-6.538108,-0.217341,1.255514\C,0,-7.258661,0.087287,0.107
 878\C,0,-5.15139,-0.259049,1.219222\C,0,-6.580697,0.348691,-1.075777\C
 ,0,-4.458004,0.000662,0.035726\C,0,-5.193998,0.304569,-1.110911\H,0,-8
 .345644,0.121015,0.135956\H,0,-4.59391,-0.476283,2.12835\H,0,-7.136138
 ,0.581164,-1.982188\H,0,-4.671509,0.488761,-2.047704\C,0,-2.974479,-0.
 044963,-0.00277\C,0,-2.240322,0.918366,-0.694597\C,0,-2.265576,-1.0512
 97,0.654611\C,0,-0.856277,0.875925,-0.739808\C,0,-0.88157,-1.094369,0.
 628888\C,0,-0.155643,-0.133238,-0.077397\H,0,-2.762026,1.727417,-1.202
 285\H,0,-2.809037,-1.823891,1.195264\H,0,-0.306381,1.639189,-1.284917\
 H,0,-0.352632,-1.885069,1.15502\H,0,-7.059465,-0.416189,2.189743\N,0,1
 .257026,-0.160831,-0.103806\C,0,1.965402,-1.377887,-0.17457\C,0,3.1900
 04,-1.508547,0.478017\C,0,1.461496,-2.456008,-0.912094\C,0,3.903051,-2
 .696891,0.390217\C,0,2.178621,-3.638306,-0.97461\C,0,3.402953,-3.77505
 6,-0.332839\H,0,3.600761,-0.690157,1.062074\H,0,0.51484,-2.358097,-1.4
 35231\H,0,1.782807,-4.471654,-1.551437\H,0,3.963923,-4.706428,-0.39805
 5\C,0,1.972861,1.068372,-0.045814\C,0,2.971482,1.350948,-0.972341\C,0,
 1.683086,2.012203,0.939258\C,0,3.67678,2.543988,-0.910119\C,0,2.365608
 ,3.214996,0.992156\C,0,3.371443,3.4833,0.069272\H,0,3.205268,0.621566,
 -1.744392\H,0,0.904271,1.798314,1.667748\H,0,4.460878,2.747602,-1.6391
 97\H,0,2.139895,3.954598,1.756001\O,0,4.022986,4.680331,0.173244\H,0,4
 .695287,4.73835,-0.517835\O,0,5.097214,-2.751708,1.053752\H,0,5.479651
 ,-3.631493,0.941087\\Version=EM64L-G16RevA.03\State=2-A\HF=-1130.25385
 61\S2=0.767136\S2-1=0.\S2A=0.750266\RMSD=9.526e-07\Dipole=1.7064426,-0
 .5675907,-0.6969514\Quadrupole=28.9386111,-2.0574172,-26.8811939,-3.09
 23759,-7.1437189,-4.4138642\PG=C01 [X(C24H19N1O2)]\\@


 THE RARE EARTHS PERPLEX US IN OUR RESEARCHES,
 BAFFLE US IN OUR SPECULATIONS, AND HAUNT US IN OUR
 VERY DREAMS.  THEY STRETCH LIKE AN UNKNOWN BEFORE US,
 MOCKING, MYSTIFYING, AND MURMURING STRANGE REVELATIONS
 AND POSSIBILITIES.  -- SIR WILLIAM CROOKE, 1832-1919
 Job cpu time:       0 days  2 hours 59 minutes 52.7 seconds.
 Elapsed time:       0 days  0 hours 22 minutes 33.3 seconds.
 File lengths (MBytes):  RWF=    240 Int=      0 D2E=      0 Chk=     32 Scr=      8
 Normal termination of Gaussian 16 at Sun Jan 17 21:40:28 2021.
