 Entering Gaussian System, Link 0=g16
 Input=mol_bp_ma_half_tune_c5.gjf
 Output=mol_bp_ma_half_tune_c5.log
 Initial command:
 /opt/ohpc/pub/libs/gaussian/g16-A.03/sandybridge/g16/l1.exe "/mnt/gpfs2_4m/scratch/rdu230/ondemand/projects/init_structures/wtuning/mol_bp_ma_half/tuning_mol_bp_ma_half_ocycle0/Gau-65356.inp" -scrdir="/mnt/gpfs2_4m/scratch/rdu230/ondemand/projects/init_structures/wtuning/mol_bp_ma_half/tuning_mol_bp_ma_half_ocycle0/"
 Entering Link 1 = /opt/ohpc/pub/libs/gaussian/g16-A.03/sandybridge/g16/l1.exe PID=     65357.
  
 Copyright (c) 1988,1990,1992,1993,1995,1998,2003,2009,2016,
            Gaussian, Inc.  All Rights Reserved.
  
 This is part of the Gaussian(R) 16 program.  It is based on
 the Gaussian(R) 09 system (copyright 2009, Gaussian, Inc.),
 the Gaussian(R) 03 system (copyright 2003, Gaussian, Inc.),
 the Gaussian(R) 98 system (copyright 1998, Gaussian, Inc.),
 the Gaussian(R) 94 system (copyright 1995, Gaussian, Inc.),
 the Gaussian 92(TM) system (copyright 1992, Gaussian, Inc.),
 the Gaussian 90(TM) system (copyright 1990, Gaussian, Inc.),
 the Gaussian 88(TM) system (copyright 1988, Gaussian, Inc.),
 the Gaussian 86(TM) system (copyright 1986, Carnegie Mellon
 University), and the Gaussian 82(TM) system (copyright 1983,
 Carnegie Mellon University). Gaussian is a federally registered
 trademark of Gaussian, Inc.
  
 This software contains proprietary and confidential information,
 including trade secrets, belonging to Gaussian, Inc.
  
 This software is provided under written license and may be
 used, copied, transmitted, or stored only in accord with that
 written license.
  
 The following legend is applicable only to US Government
 contracts under FAR:
  
                    RESTRICTED RIGHTS LEGEND
  
 Use, reproduction and disclosure by the US Government is
 subject to restrictions as set forth in subparagraphs (a)
 and (c) of the Commercial Computer Software - Restricted
 Rights clause in FAR 52.227-19.
  
 Gaussian, Inc.
 340 Quinnipiac St., Bldg. 40, Wallingford CT 06492
  
  
 ---------------------------------------------------------------
 Warning -- This program may not be used in any manner that
 competes with the business of Gaussian, Inc. or will provide
 assistance to any competitor of Gaussian, Inc.  The licensee
 of this program is prohibited from giving any competitor of
 Gaussian, Inc. access to this program.  By using this program,
 the user acknowledges that Gaussian, Inc. is engaged in the
 business of creating and licensing software in the field of
 computational chemistry and represents and warrants to the
 licensee that it is not a competitor of Gaussian, Inc. and that
 it will not use this program in any manner prohibited above.
 ---------------------------------------------------------------
  

 Cite this work as:
 Gaussian 16, Revision A.03,
 M. J. Frisch, G. W. Trucks, H. B. Schlegel, G. E. Scuseria, 
 M. A. Robb, J. R. Cheeseman, G. Scalmani, V. Barone, 
 G. A. Petersson, H. Nakatsuji, X. Li, M. Caricato, A. V. Marenich, 
 J. Bloino, B. G. Janesko, R. Gomperts, B. Mennucci, H. P. Hratchian, 
 J. V. Ortiz, A. F. Izmaylov, J. L. Sonnenberg, D. Williams-Young, 
 F. Ding, F. Lipparini, F. Egidi, J. Goings, B. Peng, A. Petrone, 
 T. Henderson, D. Ranasinghe, V. G. Zakrzewski, J. Gao, N. Rega, 
 G. Zheng, W. Liang, M. Hada, M. Ehara, K. Toyota, R. Fukuda, 
 J. Hasegawa, M. Ishida, T. Nakajima, Y. Honda, O. Kitao, H. Nakai, 
 T. Vreven, K. Throssell, J. A. Montgomery, Jr., J. E. Peralta, 
 F. Ogliaro, M. J. Bearpark, J. J. Heyd, E. N. Brothers, K. N. Kudin, 
 V. N. Staroverov, T. A. Keith, R. Kobayashi, J. Normand, 
 K. Raghavachari, A. P. Rendell, J. C. Burant, S. S. Iyengar, 
 J. Tomasi, M. Cossi, J. M. Millam, M. Klene, C. Adamo, R. Cammi, 
 J. W. Ochterski, R. L. Martin, K. Morokuma, O. Farkas, 
 J. B. Foresman, and D. J. Fox, Gaussian, Inc., Wallingford CT, 2016.
 
 ******************************************
 Gaussian 16:  EM64L-G16RevA.03 25-Dec-2016
                17-Jan-2021 
 ******************************************
 %mem=30GB
 %nproc=8
 Will use up to    8 processors via shared memory.
 ----------------------------------------------------------------------
 #P LC-wHPBE/TZVP iop(3/107=0191200000, 3/108=0191200000) scf=(conver=6
 ,fermi,ndamp=35,noincfock,novaracc,vshift=500,xqc)
 ----------------------------------------------------------------------
 1/38=1,172=1/1;
 2/12=2,17=6,18=5,40=1/2;
 3/5=19,7=101,11=2,25=1,30=1,74=-71,107=191200000,108=191200000/1,2,3;
 4//1;
 5/5=100002,6=6,8=3,10=500,13=1,18=-1,22=13,38=1,93=35/2,8;
 6/7=2,8=2,9=2,10=2,28=1/1;
 99/5=1,9=1/99;
 Leave Link    1 at Sun Jan 17 20:44:26 2021, MaxMem=  4026531840 cpu:               1.2 elap:               0.2
 (Enter /opt/ohpc/pub/libs/gaussian/g16-A.03/sandybridge/g16/l101.exe)
 -------------
 H19 C24 N1 O2
 -------------
 Symbolic Z-matrix:
 Charge =  1 Multiplicity = 2
 C                    -6.53811  -0.21734   1.25551 
 C                    -7.25866   0.08729   0.10788 
 C                    -5.15139  -0.25905   1.21922 
 C                    -6.5807    0.34869  -1.07578 
 C                    -4.458     0.00066   0.03573 
 C                    -5.194     0.30457  -1.11091 
 H                    -8.34564   0.12102   0.13596 
 H                    -4.59391  -0.47628   2.12835 
 H                    -7.13614   0.58116  -1.98219 
 H                    -4.67151   0.48876  -2.0477 
 C                    -2.97448  -0.04496  -0.00277 
 C                    -2.24032   0.91837  -0.6946 
 C                    -2.26558  -1.0513    0.65461 
 C                    -0.85628   0.87593  -0.73981 
 C                    -0.88157  -1.09437   0.62889 
 C                    -0.15564  -0.13324  -0.0774 
 H                    -2.76203   1.72742  -1.20229 
 H                    -2.80904  -1.82389   1.19526 
 H                    -0.30638   1.63919  -1.28492 
 H                    -0.35263  -1.88507   1.15502 
 H                    -7.05947  -0.41619   2.18974 
 N                     1.25703  -0.16083  -0.10381 
 C                     1.9654   -1.37789  -0.17457 
 C                     3.19     -1.50855   0.47802 
 C                     1.4615   -2.45601  -0.91209 
 C                     3.90305  -2.69689   0.39022 
 C                     2.17862  -3.63831  -0.97461 
 C                     3.40295  -3.77506  -0.33284 
 H                     3.60076  -0.69016   1.06207 
 H                     0.51484  -2.3581   -1.43523 
 H                     1.78281  -4.47165  -1.55144 
 H                     3.96392  -4.70643  -0.39806 
 C                     1.97286   1.06837  -0.04581 
 C                     2.97148   1.35095  -0.97234 
 C                     1.68309   2.0122    0.93926 
 C                     3.67678   2.54399  -0.91012 
 C                     2.36561   3.215     0.99216 
 C                     3.37144   3.4833    0.06927 
 H                     3.20527   0.62157  -1.74439 
 H                     0.90427   1.79831   1.66775 
 H                     4.46088   2.7476   -1.6392 
 H                     2.1399    3.9546    1.756 
 O                     4.02299   4.68033   0.17324 
 H                     4.69529   4.73835  -0.51784 
 O                     5.09721  -2.75171   1.05375 
 H                     5.47965  -3.63149   0.94109 
 
 ITRead=  0  0  0  0  0  0  0  0  0  0  0  0  0  0  0  0  0  0  0  0
 ITRead=  0  0  0  0  0  0  0  0  0  0  0  0  0  0  0  0  0  0  0  0
 ITRead=  0  0  0  0  0  0
 MicOpt= -1 -1 -1 -1 -1 -1 -1 -1 -1 -1 -1 -1 -1 -1 -1 -1 -1 -1 -1 -1
 MicOpt= -1 -1 -1 -1 -1 -1 -1 -1 -1 -1 -1 -1 -1 -1 -1 -1 -1 -1 -1 -1
 MicOpt= -1 -1 -1 -1 -1 -1
 NAtoms=     46 NQM=       46 NQMF=       0 NMMI=      0 NMMIF=      0
                NMic=       0 NMicF=      0.
                    Isotopes and Nuclear Properties:
 (Nuclear quadrupole moments (NQMom) in fm**2, nuclear magnetic moments (NMagM)
  in nuclear magnetons)

  Atom         1           2           3           4           5           6           7           8           9          10
 IAtWgt=          12          12          12          12          12          12           1           1           1           1
 AtmWgt=  12.0000000  12.0000000  12.0000000  12.0000000  12.0000000  12.0000000   1.0078250   1.0078250   1.0078250   1.0078250
 NucSpn=           0           0           0           0           0           0           1           1           1           1
 AtZEff=  -0.0000000  -0.0000000  -0.0000000  -0.0000000  -0.0000000  -0.0000000  -0.0000000  -0.0000000  -0.0000000  -0.0000000
 NQMom=    0.0000000   0.0000000   0.0000000   0.0000000   0.0000000   0.0000000   0.0000000   0.0000000   0.0000000   0.0000000
 NMagM=    0.0000000   0.0000000   0.0000000   0.0000000   0.0000000   0.0000000   2.7928460   2.7928460   2.7928460   2.7928460
 AtZNuc=   6.0000000   6.0000000   6.0000000   6.0000000   6.0000000   6.0000000   1.0000000   1.0000000   1.0000000   1.0000000

  Atom        11          12          13          14          15          16          17          18          19          20
 IAtWgt=          12          12          12          12          12          12           1           1           1           1
 AtmWgt=  12.0000000  12.0000000  12.0000000  12.0000000  12.0000000  12.0000000   1.0078250   1.0078250   1.0078250   1.0078250
 NucSpn=           0           0           0           0           0           0           1           1           1           1
 AtZEff=  -0.0000000  -0.0000000  -0.0000000  -0.0000000  -0.0000000  -0.0000000  -0.0000000  -0.0000000  -0.0000000  -0.0000000
 NQMom=    0.0000000   0.0000000   0.0000000   0.0000000   0.0000000   0.0000000   0.0000000   0.0000000   0.0000000   0.0000000
 NMagM=    0.0000000   0.0000000   0.0000000   0.0000000   0.0000000   0.0000000   2.7928460   2.7928460   2.7928460   2.7928460
 AtZNuc=   6.0000000   6.0000000   6.0000000   6.0000000   6.0000000   6.0000000   1.0000000   1.0000000   1.0000000   1.0000000

  Atom        21          22          23          24          25          26          27          28          29          30
 IAtWgt=           1          14          12          12          12          12          12          12           1           1
 AtmWgt=   1.0078250  14.0030740  12.0000000  12.0000000  12.0000000  12.0000000  12.0000000  12.0000000   1.0078250   1.0078250
 NucSpn=           1           2           0           0           0           0           0           0           1           1
 AtZEff=  -0.0000000  -0.0000000  -0.0000000  -0.0000000  -0.0000000  -0.0000000  -0.0000000  -0.0000000  -0.0000000  -0.0000000
 NQMom=    0.0000000   2.0440000   0.0000000   0.0000000   0.0000000   0.0000000   0.0000000   0.0000000   0.0000000   0.0000000
 NMagM=    2.7928460   0.4037610   0.0000000   0.0000000   0.0000000   0.0000000   0.0000000   0.0000000   2.7928460   2.7928460
 AtZNuc=   1.0000000   7.0000000   6.0000000   6.0000000   6.0000000   6.0000000   6.0000000   6.0000000   1.0000000   1.0000000

  Atom        31          32          33          34          35          36          37          38          39          40
 IAtWgt=           1           1          12          12          12          12          12          12           1           1
 AtmWgt=   1.0078250   1.0078250  12.0000000  12.0000000  12.0000000  12.0000000  12.0000000  12.0000000   1.0078250   1.0078250
 NucSpn=           1           1           0           0           0           0           0           0           1           1
 AtZEff=  -0.0000000  -0.0000000  -0.0000000  -0.0000000  -0.0000000  -0.0000000  -0.0000000  -0.0000000  -0.0000000  -0.0000000
 NQMom=    0.0000000   0.0000000   0.0000000   0.0000000   0.0000000   0.0000000   0.0000000   0.0000000   0.0000000   0.0000000
 NMagM=    2.7928460   2.7928460   0.0000000   0.0000000   0.0000000   0.0000000   0.0000000   0.0000000   2.7928460   2.7928460
 AtZNuc=   1.0000000   1.0000000   6.0000000   6.0000000   6.0000000   6.0000000   6.0000000   6.0000000   1.0000000   1.0000000

  Atom        41          42          43          44          45          46
 IAtWgt=           1           1          16           1          16           1
 AtmWgt=   1.0078250   1.0078250  15.9949146   1.0078250  15.9949146   1.0078250
 NucSpn=           1           1           0           1           0           1
 AtZEff=  -0.0000000  -0.0000000  -0.0000000  -0.0000000  -0.0000000  -0.0000000
 NQMom=    0.0000000   0.0000000   0.0000000   0.0000000   0.0000000   0.0000000
 NMagM=    2.7928460   2.7928460   0.0000000   2.7928460   0.0000000   2.7928460
 AtZNuc=   1.0000000   1.0000000   8.0000000   1.0000000   8.0000000   1.0000000
 Leave Link  101 at Sun Jan 17 20:44:26 2021, MaxMem=  4026531840 cpu:               1.0 elap:               0.2
 (Enter /opt/ohpc/pub/libs/gaussian/g16-A.03/sandybridge/g16/l202.exe)
                          Input orientation:                          
 ---------------------------------------------------------------------
 Center     Atomic      Atomic             Coordinates (Angstroms)
 Number     Number       Type             X           Y           Z
 ---------------------------------------------------------------------
      1          6           0       -6.538108   -0.217341    1.255514
      2          6           0       -7.258661    0.087287    0.107878
      3          6           0       -5.151390   -0.259049    1.219222
      4          6           0       -6.580697    0.348691   -1.075777
      5          6           0       -4.458004    0.000662    0.035726
      6          6           0       -5.193998    0.304569   -1.110911
      7          1           0       -8.345644    0.121015    0.135956
      8          1           0       -4.593910   -0.476283    2.128350
      9          1           0       -7.136138    0.581164   -1.982188
     10          1           0       -4.671509    0.488761   -2.047704
     11          6           0       -2.974479   -0.044963   -0.002770
     12          6           0       -2.240322    0.918366   -0.694597
     13          6           0       -2.265576   -1.051297    0.654611
     14          6           0       -0.856277    0.875925   -0.739808
     15          6           0       -0.881570   -1.094369    0.628888
     16          6           0       -0.155643   -0.133238   -0.077397
     17          1           0       -2.762026    1.727417   -1.202285
     18          1           0       -2.809037   -1.823891    1.195264
     19          1           0       -0.306381    1.639189   -1.284917
     20          1           0       -0.352632   -1.885069    1.155020
     21          1           0       -7.059465   -0.416189    2.189743
     22          7           0        1.257026   -0.160831   -0.103806
     23          6           0        1.965402   -1.377887   -0.174570
     24          6           0        3.190004   -1.508547    0.478017
     25          6           0        1.461496   -2.456008   -0.912094
     26          6           0        3.903051   -2.696891    0.390217
     27          6           0        2.178621   -3.638306   -0.974610
     28          6           0        3.402953   -3.775056   -0.332839
     29          1           0        3.600761   -0.690157    1.062074
     30          1           0        0.514840   -2.358097   -1.435231
     31          1           0        1.782807   -4.471654   -1.551437
     32          1           0        3.963923   -4.706428   -0.398055
     33          6           0        1.972861    1.068372   -0.045814
     34          6           0        2.971482    1.350948   -0.972341
     35          6           0        1.683086    2.012203    0.939258
     36          6           0        3.676780    2.543988   -0.910119
     37          6           0        2.365608    3.214996    0.992156
     38          6           0        3.371443    3.483300    0.069272
     39          1           0        3.205268    0.621566   -1.744392
     40          1           0        0.904271    1.798314    1.667748
     41          1           0        4.460878    2.747602   -1.639197
     42          1           0        2.139895    3.954598    1.756001
     43          8           0        4.022986    4.680331    0.173244
     44          1           0        4.695287    4.738350   -0.517835
     45          8           0        5.097214   -2.751708    1.053752
     46          1           0        5.479651   -3.631493    0.941087
 ---------------------------------------------------------------------
                    Distance matrix (angstroms):
                    1          2          3          4          5
     1  C    0.000000
     2  C    1.388907   0.000000
     3  C    1.387820   2.407410   0.000000
     4  C    2.399401   1.388887   2.771153   0.000000
     5  C    2.421206   2.802925   1.396029   2.421237   0.000000
     6  C    2.771099   2.407383   2.397707   1.387846   1.396003
     7  H    2.152924   1.087869   3.394285   2.152945   3.890794
     8  H    2.146811   3.391285   1.088342   3.859318   2.150586
     9  H    3.387914   2.151117   3.859302   1.088182   3.403140
    10  H    3.859277   3.391323   3.385604   2.146919   2.150466
    11  C    3.783179   4.287651   2.505601   3.783004   1.484726
    12  C    4.854248   5.149600   3.677408   4.394165   2.508718
    13  C    4.394439   5.150358   3.045384   4.855356   2.509258
    14  C    6.120437   6.506231   4.855302   5.758458   3.786816
    15  C    5.758321   6.506539   4.390628   6.121140   3.787059
    16  C    6.520704   7.108855   5.162803   6.519995   4.305930
    17  H    4.907306   4.962487   3.939391   4.061913   2.718583
    18  H    4.060862   4.963282   2.817077   4.909497   2.718936
    19  H    6.981040   7.258269   5.774784   6.409069   4.654551
    20  H    6.407147   7.258094   5.067163   6.982473   4.654340
    21  H    1.088181   2.151123   2.146475   3.387902   3.403109
    22  N    7.912968   8.521930   6.544299   7.914180   5.719014
    23  C    8.700672   9.343974   7.337791   8.765218   6.573033
    24  C    9.844180  10.576308   8.466964  10.066291   7.808032
    25  C    8.585093   9.140560   7.286933   8.518803   6.478740
    26  C   10.766369  11.507179   9.413460  11.015157   8.792593
    27  C    9.625893  10.203632   8.364289   9.624554   7.635945
    28  C   10.677307  11.348213   9.378059  10.827304   8.728490
    29  H   10.151731  10.928950   8.764171  10.455224   8.153178
    30  H    7.846465   8.293878   6.599870   7.602799   5.697073
    31  H    9.757857  10.260868   8.573545   9.664894   7.840180
    32  H   11.540314  12.214011  10.270526  11.713349   9.657832
    33  C    8.705349   9.284780   7.356447   8.645352   6.519408
    34  C    9.892177  10.364340   8.565984   9.605173   7.618184
    35  C    8.524020   9.184298   7.207429   8.667050   6.525002
    36  C   10.800872  11.254136   9.504088  10.491073   8.575421
    37  C    9.546018  10.158300   8.284069   9.619170   7.603182
    38  C   10.644300  11.159458   9.379032  10.496761   8.569138
    39  H   10.229202  10.640027   8.910231   9.812574   7.891773
    40  H    7.721516   8.484944   6.411314   8.102659   5.886344
    41  H   11.753635  12.144017  10.469298  11.313204   9.481429
    42  H    9.641748  10.295886   8.438352   9.852424   7.881956
    43  O   11.691673  12.180964  10.471901  11.522207   9.687384
    44  H   12.405354  12.842148  11.178033  12.113142  10.321572
    45  O   11.909846  12.713073  10.548678  12.268699   9.995705
    46  H   12.497273  13.296171  11.156602  12.859300  10.619285
                    6          7          8          9         10
     6  C    0.000000
     7  H    3.394295   0.000000
     8  H    3.385653   4.289744   0.000000
     9  H    2.146517   2.482172   4.947488   0.000000
    10  H    1.088349   4.289857   4.286812   2.467231   0.000000
    11  C    2.505277   5.375519   2.711137   4.650757   2.710448
    12  C    3.045368   6.212934   3.931088   5.073520   2.815338
    13  C    3.678464   6.213738   2.814904   5.774081   3.932277
    14  C    4.390898   7.578091   4.901499   6.408358   4.051726
    15  C    4.856023   7.578426   4.051158   6.981744   4.902457
    16  C    5.161865   8.196724   4.968019   7.270895   4.966089
    17  H    2.819102   5.962232   4.393771   4.588573   2.427988
    18  H    3.941678   5.963121   2.423318   5.882541   4.397045
    19  H    5.069545   8.303823   5.874395   6.946307   4.578173
    20  H    5.776485   8.303680   4.573892   7.870218   5.877517
    21  H    3.859246   2.482113   2.467051   4.290175   4.947446
    22  N    6.545729   9.609797   6.270206   8.632733   6.272817
    23  C    7.413798  10.424049   7.010057   9.483849   7.144340
    24  C    8.723736  11.655199   8.023620  10.818905   8.495404
    25  C    7.208045  10.194089   7.059147   9.180895   6.897465
    26  C    9.696311  12.571228   8.952684  11.757451   9.466516
    27  C    8.361839  11.230583   8.092832  10.275401   8.068983
    28  C    9.547581  12.386633   8.993841  11.522562   9.290739
    29  H    9.113678  12.009675   8.266518  11.232310   8.915774
    30  H    6.307599   9.333960   6.506893   8.214370   5.947936
    31  H    8.466533  11.248352   8.376535  10.259829   8.155378
    32  H   10.463545  13.233095   9.874885  12.396752  10.211857
    33  C    7.285719  10.363497   7.087696   9.325276   6.963560
    34  C    8.233418  11.437587   8.377841  10.187067   7.766279
    35  C    7.376550  10.237056   6.856178   9.400076   7.184963
    36  C    9.151285  12.308686   9.314432  11.041794   8.672484
    37  C    8.369057  11.181982   7.959357  10.298882   8.135977
    38  C    9.212163  12.190141   9.130441  11.092346   8.839566
    39  H    8.429084  11.713660   8.776707  10.344219   7.883733
    40  H    6.865938   9.524739   5.967909   8.913566   6.827066
    41  H    9.973170  13.193071  10.323615  11.802622   9.416461
    42  H    8.679164  11.281287   8.069416  10.554568   8.536710
    43  O   10.283440  13.182252  10.230543  12.082016   9.904348
    44  H   10.853944  13.849661  10.976515  12.625733  10.398864
    45  O   10.951513  13.776985  10.012502  13.037633  10.749308
    46  H   11.559847  14.348113  10.622692  13.618008  11.355854
                   11         12         13         14         15
    11  C    0.000000
    12  C    1.394853   0.000000
    13  C    1.395493   2.387587   0.000000
    14  C    2.424467   1.385433   2.764907   0.000000
    15  C    2.424977   2.765668   1.384915   2.399172   0.000000
    16  C    2.821205   2.415097   2.414640   1.395739   1.396274
    17  H    2.150652   1.088341   3.378724   2.137944   3.853801
    18  H    2.151102   3.378607   1.088374   3.853152   2.137314
    19  H    3.405733   2.146670   3.852133   1.087245   3.386123
    20  H    3.405958   3.852753   2.145912   3.386314   1.087105
    21  H    4.651025   5.772746   5.073595   6.980786   6.408009
    22  N    4.234297   3.707444   3.711718   2.438321   2.445798
    23  C    5.119436   4.819888   4.323815   3.655275   2.971730
    24  C    6.354061   6.062456   5.477556   4.851927   4.095366
    25  C    5.130096   5.013697   4.280052   4.062454   3.117474
    26  C    7.381570   7.210266   6.389823   6.057489   5.051499
    27  C    6.356967   6.353639   5.394244   5.444632   4.290407
    28  C    7.395551   7.348852   6.366015   6.319675   5.144720
    29  H    6.692081   6.308050   5.891550   5.056143   4.521319
    30  H    4.424690   4.344498   3.715626   3.580848   2.794201
    31  H    6.680249   6.780270   5.740635   6.018314   4.822735
    32  H    8.368209   8.379672   7.298955   7.383345   6.130284
    33  C    5.071246   4.265481   4.790401   2.919364   3.644235
    34  C    6.184100   5.237096   5.987030   3.864124   4.836271
    35  C    5.178056   4.388518   5.005795   3.249424   4.040369
    36  C    7.194803   6.140130   7.119414   4.833223   6.031976
    37  C    6.335120   5.416109   6.305796   4.341831   5.408027
    38  C    7.261168   6.217257   7.258180   5.032557   6.273463
    39  H    6.454981   5.553792   6.203533   4.191663   5.027836
    40  H    4.607928   4.030316   4.381171   3.121964   3.554725
    41  H    8.109306   7.010311   8.058435   5.708258   6.960366
    42  H    6.726558   5.866041   6.758714   4.968333   5.990968
    43  O    8.445348   7.357619   8.522282   6.254149   7.590088
    44  H    9.053766   7.919987   9.129527   6.766643   8.150885
    45  O    8.578749   8.388421   7.567125   7.198655   6.218773
    46  H    9.231813   9.109043   8.168722   7.955263   6.855625
                   16         17         18         19         20
    16  C    0.000000
    17  H    3.394207   0.000000
    18  H    3.393888   4.285118   0.000000
    19  H    2.149959   2.458618   4.940396   0.000000
    20  H    2.150946   4.940862   2.457496   4.286703   0.000000
    21  H    7.272052   5.879531   4.586584   7.867781   6.943333
    22  N    1.413185   4.574376   4.581072   2.660702   2.673694
    23  C    2.461184   5.748712   4.987046   3.936574   2.719986
    24  C    3.659688   6.980082   6.049990   5.024031   3.626344
    25  C    2.950783   5.951756   4.803955   4.476050   2.808913
    26  C    4.823274   8.156826   6.816330   6.271123   4.399411
    27  C    4.305727   7.297452   5.733863   5.841531   3.743849
    28  C    5.098205   8.309038   6.688121   6.631716   4.459842
    29  H    3.964735   7.173357   6.510653   5.118591   4.131074
    30  H    2.691330   5.242475   4.272357   4.083539   2.772303
    31  H    4.975162   7.694537   5.969929   6.463601   4.309922
    32  H    6.163417   9.342352   7.531313   7.699927   5.385606
    33  C    2.444462   4.918427   5.724684   2.656342   3.946230
    34  C    3.575282   5.750454   6.942083   3.305325   5.103646
    35  C    3.002903   4.942300   5.912726   3.007336   4.402207
    36  C    4.748519   6.496951   8.097952   4.101793   6.333838
    37  C    4.325658   5.772443   7.225551   3.848085   5.781524
    38  C    5.053830   6.505338   8.223896   4.331393   6.623214
    39  H    3.826790   6.093060   7.126970   3.684882   5.229576
    40  H    2.810666   4.656592   5.208864   3.195189   3.925558
    41  H    5.661336   7.307668   9.043472   4.907224   7.241489
    42  H    5.034009   6.143340   7.628715   4.537903   6.377741
    43  O    6.379201   7.526498   9.488201   5.488005   7.950748
    44  H    6.888968   8.071289  10.114969   5.933793   8.494093
    45  O    5.977323   9.323085   7.961763   7.344943   5.519252
    46  H    6.710562  10.061670   8.487307   8.137159   6.091904
                   21         22         23         24         25
    21  H    0.000000
    22  N    8.630736   0.000000
    23  C    9.378863   1.409975   0.000000
    24  C   10.448678   2.427192   1.393769   0.000000
    25  C    9.294570   2.441920   1.400074   2.412018   0.000000
    26  C   11.340928   3.698257   2.411066   1.388635   2.777630
    27  C   10.282869   3.701415   2.407285   2.769277   1.384198
    28  C   11.274201   4.209523   2.799647   2.416588   2.417577
    29  H   10.723204   2.670685   2.162559   1.086097   3.404706
    30  H    8.618674   2.674231   2.157361   3.396874   1.086009
    31  H   10.422524   4.577693   3.391238   3.857316   2.138885
    32  H   12.108589   5.298710   3.888858   3.404834   3.404522
    33  C    9.422555   1.423630   2.449656   2.897645   3.665132
    34  C   10.664963   2.445238   3.015821   3.213721   4.095925
    35  C    9.159312   2.447772   3.579529   3.857360   4.841644
    36  C   11.560223   3.717714   4.341768   4.311254   5.468770
    37  C   10.171122   3.718373   4.755627   4.822429   6.050113
    38  C   11.336060   4.216682   5.066315   5.011839   6.315565
    39  H   11.041698   2.664454   2.828325   3.078428   3.633858
    40  H    8.282366   2.664787   3.822092   4.192298   5.006530
    41  H   12.545464   4.591413   5.039067   4.920622   6.050002
    42  H   10.194123   4.601641   5.673883   5.708058   6.976735
    43  O   12.363717   5.582485   6.407545   6.252116   7.659408
    44  H   13.117715   5.999586   6.706598   6.502409   7.897571
    45  O   12.431008   4.774896   3.633787   2.348270   4.143722
    46  H   13.004874   5.564877   4.321270   3.156551   4.578386
                   26         27         28         29         30
    26  C    0.000000
    27  C    2.392211   0.000000
    28  C    1.391168   1.389086   0.000000
    29  H    2.137698   3.855145   3.391388   0.000000
    30  H    3.863550   2.149250   3.400623   4.305980   0.000000
    31  H    3.378644   1.088057   2.143619   4.943189   2.467462
    32  H    2.159471   2.158843   1.089217   4.288857   4.299601
    33  C    4.253582   4.801856   5.058294   2.640057   3.974543
    34  C    4.371428   5.051860   5.183729   2.949737   4.472848
    35  C    5.235003   5.986376   6.169971   3.315918   5.109062
    36  C    5.404524   6.361556   6.351264   3.788802   5.856965
    37  C    6.138116   7.132383   7.189751   4.096427   6.354283
    38  C    6.211310   7.295875   7.269554   4.296043   6.674251
    39  H    4.006946   4.448941   4.621888   3.123025   4.026459
    40  H    5.552624   6.177610   6.427147   3.718923   5.201527
    41  H    5.837139   6.813970   6.735788   4.455879   6.456081
    42  H    7.015439   8.069072   8.105931   4.918273   7.257746
    43  O    7.381386   8.597614   8.493181   5.459893   8.027064
    44  H    7.532264   8.758460   8.612922   5.758714   8.287178
    45  O    1.367227   3.663126   2.416691   2.547437   5.229543
    46  H    1.913794   3.816640   2.440527   3.492323   5.649582
                   31         32         33         34         35
    31  H    0.000000
    32  H    2.478442   0.000000
    33  C    5.744120   6.118555   0.000000
    34  C    5.970845   6.164945   1.391239   0.000000
    35  C    6.946503   7.220154   1.394688   2.398215   0.000000
    36  C    7.295043   7.274146   2.414085   1.387322   2.770885
    37  C    8.117519   8.199772   2.416532   2.775069   1.383960
    38  C    8.272349   8.224419   2.793055   2.406627   2.402405
    39  H    5.291646   5.547585   2.145607   1.087528   3.384211
    40  H    7.102639   7.479350   2.147323   3.382834   1.087658
    41  H    7.700482   7.572976   3.398369   2.147938   3.860747
    42  H    9.059160   9.109358   3.406573   3.861914   2.156071
    43  O    9.578714   9.404314   4.158996   3.674618   3.630539
    44  H    9.714682   9.473810   4.593816   3.827868   4.316057
    45  O    4.553078   2.685707   5.056050   5.045352   5.862101
    46  H    4.537092   2.290462   5.946451   5.897189   6.801854
                   36         37         38         39         40
    36  C    0.000000
    37  C    2.405842   0.000000
    38  C    1.390951   1.391189   0.000000
    39  H    2.148032   3.862590   3.392125   0.000000
    40  H    3.858527   2.144509   3.388398   4.280423   0.000000
    41  H    1.089873   3.395973   2.155687   2.471366   4.948382
    42  H    3.385267   1.086930   2.141001   4.949432   2.486788
    43  O    2.420226   2.358967   1.366822   4.562846   4.501772
    44  H    2.450810   3.166715   1.916353   4.546703   5.271849
    45  O    5.823986   6.562547   6.543914   4.773683   6.217754
    46  H    6.694316   7.521588   7.471605   5.520247   7.137573
                   41         42         43         44         45
    41  H    0.000000
    42  H    4.286160   0.000000
    43  O    2.685542   2.564730   0.000000
    44  H    2.296841   3.509220   0.965891   0.000000
    45  O    6.156241   7.362977   7.560718   7.663707   0.000000
    46  H    6.956193   8.328675   8.473363   8.532172   0.965905
                   46
    46  H    0.000000
 Stoichiometry    C24H19NO2(1+,2)
 Framework group  C1[X(C24H19NO2)]
 Deg. of freedom   132
 Full point group                 C1      NOp   1
 Largest Abelian subgroup         C1      NOp   1
 Largest concise Abelian subgroup C1      NOp   1
                         Standard orientation:                         
 ---------------------------------------------------------------------
 Center     Atomic      Atomic             Coordinates (Angstroms)
 Number     Number       Type             X           Y           Z
 ---------------------------------------------------------------------
      1          6           0       -6.538108   -0.217341    1.255514
      2          6           0       -7.258661    0.087287    0.107878
      3          6           0       -5.151390   -0.259049    1.219222
      4          6           0       -6.580697    0.348691   -1.075777
      5          6           0       -4.458004    0.000662    0.035726
      6          6           0       -5.193998    0.304569   -1.110911
      7          1           0       -8.345644    0.121015    0.135956
      8          1           0       -4.593910   -0.476283    2.128350
      9          1           0       -7.136138    0.581164   -1.982188
     10          1           0       -4.671509    0.488761   -2.047704
     11          6           0       -2.974479   -0.044963   -0.002770
     12          6           0       -2.240322    0.918366   -0.694597
     13          6           0       -2.265576   -1.051297    0.654611
     14          6           0       -0.856277    0.875925   -0.739808
     15          6           0       -0.881570   -1.094369    0.628888
     16          6           0       -0.155643   -0.133238   -0.077397
     17          1           0       -2.762026    1.727417   -1.202285
     18          1           0       -2.809037   -1.823891    1.195264
     19          1           0       -0.306381    1.639189   -1.284917
     20          1           0       -0.352632   -1.885069    1.155020
     21          1           0       -7.059465   -0.416189    2.189743
     22          7           0        1.257026   -0.160831   -0.103806
     23          6           0        1.965402   -1.377887   -0.174570
     24          6           0        3.190004   -1.508547    0.478017
     25          6           0        1.461496   -2.456008   -0.912094
     26          6           0        3.903051   -2.696891    0.390217
     27          6           0        2.178621   -3.638306   -0.974610
     28          6           0        3.402953   -3.775056   -0.332839
     29          1           0        3.600761   -0.690157    1.062074
     30          1           0        0.514840   -2.358097   -1.435231
     31          1           0        1.782807   -4.471654   -1.551437
     32          1           0        3.963923   -4.706428   -0.398055
     33          6           0        1.972861    1.068372   -0.045814
     34          6           0        2.971482    1.350948   -0.972341
     35          6           0        1.683086    2.012203    0.939258
     36          6           0        3.676780    2.543988   -0.910119
     37          6           0        2.365608    3.214996    0.992156
     38          6           0        3.371443    3.483300    0.069272
     39          1           0        3.205268    0.621566   -1.744392
     40          1           0        0.904271    1.798314    1.667748
     41          1           0        4.460878    2.747602   -1.639197
     42          1           0        2.139895    3.954598    1.756001
     43          8           0        4.022986    4.680331    0.173244
     44          1           0        4.695287    4.738350   -0.517835
     45          8           0        5.097214   -2.751708    1.053752
     46          1           0        5.479651   -3.631493    0.941087
 ---------------------------------------------------------------------
 Rotational constants (GHZ):           0.2747871           0.0974680           0.0767524
 Leave Link  202 at Sun Jan 17 20:44:26 2021, MaxMem=  4026531840 cpu:               0.1 elap:               0.0
 (Enter /opt/ohpc/pub/libs/gaussian/g16-A.03/sandybridge/g16/l301.exe)
 Standard basis: TZVP (5D, 7F)
 Ernie: Thresh=  0.10000D-02 Tol=  0.10000D-05 Strict=F.
 There are   654 symmetry adapted cartesian basis functions of A   symmetry.
 There are   627 symmetry adapted basis functions of A   symmetry.
   627 basis functions,  1097 primitive gaussians,   654 cartesian basis functions
    93 alpha electrons       92 beta electrons
       nuclear repulsion energy      2186.7759231597 Hartrees.
 IExCor=33909 DFT=T Ex+Corr=LC-wHPBE ExCW=0 ScaHFX=  1.000000
 ScaDFX=  1.000000  1.000000  1.000000  1.000000 ScalE2=  1.000000  1.000000
 IRadAn=      5 IRanWt=     -1 IRanGd=            0 ICorTp=0 IEmpDi=  4
 HFx  wShort=  0.000000 wLong=  0.191200 cFull=  0.000000 cShort=  0.000000 cLong=  1.000000
 DFx  wShort=  0.000000 wLong=  0.191200 cFull=  0.000000 cShort=  1.000000 cLong=  0.000000
 NAtoms=   46 NActive=   46 NUniq=   46 SFac= 1.00D+00 NAtFMM=   60 NAOKFM=F Big=F
 Integral buffers will be    131072 words long.
 Raffenetti 2 integral format.
 Two-electron integral symmetry is turned on.
 Leave Link  301 at Sun Jan 17 20:44:27 2021, MaxMem=  4026531840 cpu:               0.4 elap:               0.1
 (Enter /opt/ohpc/pub/libs/gaussian/g16-A.03/sandybridge/g16/l302.exe)
 NPDir=0 NMtPBC=     1 NCelOv=     1 NCel=       1 NClECP=     1 NCelD=      1
         NCelK=      1 NCelE2=     1 NClLst=     1 CellRange=     0.0.
 One-electron integrals computed using PRISM.
 One-electron integral symmetry used in STVInt
 NBasis=   627 RedAO= T EigKep=  6.83D-06  NBF=   627
 NBsUse=   627 1.00D-06 EigRej= -1.00D+00 NBFU=   627
 Precomputing XC quadrature grid using
 IXCGrd= 4 IRadAn=           5 IRanWt=          -1 IRanGd=           0 AccXCQ= 0.00D+00.
 Generated NRdTot=       0 NPtTot=           0 NUsed=           0 NTot=          32
 NSgBfM=   623   621   621   623   623 MxSgAt=    46 MxSgA2=    46.
 Leave Link  302 at Sun Jan 17 20:44:28 2021, MaxMem=  4026531840 cpu:               8.9 elap:               1.2
 (Enter /opt/ohpc/pub/libs/gaussian/g16-A.03/sandybridge/g16/l303.exe)
 DipDrv:  MaxL=1.
 Leave Link  303 at Sun Jan 17 20:44:28 2021, MaxMem=  4026531840 cpu:               0.8 elap:               0.2
 (Enter /opt/ohpc/pub/libs/gaussian/g16-A.03/sandybridge/g16/l401.exe)
 ExpMin= 9.52D-02 ExpMax= 2.70D+04 ExpMxC= 9.22D+02 IAcc=3 IRadAn=         5 AccDes= 0.00D+00
 Harris functional with IExCor=33909 and IRadAn=       5 diagonalized for initial guess.
 HarFok:  IExCor=33909 AccDes= 0.00D+00 IRadAn=         5 IDoV= 1 UseB2=F ITyADJ=14
 ICtDFT=  3500011 ScaDFX=  1.000000  1.000000  1.000000  1.000000
 FoFCou: FMM=F IPFlag=           0 FMFlag=      100000 FMFlg1=           0
         NFxFlg=           0 DoJE=T BraDBF=F KetDBF=T FulRan=T
         wScrn=  0.000000 ICntrl=       500 IOpCl=  0 I1Cent=   200000004 NGrid=           0
         NMat0=    1 NMatS0=      1 NMatT0=    0 NMatD0=    1 NMtDS0=    0 NMtDT0=    0
 Petite list used in FoFCou.
 Harris En= -1111.40127226990    
 JPrj=0 DoOrth=F DoCkMO=F.
 Initial guess <Sx>= 0.0000 <Sy>= 0.0000 <Sz>= 0.5000 <S**2>= 0.7500 S= 0.5000
 Leave Link  401 at Sun Jan 17 20:44:35 2021, MaxMem=  4026531840 cpu:              53.7 elap:               6.8
 (Enter /opt/ohpc/pub/libs/gaussian/g16-A.03/sandybridge/g16/l502.exe)
 Integral symmetry usage will be decided dynamically.
 UHF open shell SCF:
 Using DIIS extrapolation, IDIIS=    10.
 NGot=  4026531840 LenX=  4025664800 LenY=  4025236430
 Requested convergence on RMS density matrix=1.00D-06 within  32 cycles.
 Requested convergence on MAX density matrix=1.00D-04.
 Requested convergence on             energy=1.00D-04.
 Virtual orbitals will be shifted by   0.500 hartree.
 No special actions if energy rises.
 Dynamic level shift is on during FON iterations.

 Cycle   1  Pass 1  IDiag  1:
 FoFJK:  IHMeth= 1 ICntrl=       0 DoSepK=T KAlg= 0 I1Cent=           0 FoldK=F
 IRaf=         1 NMat=       1 IRICut=       1 DoRegI=T DoRafI=F ISym2E= 0 IDoP0=0 IntGTp=1.
 FoFCou: FMM=F IPFlag=           0 FMFlag=      100000 FMFlg1=           0
         NFxFlg=           0 DoJE=T BraDBF=F KetDBF=F FulRan=T
         wScrn=  0.000000 ICntrl=       500 IOpCl=  0 I1Cent=           0 NGrid=           0
         NMat0=    1 NMatS0=      1 NMatT0=    0 NMatD0=    1 NMtDS0=    0 NMtDT0=    0
 Symmetry not used in FoFCou.
 E= -1129.83643196845    
 DIIS: error= 2.20D-02 at cycle   1 NSaved=   1.
 NSaved= 1 IEnMin= 1 EnMin= -1129.83643196845     IErMin= 1 ErrMin= 2.20D-02
 ErrMax= 2.20D-02  0.00D+00 EMaxC= 1.00D+00 BMatC= 1.81D+00 BMatP= 1.81D+00
 IDIUse=1 WtCom= 1.00D+00 WtEn= 0.00D+00
 Coeff-Com:  0.100D+01
 Coeff:      0.100D+01
 Gap=     0.386 Goal=   None    Shift=    0.500
 T= 1309. Gap= 0.696 NK=0 IS=   94 IE=  627 IFin=   93
          NO(<0.9)=   0  NV(>0.1)=   0     93.00e < EF      0.00e >EF  Err=0.0D+00
 Gap=     0.099 Goal=   None    Shift=    0.500
 T= 1309. Gap= 0.518 NK=0 IS=   93 IE=  627 IFin=   92
          NO(<0.9)=   0  NV(>0.1)=   0     92.00e < EF      0.00e >EF  Err=0.0D+00
 GapD=    0.099 DampG=0.500 DampE=0.500 DampFc=0.2500 IDamp=-1.
 Damping current iteration by 2.50D-01
 RMSDP=2.56D-03 MaxDP=1.24D-01              OVMax= 7.79D-02

 Cycle   2  Pass 1  IDiag  1:
 E= -1129.99153988036     Delta-E=       -0.155107911904 Rises=F Damp=T
 DIIS: error= 1.41D-02 at cycle   2 NSaved=   2.
 NSaved= 2 IEnMin= 2 EnMin= -1129.99153988036     IErMin= 2 ErrMin= 1.41D-02
 ErrMax= 1.41D-02  0.00D+00 EMaxC= 1.00D+00 BMatC= 8.30D-01 BMatP= 1.81D+00
 IDIUse=1 WtCom= 1.00D+00 WtEn= 0.00D+00
 Coeff-Com: -0.187D+01 0.287D+01
 Coeff:     -0.187D+01 0.287D+01
 Gap=     0.290 Goal=   None    Shift=    0.500
 T= 1233. Gap= 0.764 NK=0 IS=   94 IE=  627 IFin=   93
          NO(<0.9)=   0  NV(>0.1)=   0     93.00e < EF      0.00e >EF  Err=0.0D+00
 Gap=     0.178 Goal=   None    Shift=    0.500
 T= 1233. Gap= 0.648 NK=0 IS=   93 IE=  627 IFin=   92
          NO(<0.9)=   0  NV(>0.1)=   0     92.00e < EF      0.00e >EF  Err=0.0D+00
 GapD=    0.178 DampG=1.000 DampE=0.500 DampFc=0.5000 IDamp=-1.
 Damping current iteration by 5.00D-01
 RMSDP=1.89D-03 MaxDP=1.14D-01 DE=-1.55D-01 OVMax= 2.77D-02

 Cycle   3  Pass 1  IDiag  1:
 E= -1130.15280022513     Delta-E=       -0.161260344770 Rises=F Damp=T
 DIIS: error= 6.65D-03 at cycle   3 NSaved=   3.
 NSaved= 3 IEnMin= 3 EnMin= -1130.15280022513     IErMin= 3 ErrMin= 6.65D-03
 ErrMax= 6.65D-03  0.00D+00 EMaxC= 1.00D+00 BMatC= 1.60D-01 BMatP= 8.30D-01
 IDIUse=1 WtCom= 1.00D+00 WtEn= 0.00D+00
 Coeff-Com:  0.886D-02-0.769D+00 0.176D+01
 Coeff:      0.886D-02-0.769D+00 0.176D+01
 Gap=     0.279 Goal=   None    Shift=    0.500
 T= 1049. Gap= 0.776 NK=4 IS=   94 IE=  106 IFin=   93
          NO(<0.9)=   0  NV(>0.1)=   0     93.00e < EF      0.00e >EF  Err=0.0D+00
 Gap=     0.151 Goal=   None    Shift=    0.500
 T= 1049. Gap= 0.650 NK=4 IS=   93 IE=  105 IFin=   92
          NO(<0.9)=   0  NV(>0.1)=   0     92.00e < EF      0.00e >EF  Err=0.0D+00
 GapD=    0.151 DampG=1.000 DampE=1.000 DampFc=1.0000 IDamp=-1.
 RMSDP=9.70D-04 MaxDP=7.16D-02 DE=-1.61D-01 OVMax= 1.09D-02

 Cycle   4  Pass 1  IDiag  1:
 E= -1130.26493764703     Delta-E=       -0.112137421901 Rises=F Damp=F
 DIIS: error= 2.01D-03 at cycle   4 NSaved=   4.
 NSaved= 4 IEnMin= 4 EnMin= -1130.26493764703     IErMin= 4 ErrMin= 2.01D-03
 ErrMax= 2.01D-03  0.00D+00 EMaxC= 1.00D+00 BMatC= 3.54D-03 BMatP= 1.60D-01
 IDIUse=1 WtCom= 1.00D+00 WtEn= 0.00D+00
 Coeff-Com:  0.161D+00-0.256D+00 0.144D+00 0.951D+00
 Coeff:      0.161D+00-0.256D+00 0.144D+00 0.951D+00
 Gap=     0.277 Goal=   None    Shift=    0.500
 T=  671. Gap= 0.777 NK=4 IS=   94 IE=  106 IFin=   93
          NO(<0.9)=   0  NV(>0.1)=   0     93.00e < EF      0.00e >EF  Err=0.0D+00
 Gap=     0.153 Goal=   None    Shift=    0.500
 T=  671. Gap= 0.653 NK=4 IS=   93 IE=  104 IFin=   92
          NO(<0.9)=   0  NV(>0.1)=   0     92.00e < EF      0.00e >EF  Err=0.0D+00
 GapD=    0.153 DampG=1.000 DampE=1.000 DampFc=1.0000 IDamp=-1.
 RMSDP=1.32D-04 MaxDP=5.01D-03 DE=-1.12D-01 OVMax= 8.76D-03

 Cycle   5  Pass 1  IDiag  1:
 E= -1130.26604466929     Delta-E=       -0.001107022263 Rises=F Damp=F
 DIIS: error= 1.57D-03 at cycle   5 NSaved=   5.
 NSaved= 5 IEnMin= 5 EnMin= -1130.26604466929     IErMin= 5 ErrMin= 1.57D-03
 ErrMax= 1.57D-03  0.00D+00 EMaxC= 1.00D+00 BMatC= 6.77D-04 BMatP= 3.54D-03
 IDIUse=1 WtCom= 1.00D+00 WtEn= 0.00D+00
 Coeff-Com:  0.423D-01 0.572D-02-0.129D+00-0.628D-01 0.114D+01
 Coeff:      0.423D-01 0.572D-02-0.129D+00-0.628D-01 0.114D+01
 Gap=     0.278 Goal=   None    Shift=    0.500
 T=  191. Gap= 0.778 NK=4 IS=   94 IE=  106 IFin=   93
          NO(<0.9)=   0  NV(>0.1)=   0     93.00e < EF      0.00e >EF  Err=0.0D+00
 Gap=     0.156 Goal=   None    Shift=    0.500
 T=  191. Gap= 0.656 NK=4 IS=   93 IE=  105 IFin=   92
          NO(<0.9)=   0  NV(>0.1)=   0     92.00e < EF      0.00e >EF  Err=0.0D+00
 GapD=    0.156 DampG=1.000 DampE=1.000 DampFc=1.0000 IDamp=-1.
 RMSDP=9.21D-05 MaxDP=3.27D-03 DE=-1.11D-03 OVMax= 6.41D-03

 Cycle   6  Pass 1  IDiag  1:
 E= -1130.26648028425     Delta-E=       -0.000435614957 Rises=F Damp=F
 DIIS: error= 1.26D-03 at cycle   6 NSaved=   6.
 NSaved= 6 IEnMin= 6 EnMin= -1130.26648028425     IErMin= 6 ErrMin= 1.26D-03
 ErrMax= 1.26D-03  0.00D+00 EMaxC= 1.00D+00 BMatC= 2.26D-04 BMatP= 6.77D-04
 IDIUse=1 WtCom= 1.00D+00 WtEn= 0.00D+00
 Coeff-Com: -0.457D-01 0.980D-01-0.951D-01-0.320D+00 0.536D-01 0.131D+01
 Coeff:     -0.457D-01 0.980D-01-0.951D-01-0.320D+00 0.536D-01 0.131D+01
 Gap=     0.279 Goal=   None    Shift=    0.500
 Gap=     0.158 Goal=   None    Shift=    0.500
 GapD=    0.158 DampG=1.000 DampE=1.000 DampFc=1.0000 IDamp=-1.
 RMSDP=5.82D-05 MaxDP=2.50D-03 DE=-4.36D-04 OVMax= 5.63D-03

 Cycle   7  Pass 1  IDiag  1:
 E= -1130.26672790694     Delta-E=       -0.000247622690 Rises=F Damp=F
 DIIS: error= 1.13D-03 at cycle   7 NSaved=   7.
 NSaved= 7 IEnMin= 7 EnMin= -1130.26672790694     IErMin= 7 ErrMin= 1.13D-03
 ErrMax= 1.13D-03  0.00D+00 EMaxC= 1.00D+00 BMatC= 1.13D-04 BMatP= 2.26D-04
 IDIUse=1 WtCom= 1.00D+00 WtEn= 0.00D+00
 Coeff-Com: -0.294D-01 0.318D-01 0.557D-02-0.876D-01-0.327D+00-0.183D+00
 Coeff-Com:  0.159D+01
 Coeff:     -0.294D-01 0.318D-01 0.557D-02-0.876D-01-0.327D+00-0.183D+00
 Coeff:      0.159D+01
 Gap=     0.280 Goal=   None    Shift=    0.500
 Gap=     0.159 Goal=   None    Shift=    0.500
 GapD=    0.159 DampG=1.000 DampE=1.000 DampFc=1.0000 IDamp=-1.
 RMSDP=3.66D-05 MaxDP=1.52D-03 DE=-2.48D-04 OVMax= 5.40D-03

 Cycle   8  Pass 1  IDiag  1:
 E= -1130.26688539408     Delta-E=       -0.000157487143 Rises=F Damp=F
 DIIS: error= 9.93D-04 at cycle   8 NSaved=   8.
 NSaved= 8 IEnMin= 8 EnMin= -1130.26688539408     IErMin= 8 ErrMin= 9.93D-04
 ErrMax= 9.93D-04  0.00D+00 EMaxC= 1.00D+00 BMatC= 6.52D-05 BMatP= 1.13D-04
 IDIUse=1 WtCom= 1.00D+00 WtEn= 0.00D+00
 Coeff-Com:  0.105D-01-0.353D-01 0.457D-01 0.108D+00-0.159D+00-0.891D+00
 Coeff-Com:  0.182D+00 0.174D+01
 Coeff:      0.105D-01-0.353D-01 0.457D-01 0.108D+00-0.159D+00-0.891D+00
 Coeff:      0.182D+00 0.174D+01
 Gap=     0.280 Goal=   None    Shift=    0.500
 Gap=     0.160 Goal=   None    Shift=    0.500
 RMSDP=2.63D-05 MaxDP=9.22D-04 DE=-1.57D-04 OVMax= 5.28D-03

 Cycle   9  Pass 1  IDiag  1:
 E= -1130.26699273488     Delta-E=       -0.000107340796 Rises=F Damp=F
 DIIS: error= 8.50D-04 at cycle   9 NSaved=   9.
 NSaved= 9 IEnMin= 9 EnMin= -1130.26699273488     IErMin= 9 ErrMin= 8.50D-04
 ErrMax= 8.50D-04  0.00D+00 EMaxC= 1.00D+00 BMatC= 3.70D-05 BMatP= 6.52D-05
 IDIUse=1 WtCom= 1.00D+00 WtEn= 0.00D+00
 Coeff-Com:  0.124D-01-0.179D-01 0.570D-02 0.355D-01 0.177D+00-0.191D+00
 Coeff-Com: -0.885D+00-0.251D+00 0.211D+01
 Coeff:      0.124D-01-0.179D-01 0.570D-02 0.355D-01 0.177D+00-0.191D+00
 Coeff:     -0.885D+00-0.251D+00 0.211D+01
 Gap=     0.280 Goal=   None    Shift=    0.500
 Gap=     0.161 Goal=   None    Shift=    0.500
 RMSDP=1.87D-05 MaxDP=7.94D-04 DE=-1.07D-04 OVMax= 4.83D-03

 Cycle  10  Pass 1  IDiag  1:
 E= -1130.26706197648     Delta-E=       -0.000069241599 Rises=F Damp=F
 DIIS: error= 7.25D-04 at cycle  10 NSaved=  10.
 NSaved=10 IEnMin=10 EnMin= -1130.26706197648     IErMin=10 ErrMin= 7.25D-04
 ErrMax= 7.25D-04  0.00D+00 EMaxC= 1.00D+00 BMatC= 2.25D-05 BMatP= 3.70D-05
 IDIUse=1 WtCom= 1.00D+00 WtEn= 0.00D+00
 Coeff-Com: -0.648D-03 0.626D-02-0.111D-01-0.437D-01 0.150D+00 0.288D+00
 Coeff-Com: -0.592D+00-0.592D+00-0.273D+00 0.207D+01
 Coeff:     -0.648D-03 0.626D-02-0.111D-01-0.437D-01 0.150D+00 0.288D+00
 Coeff:     -0.592D+00-0.592D+00-0.273D+00 0.207D+01
 Gap=     0.280 Goal=   None    Shift=    0.500
 Gap=     0.161 Goal=   None    Shift=    0.500
 RMSDP=1.46D-05 MaxDP=6.82D-04 DE=-6.92D-05 OVMax= 4.10D-03

 Cycle  11  Pass 1  IDiag  1:
 E= -1130.26710486394     Delta-E=       -0.000042887464 Rises=F Damp=F
 DIIS: error= 6.09D-04 at cycle  11 NSaved=  11.
 NSaved=11 IEnMin=11 EnMin= -1130.26710486394     IErMin=11 ErrMin= 6.09D-04
 ErrMax= 6.09D-04  0.00D+00 EMaxC= 1.00D+00 BMatC= 1.45D-05 BMatP= 2.25D-05
 IDIUse=1 WtCom= 1.00D+00 WtEn= 0.00D+00
 Coeff-Com: -0.810D-02 0.979D-02-0.777D-04-0.542D-01-0.703D-01 0.308D+00
 Coeff-Com:  0.288D+00 0.218D-01-0.211D+01 0.222D+00 0.239D+01
 Coeff:     -0.810D-02 0.979D-02-0.777D-04-0.542D-01-0.703D-01 0.308D+00
 Coeff:      0.288D+00 0.218D-01-0.211D+01 0.222D+00 0.239D+01
 Gap=     0.280 Goal=   None    Shift=    0.500
 Gap=     0.161 Goal=   None    Shift=    0.500
 RMSDP=1.29D-05 MaxDP=8.81D-04 DE=-4.29D-05 OVMax= 3.64D-03

 Cycle  12  Pass 1  IDiag  1:
 E= -1130.26713335114     Delta-E=       -0.000028487199 Rises=F Damp=F
 DIIS: error= 5.18D-04 at cycle  12 NSaved=  12.
 NSaved=12 IEnMin=12 EnMin= -1130.26713335114     IErMin=12 ErrMin= 5.18D-04
 ErrMax= 5.18D-04  0.00D+00 EMaxC= 1.00D+00 BMatC= 1.02D-05 BMatP= 1.45D-05
 IDIUse=1 WtCom= 1.00D+00 WtEn= 0.00D+00
 Coeff-Com: -0.146D-02-0.525D-02 0.133D-01-0.203D-01-0.125D+00 0.831D-01
 Coeff-Com:  0.427D+00 0.307D+00-0.122D+01-0.940D+00 0.966D+00 0.152D+01
 Coeff:     -0.146D-02-0.525D-02 0.133D-01-0.203D-01-0.125D+00 0.831D-01
 Coeff:      0.427D+00 0.307D+00-0.122D+01-0.940D+00 0.966D+00 0.152D+01
 Gap=     0.280 Goal=   None    Shift=    0.500
 Gap=     0.161 Goal=   None    Shift=    0.500
 RMSDP=8.81D-06 MaxDP=5.34D-04 DE=-2.85D-05 OVMax= 2.90D-03

 Cycle  13  Pass 1  IDiag  1:
 E= -1130.26715052848     Delta-E=       -0.000017177342 Rises=F Damp=F
 DIIS: error= 4.22D-04 at cycle  13 NSaved=  13.
 NSaved=13 IEnMin=13 EnMin= -1130.26715052848     IErMin=13 ErrMin= 4.22D-04
 ErrMax= 4.22D-04  0.00D+00 EMaxC= 1.00D+00 BMatC= 6.56D-06 BMatP= 1.02D-05
 IDIUse=1 WtCom= 1.00D+00 WtEn= 0.00D+00
 Coeff-Com:  0.637D-02-0.155D-01 0.147D-01 0.232D-01-0.625D-01-0.145D+00
 Coeff-Com:  0.120D+00 0.232D+00 0.640D+00-0.111D+01-0.786D+00-0.425D+00
 Coeff-Com:  0.250D+01
 Coeff:      0.637D-02-0.155D-01 0.147D-01 0.232D-01-0.625D-01-0.145D+00
 Coeff:      0.120D+00 0.232D+00 0.640D+00-0.111D+01-0.786D+00-0.425D+00
 Coeff:      0.250D+01
 Gap=     0.280 Goal=   None    Shift=    0.500
 Gap=     0.162 Goal=   None    Shift=    0.500
 RMSDP=8.43D-06 MaxDP=5.31D-04 DE=-1.72D-05 OVMax= 2.46D-03

 Cycle  14  Pass 1  IDiag  1:
 E= -1130.26716192586     Delta-E=       -0.000011397378 Rises=F Damp=F
 DIIS: error= 3.51D-04 at cycle  14 NSaved=  14.
 NSaved=14 IEnMin=14 EnMin= -1130.26716192586     IErMin=14 ErrMin= 3.51D-04
 ErrMax= 3.51D-04  0.00D+00 EMaxC= 1.00D+00 BMatC= 5.13D-06 BMatP= 6.56D-06
 IDIUse=1 WtCom= 1.00D+00 WtEn= 0.00D+00
 Coeff-Com:  0.353D-02-0.406D-02-0.700D-03 0.143D-01 0.460D-01-0.591D-01
 Coeff-Com: -0.248D+00-0.103D+00 0.996D+00 0.218D+00-0.799D+00-0.258D+01
 Coeff-Com:  0.167D+01 0.185D+01
 Coeff:      0.353D-02-0.406D-02-0.700D-03 0.143D-01 0.460D-01-0.591D-01
 Coeff:     -0.248D+00-0.103D+00 0.996D+00 0.218D+00-0.799D+00-0.258D+01
 Coeff:      0.167D+01 0.185D+01
 Gap=     0.280 Goal=   None    Shift=    0.500
 Gap=     0.162 Goal=   None    Shift=    0.500
 RMSDP=6.69D-06 MaxDP=3.73D-04 DE=-1.14D-05 OVMax= 2.04D-03

 Cycle  15  Pass 1  IDiag  1:
 E= -1130.26716969409     Delta-E=       -0.000007768229 Rises=F Damp=F
 DIIS: error= 2.88D-04 at cycle  15 NSaved=  15.
 NSaved=15 IEnMin=15 EnMin= -1130.26716969409     IErMin=15 ErrMin= 2.88D-04
 ErrMax= 2.88D-04  0.00D+00 EMaxC= 1.00D+00 BMatC= 3.61D-06 BMatP= 5.13D-06
 IDIUse=1 WtCom= 1.00D+00 WtEn= 0.00D+00
 Coeff-Com:  0.373D-03 0.210D-02-0.524D-02-0.245D-02 0.553D-01 0.337D-01
 Coeff-Com: -0.240D+00-0.155D+00 0.416D+00 0.703D+00-0.218D+00-0.231D+01
 Coeff-Com:  0.829D+00 0.351D+00 0.154D+01
 Coeff:      0.373D-03 0.210D-02-0.524D-02-0.245D-02 0.553D-01 0.337D-01
 Coeff:     -0.240D+00-0.155D+00 0.416D+00 0.703D+00-0.218D+00-0.231D+01
 Coeff:      0.829D+00 0.351D+00 0.154D+01
 Gap=     0.280 Goal=   None    Shift=    0.500
 Gap=     0.162 Goal=   None    Shift=    0.500
 RMSDP=4.80D-06 MaxDP=2.70D-04 DE=-7.77D-06 OVMax= 1.61D-03

 Cycle  16  Pass 1  IDiag  1:
 E= -1130.26717487199     Delta-E=       -0.000005177899 Rises=F Damp=F
 DIIS: error= 2.33D-04 at cycle  16 NSaved=  16.
 NSaved=16 IEnMin=16 EnMin= -1130.26717487199     IErMin=16 ErrMin= 2.33D-04
 ErrMax= 2.33D-04  0.00D+00 EMaxC= 1.00D+00 BMatC= 2.37D-06 BMatP= 3.61D-06
 IDIUse=1 WtCom= 1.00D+00 WtEn= 0.00D+00
 Coeff-Com: -0.254D-02 0.346D-02-0.807D-03-0.177D-01-0.133D-01 0.863D-01
 Coeff-Com:  0.825D-01 0.127D-01-0.743D+00 0.348D+00 0.713D+00 0.350D+00
 Coeff-Com: -0.406D+00-0.203D+01-0.546D+00 0.316D+01
 Coeff:     -0.254D-02 0.346D-02-0.807D-03-0.177D-01-0.133D-01 0.863D-01
 Coeff:      0.825D-01 0.127D-01-0.743D+00 0.348D+00 0.713D+00 0.350D+00
 Coeff:     -0.406D+00-0.203D+01-0.546D+00 0.316D+01
 Gap=     0.280 Goal=   None    Shift=    0.500
 Gap=     0.162 Goal=   None    Shift=    0.500
 RMSDP=5.00D-06 MaxDP=2.75D-04 DE=-5.18D-06 OVMax= 1.42D-03

 Cycle  17  Pass 1  IDiag  1:
 E= -1130.26717877109     Delta-E=       -0.000003899097 Rises=F Damp=F
 DIIS: error= 1.89D-04 at cycle  17 NSaved=  17.
 NSaved=17 IEnMin=17 EnMin= -1130.26717877109     IErMin=17 ErrMin= 1.89D-04
 ErrMax= 1.89D-04  0.00D+00 EMaxC= 1.00D+00 BMatC= 1.87D-06 BMatP= 2.37D-06
 IDIUse=1 WtCom= 1.00D+00 WtEn= 0.00D+00
 Coeff-Com: -0.172D-02 0.875D-03 0.235D-02-0.138D-01-0.311D-01 0.509D-01
 Coeff-Com:  0.166D+00 0.549D-01-0.707D+00 0.125D-01 0.624D+00 0.909D+00
 Coeff-Com: -0.312D+00-0.194D+01-0.124D+01 0.252D+01 0.912D+00
 Coeff:     -0.172D-02 0.875D-03 0.235D-02-0.138D-01-0.311D-01 0.509D-01
 Coeff:      0.166D+00 0.549D-01-0.707D+00 0.125D-01 0.624D+00 0.909D+00
 Coeff:     -0.312D+00-0.194D+01-0.124D+01 0.252D+01 0.912D+00
 Gap=     0.280 Goal=   None    Shift=    0.500
 Gap=     0.162 Goal=   None    Shift=    0.500
 RMSDP=3.37D-06 MaxDP=1.99D-04 DE=-3.90D-06 OVMax= 1.17D-03

 Cycle  18  Pass 1  IDiag  1:
 E= -1130.26718142600     Delta-E=       -0.000002654914 Rises=F Damp=F
 DIIS: error= 1.52D-04 at cycle  18 NSaved=  18.
 NSaved=18 IEnMin=18 EnMin= -1130.26718142600     IErMin=18 ErrMin= 1.52D-04
 ErrMax= 1.52D-04  0.00D+00 EMaxC= 1.00D+00 BMatC= 1.24D-06 BMatP= 1.87D-06
 IDIUse=1 WtCom= 1.00D+00 WtEn= 0.00D+00
 Coeff-Com:  0.151D-02-0.356D-02 0.334D-02 0.921D-02-0.154D-01-0.658D-01
 Coeff-Com:  0.730D-01 0.260D-02 0.339D+00-0.478D+00-0.262D+00 0.141D-01
 Coeff-Com:  0.718D+00 0.773D+00-0.110D+01-0.675D+00-0.278D+01 0.445D+01
 Coeff:      0.151D-02-0.356D-02 0.334D-02 0.921D-02-0.154D-01-0.658D-01
 Coeff:      0.730D-01 0.260D-02 0.339D+00-0.478D+00-0.262D+00 0.141D-01
 Coeff:      0.718D+00 0.773D+00-0.110D+01-0.675D+00-0.278D+01 0.445D+01
 Gap=     0.280 Goal=   None    Shift=    0.500
 Gap=     0.162 Goal=   None    Shift=    0.500
 RMSDP=3.97D-06 MaxDP=2.42D-04 DE=-2.65D-06 OVMax= 1.16D-03

 Cycle  19  Pass 1  IDiag  1:
 E= -1130.26718349683     Delta-E=       -0.000002070835 Rises=F Damp=F
 DIIS: error= 1.22D-04 at cycle  19 NSaved=  19.
 NSaved=19 IEnMin=19 EnMin= -1130.26718349683     IErMin=19 ErrMin= 1.22D-04
 ErrMax= 1.22D-04  0.00D+00 EMaxC= 1.00D+00 BMatC= 1.19D-06 BMatP= 1.24D-06
 IDIUse=1 WtCom= 1.00D+00 WtEn= 0.00D+00
 Coeff-Com:  0.118D-02-0.227D-02 0.150D-02 0.630D-02-0.165D-02-0.342D-01
 Coeff-Com: -0.972D-02-0.303D-01 0.381D+00-0.232D+00-0.265D+00-0.636D+00
 Coeff-Com:  0.949D+00 0.839D+00-0.405D+00-0.497D+00-0.352D+01 0.317D+01
 Coeff-Com:  0.128D+01
 Coeff:      0.118D-02-0.227D-02 0.150D-02 0.630D-02-0.165D-02-0.342D-01
 Coeff:     -0.972D-02-0.303D-01 0.381D+00-0.232D+00-0.265D+00-0.636D+00
 Coeff:      0.949D+00 0.839D+00-0.405D+00-0.497D+00-0.352D+01 0.317D+01
 Coeff:      0.128D+01
 Gap=     0.280 Goal=   None    Shift=    0.500
 Gap=     0.162 Goal=   None    Shift=    0.500
 RMSDP=2.64D-06 MaxDP=1.43D-04 DE=-2.07D-06 OVMax= 9.42D-04

 Cycle  20  Pass 1  IDiag  1:
 E= -1130.26718486068     Delta-E=       -0.000001363848 Rises=F Damp=F
 DIIS: error= 9.59D-05 at cycle  20 NSaved=  20.
 NSaved=20 IEnMin=20 EnMin= -1130.26718486068     IErMin=20 ErrMin= 9.59D-05
 ErrMax= 9.59D-05  0.00D+00 EMaxC= 1.00D+00 BMatC= 8.74D-07 BMatP= 1.19D-06
 IDIUse=1 WtCom= 1.00D+00 WtEn= 0.00D+00
 Coeff-Com: -0.347D-04 0.243D-03-0.511D-03-0.127D-02 0.327D-02 0.220D-01
 Coeff-Com: -0.486D-01-0.132D-01 0.392D-01 0.154D+00-0.186D-01-0.662D+00
 Coeff-Com:  0.501D+00 0.676D-01 0.208D+00 0.518D+00-0.190D+01 0.813D+00
 Coeff-Com: -0.175D+01 0.308D+01
 Coeff:     -0.347D-04 0.243D-03-0.511D-03-0.127D-02 0.327D-02 0.220D-01
 Coeff:     -0.486D-01-0.132D-01 0.392D-01 0.154D+00-0.186D-01-0.662D+00
 Coeff:      0.501D+00 0.676D-01 0.208D+00 0.518D+00-0.190D+01 0.813D+00
 Coeff:     -0.175D+01 0.308D+01
 Gap=     0.280 Goal=   None    Shift=    0.500
 Gap=     0.162 Goal=   None    Shift=    0.500
 RMSDP=2.26D-06 MaxDP=1.03D-04 DE=-1.36D-06 OVMax= 8.19D-04

 Cycle  21  Pass 1  IDiag  1:
 E= -1130.26718577326     Delta-E=       -0.000000912582 Rises=F Damp=F
 DIIS: error= 7.77D-05 at cycle  21 NSaved=  20.
 NSaved=20 IEnMin=20 EnMin= -1130.26718577326     IErMin=20 ErrMin= 7.77D-05
 ErrMax= 7.77D-05  0.00D+00 EMaxC= 1.00D+00 BMatC= 6.53D-07 BMatP= 8.74D-07
 IDIUse=1 WtCom= 1.00D+00 WtEn= 0.00D+00
 Coeff-Com: -0.246D-03 0.426D-03-0.186D-02-0.505D-02 0.905D-02 0.189D-01
 Coeff-Com:  0.242D-01-0.154D+00 0.783D-01 0.947D-01 0.506D-01-0.185D-01
 Coeff-Com: -0.366D+00-0.168D+00 0.822D+00-0.156D+00 0.590D+00-0.323D+01
 Coeff-Com:  0.118D+01 0.222D+01
 Coeff:     -0.246D-03 0.426D-03-0.186D-02-0.505D-02 0.905D-02 0.189D-01
 Coeff:      0.242D-01-0.154D+00 0.783D-01 0.947D-01 0.506D-01-0.185D-01
 Coeff:     -0.366D+00-0.168D+00 0.822D+00-0.156D+00 0.590D+00-0.323D+01
 Coeff:      0.118D+01 0.222D+01
 Gap=     0.280 Goal=   None    Shift=    0.500
 Gap=     0.162 Goal=   None    Shift=    0.500
 RMSDP=1.74D-06 MaxDP=8.52D-05 DE=-9.13D-07 OVMax= 6.84D-04

 Cycle  22  Pass 1  IDiag  1:
 E= -1130.26718635720     Delta-E=       -0.000000583935 Rises=F Damp=F
 DIIS: error= 6.29D-05 at cycle  22 NSaved=  20.
 NSaved=20 IEnMin=20 EnMin= -1130.26718635720     IErMin=20 ErrMin= 6.29D-05
 ErrMax= 6.29D-05  0.00D+00 EMaxC= 1.00D+00 BMatC= 4.62D-07 BMatP= 6.53D-07
 IDIUse=1 WtCom= 1.00D+00 WtEn= 0.00D+00
 Coeff-Com: -0.915D-04-0.173D-02-0.188D-02-0.535D-02 0.396D-01-0.110D-01
 Coeff-Com: -0.522D-01-0.580D-01 0.692D-01 0.161D+00-0.170D-02-0.981D-01
 Coeff-Com: -0.438D+00 0.349D+00-0.224D+00 0.124D+01-0.128D+01-0.939D+00
 Coeff-Com: -0.191D+00 0.245D+01
 Coeff:     -0.915D-04-0.173D-02-0.188D-02-0.535D-02 0.396D-01-0.110D-01
 Coeff:     -0.522D-01-0.580D-01 0.692D-01 0.161D+00-0.170D-02-0.981D-01
 Coeff:     -0.438D+00 0.349D+00-0.224D+00 0.124D+01-0.128D+01-0.939D+00
 Coeff:     -0.191D+00 0.245D+01
 Gap=     0.280 Goal=   None    Shift=    0.500
 Gap=     0.162 Goal=   None    Shift=    0.500
 RMSDP=1.27D-06 MaxDP=5.57D-05 DE=-5.84D-07 OVMax= 5.44D-04

 Cycle  23  Pass 1  IDiag  1:
 E= -1130.26718671593     Delta-E=       -0.000000358729 Rises=F Damp=F
 DIIS: error= 5.02D-05 at cycle  23 NSaved=  20.
 NSaved=20 IEnMin=20 EnMin= -1130.26718671593     IErMin=20 ErrMin= 5.02D-05
 ErrMax= 5.02D-05  0.00D+00 EMaxC= 1.00D+00 BMatC= 3.05D-07 BMatP= 4.62D-07
 IDIUse=1 WtCom= 1.00D+00 WtEn= 0.00D+00
 Coeff-Com:  0.946D-03-0.139D-02-0.120D-01 0.225D-01-0.244D-01 0.863D-01
 Coeff-Com: -0.126D+00-0.155D-01-0.578D-01 0.248D+00 0.181D+00-0.300D+00
 Coeff-Com: -0.124D+00-0.819D+00 0.121D+01 0.904D+00-0.124D+01-0.178D+01
 Coeff-Com:  0.665D+00 0.218D+01
 Coeff:      0.946D-03-0.139D-02-0.120D-01 0.225D-01-0.244D-01 0.863D-01
 Coeff:     -0.126D+00-0.155D-01-0.578D-01 0.248D+00 0.181D+00-0.300D+00
 Coeff:     -0.124D+00-0.819D+00 0.121D+01 0.904D+00-0.124D+01-0.178D+01
 Coeff:      0.665D+00 0.218D+01
 Gap=     0.280 Goal=   None    Shift=    0.500
 Gap=     0.162 Goal=   None    Shift=    0.500
 RMSDP=9.51D-07 MaxDP=3.29D-05 DE=-3.59D-07 OVMax= 4.35D-04

 SCF Done:  E(ULC-wHPBE) =  -1130.26718672     A.U. after   23 cycles
            NFock= 23  Conv=0.95D-06     -V/T= 2.0045
 <Sx>= 0.0000 <Sy>= 0.0000 <Sz>= 0.5000 <S**2>= 0.7688 S= 0.5093
 <L.S>= 0.000000000000E+00
 KE= 1.125213750022D+03 PE=-6.981745619645D+03 EE= 2.539488759747D+03
 Annihilation of the first spin contaminant:
 S**2 before annihilation     0.7688,   after     0.7503
 Leave Link  502 at Sun Jan 17 21:06:59 2021, MaxMem=  4026531840 cpu:           10727.0 elap:            1344.4
 (Enter /opt/ohpc/pub/libs/gaussian/g16-A.03/sandybridge/g16/l508.exe)
 QCSCF skips out because SCF is already converged.
 Leave Link  508 at Sun Jan 17 21:06:59 2021, MaxMem=  4026531840 cpu:               0.0 elap:               0.0
 (Enter /opt/ohpc/pub/libs/gaussian/g16-A.03/sandybridge/g16/l601.exe)
 Copying SCF densities to generalized density rwf, IOpCl= 1 IROHF=0.

 **********************************************************************

            Population analysis using the SCF density.

 **********************************************************************

 Orbital symmetries:
 Alpha Orbitals:
       Occupied  (A) (A) (A) (A) (A) (A) (A) (A) (A) (A) (A) (A)
                 (A) (A) (A) (A) (A) (A) (A) (A) (A) (A) (A) (A)
                 (A) (A) (A) (A) (A) (A) (A) (A) (A) (A) (A) (A)
                 (A) (A) (A) (A) (A) (A) (A) (A) (A) (A) (A) (A)
                 (A) (A) (A) (A) (A) (A) (A) (A) (A) (A) (A) (A)
                 (A) (A) (A) (A) (A) (A) (A) (A) (A) (A) (A) (A)
                 (A) (A) (A) (A) (A) (A) (A) (A) (A) (A) (A) (A)
                 (A) (A) (A) (A) (A) (A) (A) (A) (A)
       Virtual   (A) (A) (A) (A) (A) (A) (A) (A) (A) (A) (A) (A)
                 (A) (A) (A) (A) (A) (A) (A) (A) (A) (A) (A) (A)
                 (A) (A) (A) (A) (A) (A) (A) (A) (A) (A) (A) (A)
                 (A) (A) (A) (A) (A) (A) (A) (A) (A) (A) (A) (A)
                 (A) (A) (A) (A) (A) (A) (A) (A) (A) (A) (A) (A)
                 (A) (A) (A) (A) (A) (A) (A) (A) (A) (A) (A) (A)
                 (A) (A) (A) (A) (A) (A) (A) (A) (A) (A) (A) (A)
                 (A) (A) (A) (A) (A) (A) (A) (A) (A) (A) (A) (A)
                 (A) (A) (A) (A) (A) (A) (A) (A) (A) (A) (A) (A)
                 (A) (A) (A) (A) (A) (A) (A) (A) (A) (A) (A) (A)
                 (A) (A) (A) (A) (A) (A) (A) (A) (A) (A) (A) (A)
                 (A) (A) (A) (A) (A) (A) (A) (A) (A) (A) (A) (A)
                 (A) (A) (A) (A) (A) (A) (A) (A) (A) (A) (A) (A)
                 (A) (A) (A) (A) (A) (A) (A) (A) (A) (A) (A) (A)
                 (A) (A) (A) (A) (A) (A) (A) (A) (A) (A) (A) (A)
                 (A) (A) (A) (A) (A) (A) (A) (A) (A) (A) (A) (A)
                 (A) (A) (A) (A) (A) (A) (A) (A) (A) (A) (A) (A)
                 (A) (A) (A) (A) (A) (A) (A) (A) (A) (A) (A) (A)
                 (A) (A) (A) (A) (A) (A) (A) (A) (A) (A) (A) (A)
                 (A) (A) (A) (A) (A) (A) (A) (A) (A) (A) (A) (A)
                 (A) (A) (A) (A) (A) (A) (A) (A) (A) (A) (A) (A)
                 (A) (A) (A) (A) (A) (A) (A) (A) (A) (A) (A) (A)
                 (A) (A) (A) (A) (A) (A) (A) (A) (A) (A) (A) (A)
                 (A) (A) (A) (A) (A) (A) (A) (A) (A) (A) (A) (A)
                 (A) (A) (A) (A) (A) (A) (A) (A) (A) (A) (A) (A)
                 (A) (A) (A) (A) (A) (A) (A) (A) (A) (A) (A) (A)
                 (A) (A) (A) (A) (A) (A) (A) (A) (A) (A) (A) (A)
                 (A) (A) (A) (A) (A) (A) (A) (A) (A) (A) (A) (A)
                 (A) (A) (A) (A) (A) (A) (A) (A) (A) (A) (A) (A)
                 (A) (A) (A) (A) (A) (A) (A) (A) (A) (A) (A) (A)
                 (A) (A) (A) (A) (A) (A) (A) (A) (A) (A) (A) (A)
                 (A) (A) (A) (A) (A) (A) (A) (A) (A) (A) (A) (A)
                 (A) (A) (A) (A) (A) (A) (A) (A) (A) (A) (A) (A)
                 (A) (A) (A) (A) (A) (A) (A) (A) (A) (A) (A) (A)
                 (A) (A) (A) (A) (A) (A) (A) (A) (A) (A) (A) (A)
                 (A) (A) (A) (A) (A) (A) (A) (A) (A) (A) (A) (A)
                 (A) (A) (A) (A) (A) (A) (A) (A) (A) (A) (A) (A)
                 (A) (A) (A) (A) (A) (A) (A) (A) (A) (A) (A) (A)
                 (A) (A) (A) (A) (A) (A) (A) (A) (A) (A) (A) (A)
                 (A) (A) (A) (A) (A) (A) (A) (A) (A) (A) (A) (A)
                 (A) (A) (A) (A) (A) (A) (A) (A) (A) (A) (A) (A)
                 (A) (A) (A) (A) (A) (A) (A) (A) (A) (A) (A) (A)
                 (A) (A) (A) (A) (A) (A) (A) (A) (A) (A) (A) (A)
                 (A) (A) (A) (A) (A) (A) (A) (A) (A) (A) (A) (A)
                 (A) (A) (A) (A) (A) (A)
 Beta  Orbitals:
       Occupied  (A) (A) (A) (A) (A) (A) (A) (A) (A) (A) (A) (A)
                 (A) (A) (A) (A) (A) (A) (A) (A) (A) (A) (A) (A)
                 (A) (A) (A) (A) (A) (A) (A) (A) (A) (A) (A) (A)
                 (A) (A) (A) (A) (A) (A) (A) (A) (A) (A) (A) (A)
                 (A) (A) (A) (A) (A) (A) (A) (A) (A) (A) (A) (A)
                 (A) (A) (A) (A) (A) (A) (A) (A) (A) (A) (A) (A)
                 (A) (A) (A) (A) (A) (A) (A) (A) (A) (A) (A) (A)
                 (A) (A) (A) (A) (A) (A) (A) (A)
       Virtual   (A) (A) (A) (A) (A) (A) (A) (A) (A) (A) (A) (A)
                 (A) (A) (A) (A) (A) (A) (A) (A) (A) (A) (A) (A)
                 (A) (A) (A) (A) (A) (A) (A) (A) (A) (A) (A) (A)
                 (A) (A) (A) (A) (A) (A) (A) (A) (A) (A) (A) (A)
                 (A) (A) (A) (A) (A) (A) (A) (A) (A) (A) (A) (A)
                 (A) (A) (A) (A) (A) (A) (A) (A) (A) (A) (A) (A)
                 (A) (A) (A) (A) (A) (A) (A) (A) (A) (A) (A) (A)
                 (A) (A) (A) (A) (A) (A) (A) (A) (A) (A) (A) (A)
                 (A) (A) (A) (A) (A) (A) (A) (A) (A) (A) (A) (A)
                 (A) (A) (A) (A) (A) (A) (A) (A) (A) (A) (A) (A)
                 (A) (A) (A) (A) (A) (A) (A) (A) (A) (A) (A) (A)
                 (A) (A) (A) (A) (A) (A) (A) (A) (A) (A) (A) (A)
                 (A) (A) (A) (A) (A) (A) (A) (A) (A) (A) (A) (A)
                 (A) (A) (A) (A) (A) (A) (A) (A) (A) (A) (A) (A)
                 (A) (A) (A) (A) (A) (A) (A) (A) (A) (A) (A) (A)
                 (A) (A) (A) (A) (A) (A) (A) (A) (A) (A) (A) (A)
                 (A) (A) (A) (A) (A) (A) (A) (A) (A) (A) (A) (A)
                 (A) (A) (A) (A) (A) (A) (A) (A) (A) (A) (A) (A)
                 (A) (A) (A) (A) (A) (A) (A) (A) (A) (A) (A) (A)
                 (A) (A) (A) (A) (A) (A) (A) (A) (A) (A) (A) (A)
                 (A) (A) (A) (A) (A) (A) (A) (A) (A) (A) (A) (A)
                 (A) (A) (A) (A) (A) (A) (A) (A) (A) (A) (A) (A)
                 (A) (A) (A) (A) (A) (A) (A) (A) (A) (A) (A) (A)
                 (A) (A) (A) (A) (A) (A) (A) (A) (A) (A) (A) (A)
                 (A) (A) (A) (A) (A) (A) (A) (A) (A) (A) (A) (A)
                 (A) (A) (A) (A) (A) (A) (A) (A) (A) (A) (A) (A)
                 (A) (A) (A) (A) (A) (A) (A) (A) (A) (A) (A) (A)
                 (A) (A) (A) (A) (A) (A) (A) (A) (A) (A) (A) (A)
                 (A) (A) (A) (A) (A) (A) (A) (A) (A) (A) (A) (A)
                 (A) (A) (A) (A) (A) (A) (A) (A) (A) (A) (A) (A)
                 (A) (A) (A) (A) (A) (A) (A) (A) (A) (A) (A) (A)
                 (A) (A) (A) (A) (A) (A) (A) (A) (A) (A) (A) (A)
                 (A) (A) (A) (A) (A) (A) (A) (A) (A) (A) (A) (A)
                 (A) (A) (A) (A) (A) (A) (A) (A) (A) (A) (A) (A)
                 (A) (A) (A) (A) (A) (A) (A) (A) (A) (A) (A) (A)
                 (A) (A) (A) (A) (A) (A) (A) (A) (A) (A) (A) (A)
                 (A) (A) (A) (A) (A) (A) (A) (A) (A) (A) (A) (A)
                 (A) (A) (A) (A) (A) (A) (A) (A) (A) (A) (A) (A)
                 (A) (A) (A) (A) (A) (A) (A) (A) (A) (A) (A) (A)
                 (A) (A) (A) (A) (A) (A) (A) (A) (A) (A) (A) (A)
                 (A) (A) (A) (A) (A) (A) (A) (A) (A) (A) (A) (A)
                 (A) (A) (A) (A) (A) (A) (A) (A) (A) (A) (A) (A)
                 (A) (A) (A) (A) (A) (A) (A) (A) (A) (A) (A) (A)
                 (A) (A) (A) (A) (A) (A) (A) (A) (A) (A) (A) (A)
                 (A) (A) (A) (A) (A) (A) (A)
 The electronic state is 2-A.
 Alpha  occ. eigenvalues --  -19.01372 -19.00391 -14.32449 -10.19154 -10.18406
 Alpha  occ. eigenvalues --  -10.18163 -10.17980 -10.17505 -10.14008 -10.13767
 Alpha  occ. eigenvalues --  -10.13734 -10.13420 -10.13413 -10.12947 -10.12871
 Alpha  occ. eigenvalues --  -10.12820 -10.12703 -10.12663 -10.12285 -10.12188
 Alpha  occ. eigenvalues --  -10.12185 -10.10508 -10.08994 -10.08991 -10.08351
 Alpha  occ. eigenvalues --  -10.08312 -10.08293  -1.20987  -1.20212  -1.17058
 Alpha  occ. eigenvalues --   -1.03853  -1.03528  -1.01737  -0.99052  -0.94778
 Alpha  occ. eigenvalues --   -0.94035  -0.92838  -0.92120  -0.91882  -0.90113
 Alpha  occ. eigenvalues --   -0.87917  -0.87144  -0.82421  -0.82201  -0.80387
 Alpha  occ. eigenvalues --   -0.79182  -0.78343  -0.77213  -0.74584  -0.74030
 Alpha  occ. eigenvalues --   -0.73698  -0.73095  -0.72659  -0.68652  -0.68247
 Alpha  occ. eigenvalues --   -0.67653  -0.67339  -0.65062  -0.64900  -0.63813
 Alpha  occ. eigenvalues --   -0.62926  -0.61632  -0.61458  -0.61095  -0.60698
 Alpha  occ. eigenvalues --   -0.60327  -0.60054  -0.59759  -0.59440  -0.58923
 Alpha  occ. eigenvalues --   -0.58543  -0.57302  -0.56413  -0.56123  -0.56002
 Alpha  occ. eigenvalues --   -0.54971  -0.54652  -0.53760  -0.53270  -0.52960
 Alpha  occ. eigenvalues --   -0.52601  -0.52330  -0.50506  -0.49261  -0.48619
 Alpha  occ. eigenvalues --   -0.46813  -0.45921  -0.45225  -0.44480  -0.41964
 Alpha  occ. eigenvalues --   -0.41199  -0.41149  -0.38933
 Alpha virt. eigenvalues --   -0.10954  -0.10330  -0.09815  -0.08379  -0.07430
 Alpha virt. eigenvalues --   -0.06310  -0.04915  -0.03322  -0.01482  -0.01185
 Alpha virt. eigenvalues --   -0.00568   0.00594   0.01088   0.02340   0.02603
 Alpha virt. eigenvalues --    0.03049   0.03483   0.03844   0.05027   0.05221
 Alpha virt. eigenvalues --    0.05746   0.06019   0.06177   0.06706   0.07386
 Alpha virt. eigenvalues --    0.07886   0.08061   0.08480   0.08827   0.10069
 Alpha virt. eigenvalues --    0.10241   0.10508   0.11003   0.11173   0.11419
 Alpha virt. eigenvalues --    0.11884   0.13194   0.13729   0.14125   0.14346
 Alpha virt. eigenvalues --    0.14557   0.15448   0.15609   0.15726   0.16201
 Alpha virt. eigenvalues --    0.16807   0.16997   0.17259   0.17647   0.18185
 Alpha virt. eigenvalues --    0.18256   0.18648   0.18922   0.19328   0.19902
 Alpha virt. eigenvalues --    0.20362   0.20500   0.20571   0.21620   0.21668
 Alpha virt. eigenvalues --    0.21900   0.22146   0.22471   0.22686   0.23035
 Alpha virt. eigenvalues --    0.23211   0.23700   0.24222   0.24423   0.25124
 Alpha virt. eigenvalues --    0.25356   0.25920   0.26311   0.26669   0.26949
 Alpha virt. eigenvalues --    0.27430   0.27822   0.28363   0.28757   0.29404
 Alpha virt. eigenvalues --    0.29776   0.29850   0.30187   0.30572   0.30615
 Alpha virt. eigenvalues --    0.30818   0.31555   0.31953   0.32181   0.32502
 Alpha virt. eigenvalues --    0.32701   0.33383   0.33609   0.33690   0.34044
 Alpha virt. eigenvalues --    0.34175   0.34767   0.35271   0.35399   0.36438
 Alpha virt. eigenvalues --    0.36604   0.36742   0.37162   0.37605   0.37724
 Alpha virt. eigenvalues --    0.38131   0.38628   0.38718   0.39182   0.39424
 Alpha virt. eigenvalues --    0.39790   0.40119   0.40833   0.40852   0.41338
 Alpha virt. eigenvalues --    0.41404   0.41971   0.41995   0.42262   0.42831
 Alpha virt. eigenvalues --    0.43179   0.43599   0.44455   0.44774   0.45340
 Alpha virt. eigenvalues --    0.45462   0.45967   0.46295   0.46586   0.47367
 Alpha virt. eigenvalues --    0.47626   0.47902   0.48725   0.48846   0.49075
 Alpha virt. eigenvalues --    0.49423   0.50137   0.51210   0.51469   0.51902
 Alpha virt. eigenvalues --    0.52058   0.52868   0.53426   0.53786   0.54754
 Alpha virt. eigenvalues --    0.56338   0.56607   0.57602   0.58210   0.58792
 Alpha virt. eigenvalues --    0.59364   0.59560   0.61193   0.61508   0.61632
 Alpha virt. eigenvalues --    0.62116   0.62957   0.63155   0.63537   0.63664
 Alpha virt. eigenvalues --    0.64746   0.65140   0.65490   0.66012   0.66509
 Alpha virt. eigenvalues --    0.66866   0.67022   0.68576   0.69080   0.69299
 Alpha virt. eigenvalues --    0.69964   0.71778   0.72556   0.73339   0.73879
 Alpha virt. eigenvalues --    0.74885   0.75978   0.77015   0.77566   0.78692
 Alpha virt. eigenvalues --    0.79234   0.80287   0.81447   0.83988   0.85093
 Alpha virt. eigenvalues --    0.86430   0.86731   0.88074   1.04348   1.06860
 Alpha virt. eigenvalues --    1.08090   1.13028   1.13181   1.14215   1.14706
 Alpha virt. eigenvalues --    1.15432   1.15819   1.16253   1.16308   1.16569
 Alpha virt. eigenvalues --    1.17257   1.18183   1.18553   1.19030   1.19416
 Alpha virt. eigenvalues --    1.20179   1.20469   1.20875   1.21360   1.21715
 Alpha virt. eigenvalues --    1.22280   1.22811   1.22931   1.23526   1.23719
 Alpha virt. eigenvalues --    1.24210   1.24547   1.25066   1.25494   1.26036
 Alpha virt. eigenvalues --    1.26599   1.26956   1.27217   1.27452   1.28330
 Alpha virt. eigenvalues --    1.29048   1.29946   1.30578   1.32570   1.32643
 Alpha virt. eigenvalues --    1.33150   1.33379   1.33962   1.34150   1.34622
 Alpha virt. eigenvalues --    1.35220   1.35640   1.35925   1.36127   1.36585
 Alpha virt. eigenvalues --    1.36723   1.36951   1.37434   1.37705   1.37979
 Alpha virt. eigenvalues --    1.38332   1.39199   1.39460   1.39721   1.39816
 Alpha virt. eigenvalues --    1.40514   1.40667   1.41420   1.41737   1.41932
 Alpha virt. eigenvalues --    1.42823   1.43074   1.43585   1.43914   1.44183
 Alpha virt. eigenvalues --    1.44372   1.44493   1.44738   1.44940   1.45205
 Alpha virt. eigenvalues --    1.46088   1.46235   1.46620   1.46892   1.47427
 Alpha virt. eigenvalues --    1.47698   1.48039   1.48294   1.48901   1.49119
 Alpha virt. eigenvalues --    1.50234   1.50325   1.51077   1.51520   1.52156
 Alpha virt. eigenvalues --    1.53128   1.53994   1.55133   1.56124   1.57411
 Alpha virt. eigenvalues --    1.57885   1.58921   1.59298   1.60424   1.61167
 Alpha virt. eigenvalues --    1.62787   1.64630   1.65892   1.66444   1.66980
 Alpha virt. eigenvalues --    1.67691   1.68191   1.68789   1.69628   1.70212
 Alpha virt. eigenvalues --    1.70542   1.70774   1.71286   1.71617   1.72040
 Alpha virt. eigenvalues --    1.72664   1.72907   1.73148   1.74112   1.74801
 Alpha virt. eigenvalues --    1.74990   1.75730   1.77205   1.77448   1.78532
 Alpha virt. eigenvalues --    1.79468   1.80081   1.80269   1.81234   1.81808
 Alpha virt. eigenvalues --    1.82183   1.82509   1.82636   1.82907   1.83189
 Alpha virt. eigenvalues --    1.83596   1.83857   1.83959   1.84412   1.85283
 Alpha virt. eigenvalues --    1.85834   1.86353   1.87488   1.87603   1.87771
 Alpha virt. eigenvalues --    1.89127   1.89280   1.90259   1.90634   1.91926
 Alpha virt. eigenvalues --    1.92297   1.92860   1.93362   1.93447   1.93929
 Alpha virt. eigenvalues --    1.95731   1.96151   1.96346   1.97460   1.98798
 Alpha virt. eigenvalues --    2.00609   2.02373   2.03802   2.04064   2.06962
 Alpha virt. eigenvalues --    2.08127   2.09143   2.11029   2.11612   2.12514
 Alpha virt. eigenvalues --    2.13280   2.14499   2.15379   2.16605   2.17781
 Alpha virt. eigenvalues --    2.18882   2.19312   2.19850   2.20529   2.20719
 Alpha virt. eigenvalues --    2.21134   2.21564   2.22130   2.22190   2.22635
 Alpha virt. eigenvalues --    2.22789   2.23793   2.24045   2.24524   2.25263
 Alpha virt. eigenvalues --    2.25880   2.26473   2.26885   2.27433   2.27888
 Alpha virt. eigenvalues --    2.28237   2.28357   2.28534   2.29210   2.29321
 Alpha virt. eigenvalues --    2.30690   2.30827   2.31406   2.34090   2.35244
 Alpha virt. eigenvalues --    2.36442   2.37933   2.39219   2.41899   2.42970
 Alpha virt. eigenvalues --    2.43684   2.44019   2.44906   2.46188   2.46491
 Alpha virt. eigenvalues --    2.47436   2.47521   2.48342   2.50176   2.50482
 Alpha virt. eigenvalues --    2.50604   2.50962   2.51782   2.53825   2.54048
 Alpha virt. eigenvalues --    2.54545   2.54819   2.55428   2.56123   2.57287
 Alpha virt. eigenvalues --    2.58702   2.58763   2.59396   2.60561   2.61667
 Alpha virt. eigenvalues --    2.62325   2.63091   2.63985   2.64530   2.64781
 Alpha virt. eigenvalues --    2.66137   2.66843   2.67670   2.69983   2.71795
 Alpha virt. eigenvalues --    2.71849   2.74099   2.74820   2.75292   2.75890
 Alpha virt. eigenvalues --    2.77168   2.78263   2.81983   2.82961   2.83158
 Alpha virt. eigenvalues --    2.84213   2.85777   2.87302   2.88585   2.89352
 Alpha virt. eigenvalues --    2.89745   2.90943   2.91956   2.92815   2.93250
 Alpha virt. eigenvalues --    2.94144   2.94836   2.95692   2.97454   2.97504
 Alpha virt. eigenvalues --    2.97759   2.98845   2.99666   3.00894   3.02441
 Alpha virt. eigenvalues --    3.02791   3.03891   3.05429   3.05714   3.06700
 Alpha virt. eigenvalues --    3.07437   3.08226   3.09394   3.10457   3.11255
 Alpha virt. eigenvalues --    3.11737   3.12788   3.13272   3.13938   3.15522
 Alpha virt. eigenvalues --    3.16686   3.17913   3.19215   3.20313   3.23175
 Alpha virt. eigenvalues --    3.23923   3.25539   3.27110   3.28776   3.29698
 Alpha virt. eigenvalues --    3.30048   3.33626   3.33920   3.42814   3.44279
 Alpha virt. eigenvalues --    3.45331   3.46092   3.46655   3.47924   3.60072
 Alpha virt. eigenvalues --    3.70662   3.71318   3.78872   3.95658   3.96483
 Alpha virt. eigenvalues --    4.21122   4.21985  20.98291  21.11300  21.13793
 Alpha virt. eigenvalues --   21.22284  21.52215  21.57375  21.59833  21.61635
 Alpha virt. eigenvalues --   21.62986  21.63885  21.69907  21.74749  21.78741
 Alpha virt. eigenvalues --   21.83693  21.84739  21.84968  21.87011  21.88720
 Alpha virt. eigenvalues --   21.90307  21.91883  21.96478  21.99865  22.02322
 Alpha virt. eigenvalues --   22.05111  31.86522  43.12281  43.14675
  Beta  occ. eigenvalues --  -19.01283 -19.00409 -14.31643 -10.19040 -10.18468
  Beta  occ. eigenvalues --  -10.18230 -10.18007 -10.17512 -10.13905 -10.13671
  Beta  occ. eigenvalues --  -10.13550 -10.13279 -10.13273 -10.12968 -10.12751
  Beta  occ. eigenvalues --  -10.12692 -10.12630 -10.12578 -10.12311 -10.12246
  Beta  occ. eigenvalues --  -10.12241 -10.10524 -10.08960 -10.08957 -10.08341
  Beta  occ. eigenvalues --  -10.08326 -10.08281  -1.20826  -1.20243  -1.16028
  Beta  occ. eigenvalues --   -1.03635  -1.03332  -1.01467  -0.98948  -0.94571
  Beta  occ. eigenvalues --   -0.93822  -0.92722  -0.91966  -0.91720  -0.89789
  Beta  occ. eigenvalues --   -0.87882  -0.86900  -0.82173  -0.82007  -0.80188
  Beta  occ. eigenvalues --   -0.79008  -0.78221  -0.77082  -0.74495  -0.73924
  Beta  occ. eigenvalues --   -0.73606  -0.72968  -0.72479  -0.68531  -0.68040
  Beta  occ. eigenvalues --   -0.67236  -0.67169  -0.64856  -0.64779  -0.63703
  Beta  occ. eigenvalues --   -0.62823  -0.61500  -0.61328  -0.61025  -0.60554
  Beta  occ. eigenvalues --   -0.60125  -0.59736  -0.59572  -0.59285  -0.58845
  Beta  occ. eigenvalues --   -0.57952  -0.57044  -0.56344  -0.55990  -0.55878
  Beta  occ. eigenvalues --   -0.54582  -0.54414  -0.53273  -0.53155  -0.52733
  Beta  occ. eigenvalues --   -0.52522  -0.52245  -0.49330  -0.49219  -0.48475
  Beta  occ. eigenvalues --   -0.46157  -0.45268  -0.44840  -0.43144  -0.41140
  Beta  occ. eigenvalues --   -0.41106  -0.39942
  Beta virt. eigenvalues --   -0.23756  -0.10293  -0.10007  -0.09227  -0.07907
  Beta virt. eigenvalues --   -0.06923  -0.05527  -0.04833  -0.02787  -0.01439
  Beta virt. eigenvalues --   -0.01152  -0.00496   0.00669   0.01161   0.02390
[...]
     5   Atom        0.005037     -0.010639      0.005602
     6   Atom       -0.010444      0.023886     -0.013443
     7   Atom        0.002302     -0.000370     -0.001932
     8   Atom       -0.000126     -0.000954      0.001080
     9   Atom        0.000741     -0.000668     -0.000072
    10   Atom       -0.000115     -0.000951      0.001065
    11   Atom       -0.073106     -0.014036      0.087142
    12   Atom        0.022261      0.002666     -0.024927
    13   Atom        0.023523      0.002082     -0.025605
    14   Atom       -0.056230      0.038830      0.017400
    15   Atom       -0.053734      0.037683      0.016051
    16   Atom        0.006552     -0.022014      0.015462
    17   Atom        0.001564     -0.000618     -0.000946
    18   Atom        0.001599     -0.000588     -0.001011
    19   Atom       -0.002803      0.003502     -0.000698
    20   Atom       -0.003148      0.003560     -0.000411
    21   Atom        0.000749     -0.000671     -0.000077
    22   Atom       -0.495872     -0.493173      0.989045
    23   Atom       -0.004777      0.014082     -0.009305
    24   Atom        0.018698     -0.033656      0.014958
    25   Atom       -0.000740     -0.022795      0.023536
    26   Atom        0.007573      0.015822     -0.023395
    27   Atom        0.008930      0.019519     -0.028450
    28   Atom       -0.034851     -0.052083      0.086934
    29   Atom        0.000755     -0.000531     -0.000224
    30   Atom        0.003995     -0.003822     -0.000173
    31   Atom        0.000839      0.000769     -0.001609
    32   Atom       -0.002878      0.006445     -0.003568
    33   Atom       -0.009432     -0.007449      0.016881
    34   Atom        0.058425     -0.030019     -0.028406
    35   Atom        0.017111      0.012226     -0.029337
    36   Atom        0.004175      0.000424     -0.004599
    37   Atom       -0.006682      0.012433     -0.005751
    38   Atom        0.009465     -0.022961      0.013496
    39   Atom        0.000147     -0.001668      0.001521
    40   Atom       -0.000303     -0.001216      0.001520
    41   Atom       -0.000399      0.000017      0.000382
    42   Atom       -0.000762      0.000330      0.000431
    43   Atom        0.032429     -0.039058      0.006630
    44   Atom        0.002309     -0.003621      0.001312
    45   Atom        0.012531      0.010424     -0.022955
    46   Atom        0.001962     -0.001796     -0.000166
 --------------------------------------------------------
                        XY            XZ            YZ
 --------------------------------------------------------
     1   Atom        0.000512     -0.000047     -0.003792
     2   Atom        0.001486      0.000357      0.010820
     3   Atom        0.009568     -0.000885      0.001255
     4   Atom       -0.001731     -0.000357     -0.003731
     5   Atom       -0.000379      0.000081      0.001601
     6   Atom       -0.007478      0.000792      0.001656
     7   Atom       -0.000074     -0.000098      0.000387
     8   Atom        0.000007     -0.000073     -0.001188
     9   Atom       -0.000082     -0.000102     -0.000082
    10   Atom       -0.000123      0.000059     -0.001193
    11   Atom        0.004516      0.007339      0.104207
    12   Atom       -0.004515     -0.007376     -0.025596
    13   Atom        0.001276      0.002463     -0.027023
    14   Atom       -0.013177     -0.007433      0.083190
    15   Atom        0.021931      0.015371      0.082687
    16   Atom        0.001965      0.005127     -0.003411
    17   Atom        0.000505     -0.000385     -0.001955
    18   Atom       -0.000803      0.000123     -0.001864
    19   Atom        0.001469     -0.002106     -0.005330
    20   Atom       -0.001647      0.001739     -0.005257
    21   Atom       -0.000012      0.000053     -0.000089
    22   Atom       -0.001392      0.038425     -0.074810
    23   Atom       -0.016820      0.019668      0.012539
    24   Atom        0.034686     -0.065569     -0.036785
    25   Atom        0.057491     -0.081036     -0.062735
    26   Atom       -0.011788      0.024874      0.019807
    27   Atom       -0.014665      0.030311      0.019258
    28   Atom        0.029670     -0.086733     -0.063331
    29   Atom        0.002656      0.003503      0.003732
    30   Atom        0.001020      0.006031     -0.000019
    31   Atom       -0.001952      0.001308      0.000333
    32   Atom       -0.007917     -0.004059     -0.001689
    33   Atom        0.007123      0.016770     -0.006934
    34   Atom       -0.032752      0.034600     -0.015273
    35   Atom       -0.053020      0.023344     -0.017482
    36   Atom        0.009541     -0.006929      0.009375
    37   Atom        0.005612     -0.014097      0.004541
    38   Atom       -0.035565      0.062412     -0.039249
    39   Atom       -0.001003     -0.004479      0.002778
    40   Atom       -0.000738     -0.004393      0.002429
    41   Atom        0.001100     -0.001487      0.000641
    42   Atom        0.001003     -0.001303      0.000862
    43   Atom       -0.070858      0.100805     -0.064255
    44   Atom        0.001207     -0.004843     -0.001897
    45   Atom       -0.007999      0.021649      0.015145
    46   Atom        0.000341      0.001770     -0.000127
 --------------------------------------------------------


 ---------------------------------------------------------------------------------
              Anisotropic Spin Dipole Couplings in Principal Axis System
 ---------------------------------------------------------------------------------

       Atom             a.u.   MegaHertz   Gauss  10(-4) cm-1        Axes

              Baa    -0.0110    -1.473    -0.526    -0.491 -0.0274  0.9663  0.2559
     1 C(13)  Bbb     0.0043     0.581     0.207     0.194  0.0762 -0.2533  0.9644
              Bcc     0.0067     0.893     0.319     0.298  0.9967  0.0459 -0.0667
 
              Baa    -0.0152    -2.045    -0.730    -0.682  0.0177 -0.2571  0.9662
     2 C(13)  Bbb    -0.0132    -1.772    -0.632    -0.591  0.9992 -0.0309 -0.0265
              Bcc     0.0284     3.817     1.362     1.273  0.0367  0.9659  0.2564
 
              Baa    -0.0141    -1.886    -0.673    -0.629  0.4927 -0.1571  0.8559
     3 C(13)  Bbb    -0.0114    -1.527    -0.545    -0.509  0.8293 -0.2133 -0.5165
              Bcc     0.0254     3.413     1.218     1.139  0.2637  0.9643  0.0252
 
              Baa    -0.0110    -1.477    -0.527    -0.493  0.1003  0.9624  0.2526
     4 C(13)  Bbb     0.0043     0.581     0.207     0.194 -0.0403 -0.2497  0.9675
              Bcc     0.0067     0.896     0.320     0.299  0.9941 -0.1072  0.0137
 
              Baa    -0.0108    -1.450    -0.517    -0.484  0.0243  0.9950 -0.0972
     5 C(13)  Bbb     0.0050     0.677     0.241     0.226  0.9978 -0.0301 -0.0588
              Bcc     0.0058     0.773     0.276     0.258  0.0614  0.0955  0.9935
 
              Baa    -0.0141    -1.891    -0.675    -0.631 -0.4537 -0.1278  0.8820
     6 C(13)  Bbb    -0.0114    -1.531    -0.546    -0.511  0.8678  0.1618  0.4698
              Bcc     0.0255     3.422     1.221     1.141 -0.2028  0.9785  0.0375
 
              Baa    -0.0020    -1.080    -0.385    -0.360  0.0182 -0.2269  0.9737
     7 H(1)   Bbb    -0.0003    -0.151    -0.054    -0.050  0.0364  0.9734  0.2261
              Bcc     0.0023     1.231     0.439     0.411  0.9992 -0.0313 -0.0260
 
              Baa    -0.0015    -0.801    -0.286    -0.267  0.0177  0.9081  0.4184
     8 H(1)   Bbb    -0.0001    -0.068    -0.024    -0.023  0.9991 -0.0324  0.0281
              Bcc     0.0016     0.869     0.310     0.290 -0.0391 -0.4175  0.9078
 
              Baa    -0.0007    -0.366    -0.131    -0.122  0.0669  0.9873  0.1439
     9 H(1)   Bbb    -0.0001    -0.038    -0.014    -0.013  0.1089 -0.1506  0.9826
              Bcc     0.0008     0.404     0.144     0.135  0.9918 -0.0501 -0.1176
 
              Baa    -0.0015    -0.806    -0.288    -0.269  0.0621  0.9062  0.4183
    10 H(1)   Bbb    -0.0001    -0.062    -0.022    -0.021  0.9962 -0.0308 -0.0813
              Bcc     0.0016     0.867     0.310     0.289  0.0608 -0.4218  0.9046
 
              Baa    -0.0793   -10.639    -3.796    -3.549  0.0115  0.8473 -0.5310
    11 C(13)  Bbb    -0.0734    -9.854    -3.516    -3.287  0.9992 -0.0300 -0.0262
              Bcc     0.1527    20.493     7.313     6.836  0.0381  0.5303  0.8470
 
              Baa    -0.0414    -5.553    -1.982    -1.852  0.1346  0.5081  0.8507
    12 C(13)  Bbb     0.0179     2.408     0.859     0.803  0.0171  0.8572 -0.5147
              Bcc     0.0234     3.145     1.122     1.049  0.9907 -0.0839 -0.1067
 
              Baa    -0.0422    -5.668    -2.023    -1.891 -0.0420  0.5210  0.8525
    13 C(13)  Bbb     0.0186     2.495     0.890     0.832  0.0388  0.8535 -0.5197
              Bcc     0.0236     3.173     1.132     1.058  0.9984 -0.0112  0.0561
 
              Baa    -0.0599    -8.034    -2.867    -2.680  0.7947  0.4497 -0.4077
    14 C(13)  Bbb    -0.0534    -7.167    -2.557    -2.391  0.6007 -0.4864  0.6345
              Bcc     0.1133    15.202     5.424     5.071 -0.0870  0.7491  0.6567
 
              Baa    -0.0602    -8.078    -2.883    -2.695  0.7779 -0.4980  0.3832
    15 C(13)  Bbb    -0.0543    -7.283    -2.599    -2.429 -0.6086 -0.4453  0.6567
              Bcc     0.1145    15.361     5.481     5.124  0.1564  0.7441  0.6495
 
              Baa    -0.0225    -3.023    -1.079    -1.008 -0.0847  0.9913  0.1004
    16 C(13)  Bbb     0.0046     0.617     0.220     0.206  0.9119  0.1177 -0.3932
              Bcc     0.0179     2.406     0.859     0.803  0.4016 -0.0583  0.9139
 
              Baa    -0.0027    -1.464    -0.522    -0.488 -0.0140  0.6785  0.7345
    17 H(1)   Bbb     0.0007     0.380     0.135     0.127  0.5953 -0.5846  0.5513
              Bcc     0.0020     1.085     0.387     0.362  0.8034  0.4449 -0.3957
 
              Baa    -0.0027    -1.452    -0.518    -0.484  0.1050  0.6762  0.7292
    18 H(1)   Bbb     0.0006     0.334     0.119     0.112 -0.5494 -0.5718  0.6093
              Bcc     0.0021     1.118     0.399     0.373  0.8290 -0.4645  0.3115
 
              Baa    -0.0049    -2.592    -0.925    -0.865  0.4995  0.4017  0.7676
    19 H(1)   Bbb    -0.0028    -1.507    -0.538    -0.503  0.8367 -0.4532 -0.3074
              Bcc     0.0077     4.100     1.463     1.367  0.2244  0.7958 -0.5625
 
              Baa    -0.0044    -2.332    -0.832    -0.778 -0.5475  0.3804  0.7454
    20 H(1)   Bbb    -0.0033    -1.777    -0.634    -0.593  0.8097  0.4659  0.3569
              Bcc     0.0077     4.109     1.466     1.371 -0.2115  0.7989 -0.5630
 
              Baa    -0.0007    -0.365    -0.130    -0.122  0.0027  0.9895  0.1448
    21 H(1)   Bbb    -0.0001    -0.036    -0.013    -0.012 -0.0658 -0.1444  0.9873
              Bcc     0.0008     0.401     0.143     0.134  0.9978 -0.0122  0.0648
 
              Baa    -0.4974   -19.185    -6.846    -6.400 -0.6823  0.7290  0.0543
    22 N(14)  Bbb    -0.4964   -19.143    -6.831    -6.386  0.7306  0.6827  0.0155
              Bcc     0.9938    38.329    13.677    12.785  0.0258 -0.0503  0.9984
 
              Baa    -0.0354    -4.755    -1.697    -1.586 -0.6387 -0.3856  0.6658
    23 C(13)  Bbb     0.0115     1.538     0.549     0.513  0.6006  0.2911  0.7447
              Bcc     0.0240     3.217     1.148     1.073 -0.4810  0.8755  0.0456
 
              Baa    -0.0535    -7.175    -2.560    -2.393  0.0518  0.8580  0.5110
    24 C(13)  Bbb    -0.0479    -6.423    -2.292    -2.142  0.7423 -0.3754  0.5550
              Bcc     0.1013    13.597     4.852     4.536  0.6680  0.3505 -0.6564
 
              Baa    -0.0718    -9.641    -3.440    -3.216  0.8070 -0.4344  0.3999
    25 C(13)  Bbb    -0.0664    -8.913    -3.180    -2.973  0.1026  0.7702  0.6295
              Bcc     0.1383    18.554     6.620     6.189 -0.5815 -0.4670  0.6661
 
              Baa    -0.0458    -6.149    -2.194    -2.051 -0.4580 -0.3501  0.8171
    26 C(13)  Bbb     0.0213     2.853     1.018     0.952  0.8213  0.1851  0.5396
              Bcc     0.0246     3.296     1.176     1.099 -0.3402  0.9182  0.2028
 
              Baa    -0.0533    -7.149    -2.551    -2.385 -0.4747 -0.3132  0.8225
    27 C(13)  Bbb     0.0233     3.127     1.116     1.043  0.5855  0.5854  0.5608
              Bcc     0.0300     4.022     1.435     1.342 -0.6572  0.7478 -0.0945
 
              Baa    -0.0813   -10.904    -3.891    -3.637  0.7365  0.4133  0.5354
    28 C(13)  Bbb    -0.0743    -9.968    -3.557    -3.325 -0.5192  0.8529  0.0557
              Bcc     0.1555    20.872     7.448     6.962 -0.4336 -0.3190  0.8427
 
              Baa    -0.0042    -2.251    -0.803    -0.751 -0.2015 -0.6213  0.7572
    29 H(1)   Bbb    -0.0024    -1.282    -0.457    -0.428  0.7755 -0.5735 -0.2642
              Bcc     0.0066     3.533     1.261     1.178  0.5984  0.5339  0.5974
 
              Baa    -0.0048    -2.587    -0.923    -0.863 -0.5191  0.5284  0.6718
    30 H(1)   Bbb    -0.0035    -1.867    -0.666    -0.623  0.2593  0.8463 -0.4653
              Bcc     0.0083     4.454     1.589     1.486  0.8144  0.0674  0.5763
 
              Baa    -0.0026    -1.393    -0.497    -0.465 -0.5045 -0.3684  0.7809
    31 H(1)   Bbb    -0.0003    -0.141    -0.050    -0.047  0.4513  0.6585  0.6022
              Bcc     0.0029     1.534     0.547     0.512  0.7361 -0.6562  0.1659
 
              Baa    -0.0103    -5.472    -1.952    -1.825  0.7336  0.4031  0.5471
    32 H(1)   Bbb    -0.0007    -0.394    -0.141    -0.131 -0.4556 -0.3056  0.8361
              Bcc     0.0110     5.866     2.093     1.957 -0.5042  0.8626  0.0405
 
              Baa    -0.0233    -3.125    -1.115    -1.042  0.7549 -0.5165 -0.4043
    33 C(13)  Bbb    -0.0021    -0.278    -0.099    -0.093  0.5078  0.8503 -0.1382
              Bcc     0.0254     3.403     1.214     1.135  0.4152 -0.1010  0.9041
 
              Baa    -0.0445    -5.972    -2.131    -1.992 -0.0018  0.7236  0.6902
    34 C(13)  Bbb    -0.0376    -5.041    -1.799    -1.681 -0.4446 -0.6188  0.6476
              Bcc     0.0821    11.013     3.930     3.674  0.8957 -0.3057  0.3228
 
              Baa    -0.0413    -5.537    -1.976    -1.847  0.6465  0.4363 -0.6258
    35 C(13)  Bbb    -0.0345    -4.625    -1.650    -1.543  0.2969  0.6117  0.7332
              Bcc     0.0757    10.163     3.626     3.390  0.7027 -0.6599  0.2659
 
              Baa    -0.0177    -2.381    -0.850    -0.794  0.4649 -0.5864  0.6633
    36 C(13)  Bbb     0.0057     0.763     0.272     0.254 -0.4757  0.4664  0.7458
              Bcc     0.0121     1.619     0.578     0.540  0.7467  0.6623  0.0621
 
              Baa    -0.0218    -2.929    -1.045    -0.977  0.7064 -0.2055  0.6773
    37 C(13)  Bbb     0.0078     1.050     0.375     0.350 -0.6736  0.0986  0.7325
              Bcc     0.0140     1.879     0.671     0.627  0.2173  0.9737  0.0687
 
              Baa    -0.0515    -6.906    -2.464    -2.303 -0.6066  0.2719  0.7471
    38 C(13)  Bbb    -0.0458    -6.143    -2.192    -2.049  0.4808  0.8738  0.0724
              Bcc     0.0972    13.049     4.656     4.353  0.6332 -0.4031  0.6608
 
              Baa    -0.0043    -2.292    -0.818    -0.764  0.5613 -0.4906  0.6665
    39 H(1)   Bbb    -0.0020    -1.086    -0.388    -0.362  0.5823  0.8064  0.1033
              Bcc     0.0063     3.378     1.205     1.127 -0.5882  0.3301  0.7383
 
              Baa    -0.0043    -2.270    -0.810    -0.757  0.6613 -0.3637  0.6560
    40 H(1)   Bbb    -0.0016    -0.869    -0.310    -0.290  0.4830  0.8756 -0.0015
              Bcc     0.0059     3.139     1.120     1.047 -0.5739  0.3179  0.7547
 
              Baa    -0.0023    -1.201    -0.429    -0.401  0.7041 -0.4876  0.5163
    41 H(1)   Bbb     0.0007     0.371     0.132     0.124  0.2799  0.8587  0.4292
              Bcc     0.0016     0.830     0.296     0.277 -0.6526 -0.1576  0.7411
 
              Baa    -0.0023    -1.207    -0.431    -0.403  0.7376 -0.4521  0.5015
    42 H(1)   Bbb     0.0009     0.489     0.174     0.163  0.5800  0.8045 -0.1278
              Bcc     0.0013     0.718     0.256     0.239 -0.3457  0.3852  0.8556
 
              Baa    -0.0844     6.109     2.180     2.038 -0.0428  0.7933  0.6073
    43 O(17)  Bbb    -0.0814     5.889     2.101     1.964  0.7333  0.4378 -0.5202
              Bcc     0.1658   -11.998    -4.281    -4.002  0.6786 -0.4230  0.6005
 
              Baa    -0.0043    -2.310    -0.824    -0.771  0.1510  0.8906  0.4291
    44 H(1)   Bbb    -0.0028    -1.487    -0.531    -0.496  0.6776 -0.4093  0.6110
              Bcc     0.0071     3.798     1.355     1.267  0.7198  0.1985 -0.6652
 
              Baa    -0.0391     2.830     1.010     0.944 -0.4080 -0.3265  0.8526
    45 O(17)  Bbb     0.0163    -1.176    -0.420    -0.392 -0.0413  0.9395  0.3400
              Bcc     0.0229    -1.654    -0.590    -0.552  0.9121 -0.1035  0.3968
 
              Baa    -0.0019    -1.020    -0.364    -0.340 -0.2113  0.9358  0.2822
    46 H(1)   Bbb    -0.0011    -0.568    -0.203    -0.189 -0.4435 -0.3491  0.8255
              Bcc     0.0030     1.587     0.566     0.529  0.8710  0.0493  0.4888
 

 ---------------------------------------------------------------------------------

 No NMR shielding tensors so no spin-rotation constants.
 Leave Link  601 at Sun Jan 17 21:07:00 2021, MaxMem=  4026531840 cpu:               5.4 elap:               0.7
 (Enter /opt/ohpc/pub/libs/gaussian/g16-A.03/sandybridge/g16/l9999.exe)

 Test job not archived.
 1\1\GINC-CASCADEB002\SP\ULC-wHPBE\TZVP\C24H19N1O2(1+,2)\RDU230\17-Jan-
 2021\0\\#P LC-wHPBE/TZVP iop(3/107=0191200000, 3/108=0191200000) scf=(
 conver=6,fermi,ndamp=35,noincfock,novaracc,vshift=500,xqc)\\H19 C24 N1
  O2\\1,2\C,0,-6.538108,-0.217341,1.255514\C,0,-7.258661,0.087287,0.107
 878\C,0,-5.15139,-0.259049,1.219222\C,0,-6.580697,0.348691,-1.075777\C
 ,0,-4.458004,0.000662,0.035726\C,0,-5.193998,0.304569,-1.110911\H,0,-8
 .345644,0.121015,0.135956\H,0,-4.59391,-0.476283,2.12835\H,0,-7.136138
 ,0.581164,-1.982188\H,0,-4.671509,0.488761,-2.047704\C,0,-2.974479,-0.
 044963,-0.00277\C,0,-2.240322,0.918366,-0.694597\C,0,-2.265576,-1.0512
 97,0.654611\C,0,-0.856277,0.875925,-0.739808\C,0,-0.88157,-1.094369,0.
 628888\C,0,-0.155643,-0.133238,-0.077397\H,0,-2.762026,1.727417,-1.202
 285\H,0,-2.809037,-1.823891,1.195264\H,0,-0.306381,1.639189,-1.284917\
 H,0,-0.352632,-1.885069,1.15502\H,0,-7.059465,-0.416189,2.189743\N,0,1
 .257026,-0.160831,-0.103806\C,0,1.965402,-1.377887,-0.17457\C,0,3.1900
 04,-1.508547,0.478017\C,0,1.461496,-2.456008,-0.912094\C,0,3.903051,-2
 .696891,0.390217\C,0,2.178621,-3.638306,-0.97461\C,0,3.402953,-3.77505
 6,-0.332839\H,0,3.600761,-0.690157,1.062074\H,0,0.51484,-2.358097,-1.4
 35231\H,0,1.782807,-4.471654,-1.551437\H,0,3.963923,-4.706428,-0.39805
 5\C,0,1.972861,1.068372,-0.045814\C,0,2.971482,1.350948,-0.972341\C,0,
 1.683086,2.012203,0.939258\C,0,3.67678,2.543988,-0.910119\C,0,2.365608
 ,3.214996,0.992156\C,0,3.371443,3.4833,0.069272\H,0,3.205268,0.621566,
 -1.744392\H,0,0.904271,1.798314,1.667748\H,0,4.460878,2.747602,-1.6391
 97\H,0,2.139895,3.954598,1.756001\O,0,4.022986,4.680331,0.173244\H,0,4
 .695287,4.73835,-0.517835\O,0,5.097214,-2.751708,1.053752\H,0,5.479651
 ,-3.631493,0.941087\\Version=EM64L-G16RevA.03\State=2-A\HF=-1130.26718
 67\S2=0.768763\S2-1=0.\S2A=0.75032\RMSD=9.509e-07\Dipole=1.71351,-0.57
 72189,-0.7001933\Quadrupole=28.8097583,-2.0193235,-26.7904348,-3.14672
 36,-7.1684066,-4.4134364\PG=C01 [X(C24H19N1O2)]\\@


 IF AT FIRST YOU DON'T SUCCEED, TRY, TRY AGAIN.
 THEN GIVE UP;
 THERE'S NO USE BEING A DAMN FOOL ABOUT IT.

                                 -- W. C. FIELDS
 Job cpu time:       0 days  2 hours 59 minutes 59.0 seconds.
 Elapsed time:       0 days  0 hours 22 minutes 33.8 seconds.
 File lengths (MBytes):  RWF=    240 Int=      0 D2E=      0 Chk=     32 Scr=      8
 Normal termination of Gaussian 16 at Sun Jan 17 21:07:00 2021.
