 Entering Gaussian System, Link 0=g16
 Input=mol_bp_ma_half_tune_c10.gjf
 Output=mol_bp_ma_half_tune_c10.log
 Initial command:
 /opt/ohpc/pub/libs/gaussian/g16-A.03/sandybridge/g16/l1.exe "/mnt/gpfs2_4m/scratch/rdu230/ondemand/projects/init_structures/wtuning/mol_bp_ma_half/tuning_mol_bp_ma_half_ocycle0/Gau-95120.inp" -scrdir="/mnt/gpfs2_4m/scratch/rdu230/ondemand/projects/init_structures/wtuning/mol_bp_ma_half/tuning_mol_bp_ma_half_ocycle0/"
 Entering Link 1 = /opt/ohpc/pub/libs/gaussian/g16-A.03/sandybridge/g16/l1.exe PID=     95121.
  
 Copyright (c) 1988,1990,1992,1993,1995,1998,2003,2009,2016,
            Gaussian, Inc.  All Rights Reserved.
  
 This is part of the Gaussian(R) 16 program.  It is based on
 the Gaussian(R) 09 system (copyright 2009, Gaussian, Inc.),
 the Gaussian(R) 03 system (copyright 2003, Gaussian, Inc.),
 the Gaussian(R) 98 system (copyright 1998, Gaussian, Inc.),
 the Gaussian(R) 94 system (copyright 1995, Gaussian, Inc.),
 the Gaussian 92(TM) system (copyright 1992, Gaussian, Inc.),
 the Gaussian 90(TM) system (copyright 1990, Gaussian, Inc.),
 the Gaussian 88(TM) system (copyright 1988, Gaussian, Inc.),
 the Gaussian 86(TM) system (copyright 1986, Carnegie Mellon
 University), and the Gaussian 82(TM) system (copyright 1983,
 Carnegie Mellon University). Gaussian is a federally registered
 trademark of Gaussian, Inc.
  
 This software contains proprietary and confidential information,
 including trade secrets, belonging to Gaussian, Inc.
  
 This software is provided under written license and may be
 used, copied, transmitted, or stored only in accord with that
 written license.
  
 The following legend is applicable only to US Government
 contracts under FAR:
  
                    RESTRICTED RIGHTS LEGEND
  
 Use, reproduction and disclosure by the US Government is
 subject to restrictions as set forth in subparagraphs (a)
 and (c) of the Commercial Computer Software - Restricted
 Rights clause in FAR 52.227-19.
  
 Gaussian, Inc.
 340 Quinnipiac St., Bldg. 40, Wallingford CT 06492
  
  
 ---------------------------------------------------------------
 Warning -- This program may not be used in any manner that
 competes with the business of Gaussian, Inc. or will provide
 assistance to any competitor of Gaussian, Inc.  The licensee
 of this program is prohibited from giving any competitor of
 Gaussian, Inc. access to this program.  By using this program,
 the user acknowledges that Gaussian, Inc. is engaged in the
 business of creating and licensing software in the field of
 computational chemistry and represents and warrants to the
 licensee that it is not a competitor of Gaussian, Inc. and that
 it will not use this program in any manner prohibited above.
 ---------------------------------------------------------------
  

 Cite this work as:
 Gaussian 16, Revision A.03,
 M. J. Frisch, G. W. Trucks, H. B. Schlegel, G. E. Scuseria, 
 M. A. Robb, J. R. Cheeseman, G. Scalmani, V. Barone, 
 G. A. Petersson, H. Nakatsuji, X. Li, M. Caricato, A. V. Marenich, 
 J. Bloino, B. G. Janesko, R. Gomperts, B. Mennucci, H. P. Hratchian, 
 J. V. Ortiz, A. F. Izmaylov, J. L. Sonnenberg, D. Williams-Young, 
 F. Ding, F. Lipparini, F. Egidi, J. Goings, B. Peng, A. Petrone, 
 T. Henderson, D. Ranasinghe, V. G. Zakrzewski, J. Gao, N. Rega, 
 G. Zheng, W. Liang, M. Hada, M. Ehara, K. Toyota, R. Fukuda, 
 J. Hasegawa, M. Ishida, T. Nakajima, Y. Honda, O. Kitao, H. Nakai, 
 T. Vreven, K. Throssell, J. A. Montgomery, Jr., J. E. Peralta, 
 F. Ogliaro, M. J. Bearpark, J. J. Heyd, E. N. Brothers, K. N. Kudin, 
 V. N. Staroverov, T. A. Keith, R. Kobayashi, J. Normand, 
 K. Raghavachari, A. P. Rendell, J. C. Burant, S. S. Iyengar, 
 J. Tomasi, M. Cossi, J. M. Millam, M. Klene, C. Adamo, R. Cammi, 
 J. W. Ochterski, R. L. Martin, K. Morokuma, O. Farkas, 
 J. B. Foresman, and D. J. Fox, Gaussian, Inc., Wallingford CT, 2016.
 
 ******************************************
 Gaussian 16:  EM64L-G16RevA.03 25-Dec-2016
                17-Jan-2021 
 ******************************************
 %mem=30GB
 %nproc=8
 Will use up to    8 processors via shared memory.
 ----------------------------------------------------------------------
 #P LC-wHPBE/TZVP iop(3/107=0182300000, 3/108=0182300000) scf=(conver=6
 ,fermi,ndamp=35,noincfock,novaracc,vshift=500,xqc)
 ----------------------------------------------------------------------
 1/38=1,172=1/1;
 2/12=2,17=6,18=5,40=1/2;
 3/5=19,7=101,11=2,25=1,30=1,74=-71,107=182300000,108=182300000/1,2,3;
 4//1;
 5/5=100002,6=6,8=3,10=500,13=1,18=-1,22=13,38=1,93=35/2,8;
 6/7=2,8=2,9=2,10=2,28=1/1;
 99/5=1,9=1/99;
 Leave Link    1 at Sun Jan 17 23:31:46 2021, MaxMem=  4026531840 cpu:               1.8 elap:               0.3
 (Enter /opt/ohpc/pub/libs/gaussian/g16-A.03/sandybridge/g16/l101.exe)
 -------------
 H19 C24 N1 O2
 -------------
 Symbolic Z-matrix:
 Charge =  1 Multiplicity = 2
 C                    -6.53811  -0.21734   1.25551 
 C                    -7.25866   0.08729   0.10788 
 C                    -5.15139  -0.25905   1.21922 
 C                    -6.5807    0.34869  -1.07578 
 C                    -4.458     0.00066   0.03573 
 C                    -5.194     0.30457  -1.11091 
 H                    -8.34564   0.12102   0.13596 
 H                    -4.59391  -0.47628   2.12835 
 H                    -7.13614   0.58116  -1.98219 
 H                    -4.67151   0.48876  -2.0477 
 C                    -2.97448  -0.04496  -0.00277 
 C                    -2.24032   0.91837  -0.6946 
 C                    -2.26558  -1.0513    0.65461 
 C                    -0.85628   0.87593  -0.73981 
 C                    -0.88157  -1.09437   0.62889 
 C                    -0.15564  -0.13324  -0.0774 
 H                    -2.76203   1.72742  -1.20229 
 H                    -2.80904  -1.82389   1.19526 
 H                    -0.30638   1.63919  -1.28492 
 H                    -0.35263  -1.88507   1.15502 
 H                    -7.05947  -0.41619   2.18974 
 N                     1.25703  -0.16083  -0.10381 
 C                     1.9654   -1.37789  -0.17457 
 C                     3.19     -1.50855   0.47802 
 C                     1.4615   -2.45601  -0.91209 
 C                     3.90305  -2.69689   0.39022 
 C                     2.17862  -3.63831  -0.97461 
 C                     3.40295  -3.77506  -0.33284 
 H                     3.60076  -0.69016   1.06207 
 H                     0.51484  -2.3581   -1.43523 
 H                     1.78281  -4.47165  -1.55144 
 H                     3.96392  -4.70643  -0.39806 
 C                     1.97286   1.06837  -0.04581 
 C                     2.97148   1.35095  -0.97234 
 C                     1.68309   2.0122    0.93926 
 C                     3.67678   2.54399  -0.91012 
 C                     2.36561   3.215     0.99216 
 C                     3.37144   3.4833    0.06927 
 H                     3.20527   0.62157  -1.74439 
 H                     0.90427   1.79831   1.66775 
 H                     4.46088   2.7476   -1.6392 
 H                     2.1399    3.9546    1.756 
 O                     4.02299   4.68033   0.17324 
 H                     4.69529   4.73835  -0.51784 
 O                     5.09721  -2.75171   1.05375 
 H                     5.47965  -3.63149   0.94109 
 
 ITRead=  0  0  0  0  0  0  0  0  0  0  0  0  0  0  0  0  0  0  0  0
 ITRead=  0  0  0  0  0  0  0  0  0  0  0  0  0  0  0  0  0  0  0  0
 ITRead=  0  0  0  0  0  0
 MicOpt= -1 -1 -1 -1 -1 -1 -1 -1 -1 -1 -1 -1 -1 -1 -1 -1 -1 -1 -1 -1
 MicOpt= -1 -1 -1 -1 -1 -1 -1 -1 -1 -1 -1 -1 -1 -1 -1 -1 -1 -1 -1 -1
 MicOpt= -1 -1 -1 -1 -1 -1
 NAtoms=     46 NQM=       46 NQMF=       0 NMMI=      0 NMMIF=      0
                NMic=       0 NMicF=      0.
                    Isotopes and Nuclear Properties:
 (Nuclear quadrupole moments (NQMom) in fm**2, nuclear magnetic moments (NMagM)
  in nuclear magnetons)

  Atom         1           2           3           4           5           6           7           8           9          10
 IAtWgt=          12          12          12          12          12          12           1           1           1           1
 AtmWgt=  12.0000000  12.0000000  12.0000000  12.0000000  12.0000000  12.0000000   1.0078250   1.0078250   1.0078250   1.0078250
 NucSpn=           0           0           0           0           0           0           1           1           1           1
 AtZEff=  -0.0000000  -0.0000000  -0.0000000  -0.0000000  -0.0000000  -0.0000000  -0.0000000  -0.0000000  -0.0000000  -0.0000000
 NQMom=    0.0000000   0.0000000   0.0000000   0.0000000   0.0000000   0.0000000   0.0000000   0.0000000   0.0000000   0.0000000
 NMagM=    0.0000000   0.0000000   0.0000000   0.0000000   0.0000000   0.0000000   2.7928460   2.7928460   2.7928460   2.7928460
 AtZNuc=   6.0000000   6.0000000   6.0000000   6.0000000   6.0000000   6.0000000   1.0000000   1.0000000   1.0000000   1.0000000

  Atom        11          12          13          14          15          16          17          18          19          20
 IAtWgt=          12          12          12          12          12          12           1           1           1           1
 AtmWgt=  12.0000000  12.0000000  12.0000000  12.0000000  12.0000000  12.0000000   1.0078250   1.0078250   1.0078250   1.0078250
 NucSpn=           0           0           0           0           0           0           1           1           1           1
 AtZEff=  -0.0000000  -0.0000000  -0.0000000  -0.0000000  -0.0000000  -0.0000000  -0.0000000  -0.0000000  -0.0000000  -0.0000000
 NQMom=    0.0000000   0.0000000   0.0000000   0.0000000   0.0000000   0.0000000   0.0000000   0.0000000   0.0000000   0.0000000
 NMagM=    0.0000000   0.0000000   0.0000000   0.0000000   0.0000000   0.0000000   2.7928460   2.7928460   2.7928460   2.7928460
 AtZNuc=   6.0000000   6.0000000   6.0000000   6.0000000   6.0000000   6.0000000   1.0000000   1.0000000   1.0000000   1.0000000

  Atom        21          22          23          24          25          26          27          28          29          30
 IAtWgt=           1          14          12          12          12          12          12          12           1           1
 AtmWgt=   1.0078250  14.0030740  12.0000000  12.0000000  12.0000000  12.0000000  12.0000000  12.0000000   1.0078250   1.0078250
 NucSpn=           1           2           0           0           0           0           0           0           1           1
 AtZEff=  -0.0000000  -0.0000000  -0.0000000  -0.0000000  -0.0000000  -0.0000000  -0.0000000  -0.0000000  -0.0000000  -0.0000000
 NQMom=    0.0000000   2.0440000   0.0000000   0.0000000   0.0000000   0.0000000   0.0000000   0.0000000   0.0000000   0.0000000
 NMagM=    2.7928460   0.4037610   0.0000000   0.0000000   0.0000000   0.0000000   0.0000000   0.0000000   2.7928460   2.7928460
 AtZNuc=   1.0000000   7.0000000   6.0000000   6.0000000   6.0000000   6.0000000   6.0000000   6.0000000   1.0000000   1.0000000

  Atom        31          32          33          34          35          36          37          38          39          40
 IAtWgt=           1           1          12          12          12          12          12          12           1           1
 AtmWgt=   1.0078250   1.0078250  12.0000000  12.0000000  12.0000000  12.0000000  12.0000000  12.0000000   1.0078250   1.0078250
 NucSpn=           1           1           0           0           0           0           0           0           1           1
 AtZEff=  -0.0000000  -0.0000000  -0.0000000  -0.0000000  -0.0000000  -0.0000000  -0.0000000  -0.0000000  -0.0000000  -0.0000000
 NQMom=    0.0000000   0.0000000   0.0000000   0.0000000   0.0000000   0.0000000   0.0000000   0.0000000   0.0000000   0.0000000
 NMagM=    2.7928460   2.7928460   0.0000000   0.0000000   0.0000000   0.0000000   0.0000000   0.0000000   2.7928460   2.7928460
 AtZNuc=   1.0000000   1.0000000   6.0000000   6.0000000   6.0000000   6.0000000   6.0000000   6.0000000   1.0000000   1.0000000

  Atom        41          42          43          44          45          46
 IAtWgt=           1           1          16           1          16           1
 AtmWgt=   1.0078250   1.0078250  15.9949146   1.0078250  15.9949146   1.0078250
 NucSpn=           1           1           0           1           0           1
 AtZEff=  -0.0000000  -0.0000000  -0.0000000  -0.0000000  -0.0000000  -0.0000000
 NQMom=    0.0000000   0.0000000   0.0000000   0.0000000   0.0000000   0.0000000
 NMagM=    2.7928460   2.7928460   0.0000000   2.7928460   0.0000000   2.7928460
 AtZNuc=   1.0000000   1.0000000   8.0000000   1.0000000   8.0000000   1.0000000
 Leave Link  101 at Sun Jan 17 23:31:46 2021, MaxMem=  4026531840 cpu:               0.6 elap:               0.1
 (Enter /opt/ohpc/pub/libs/gaussian/g16-A.03/sandybridge/g16/l202.exe)
                          Input orientation:                          
 ---------------------------------------------------------------------
 Center     Atomic      Atomic             Coordinates (Angstroms)
 Number     Number       Type             X           Y           Z
 ---------------------------------------------------------------------
      1          6           0       -6.538108   -0.217341    1.255514
      2          6           0       -7.258661    0.087287    0.107878
      3          6           0       -5.151390   -0.259049    1.219222
      4          6           0       -6.580697    0.348691   -1.075777
      5          6           0       -4.458004    0.000662    0.035726
      6          6           0       -5.193998    0.304569   -1.110911
      7          1           0       -8.345644    0.121015    0.135956
      8          1           0       -4.593910   -0.476283    2.128350
      9          1           0       -7.136138    0.581164   -1.982188
     10          1           0       -4.671509    0.488761   -2.047704
     11          6           0       -2.974479   -0.044963   -0.002770
     12          6           0       -2.240322    0.918366   -0.694597
     13          6           0       -2.265576   -1.051297    0.654611
     14          6           0       -0.856277    0.875925   -0.739808
     15          6           0       -0.881570   -1.094369    0.628888
     16          6           0       -0.155643   -0.133238   -0.077397
     17          1           0       -2.762026    1.727417   -1.202285
     18          1           0       -2.809037   -1.823891    1.195264
     19          1           0       -0.306381    1.639189   -1.284917
     20          1           0       -0.352632   -1.885069    1.155020
     21          1           0       -7.059465   -0.416189    2.189743
     22          7           0        1.257026   -0.160831   -0.103806
     23          6           0        1.965402   -1.377887   -0.174570
     24          6           0        3.190004   -1.508547    0.478017
     25          6           0        1.461496   -2.456008   -0.912094
     26          6           0        3.903051   -2.696891    0.390217
     27          6           0        2.178621   -3.638306   -0.974610
     28          6           0        3.402953   -3.775056   -0.332839
     29          1           0        3.600761   -0.690157    1.062074
     30          1           0        0.514840   -2.358097   -1.435231
     31          1           0        1.782807   -4.471654   -1.551437
     32          1           0        3.963923   -4.706428   -0.398055
     33          6           0        1.972861    1.068372   -0.045814
     34          6           0        2.971482    1.350948   -0.972341
     35          6           0        1.683086    2.012203    0.939258
     36          6           0        3.676780    2.543988   -0.910119
     37          6           0        2.365608    3.214996    0.992156
     38          6           0        3.371443    3.483300    0.069272
     39          1           0        3.205268    0.621566   -1.744392
     40          1           0        0.904271    1.798314    1.667748
     41          1           0        4.460878    2.747602   -1.639197
     42          1           0        2.139895    3.954598    1.756001
     43          8           0        4.022986    4.680331    0.173244
     44          1           0        4.695287    4.738350   -0.517835
     45          8           0        5.097214   -2.751708    1.053752
     46          1           0        5.479651   -3.631493    0.941087
 ---------------------------------------------------------------------
                    Distance matrix (angstroms):
                    1          2          3          4          5
     1  C    0.000000
     2  C    1.388907   0.000000
     3  C    1.387820   2.407410   0.000000
     4  C    2.399401   1.388887   2.771153   0.000000
     5  C    2.421206   2.802925   1.396029   2.421237   0.000000
     6  C    2.771099   2.407383   2.397707   1.387846   1.396003
     7  H    2.152924   1.087869   3.394285   2.152945   3.890794
     8  H    2.146811   3.391285   1.088342   3.859318   2.150586
     9  H    3.387914   2.151117   3.859302   1.088182   3.403140
    10  H    3.859277   3.391323   3.385604   2.146919   2.150466
    11  C    3.783179   4.287651   2.505601   3.783004   1.484726
    12  C    4.854248   5.149600   3.677408   4.394165   2.508718
    13  C    4.394439   5.150358   3.045384   4.855356   2.509258
    14  C    6.120437   6.506231   4.855302   5.758458   3.786816
    15  C    5.758321   6.506539   4.390628   6.121140   3.787059
    16  C    6.520704   7.108855   5.162803   6.519995   4.305930
    17  H    4.907306   4.962487   3.939391   4.061913   2.718583
    18  H    4.060862   4.963282   2.817077   4.909497   2.718936
    19  H    6.981040   7.258269   5.774784   6.409069   4.654551
    20  H    6.407147   7.258094   5.067163   6.982473   4.654340
    21  H    1.088181   2.151123   2.146475   3.387902   3.403109
    22  N    7.912968   8.521930   6.544299   7.914180   5.719014
    23  C    8.700672   9.343974   7.337791   8.765218   6.573033
    24  C    9.844180  10.576308   8.466964  10.066291   7.808032
    25  C    8.585093   9.140560   7.286933   8.518803   6.478740
    26  C   10.766369  11.507179   9.413460  11.015157   8.792593
    27  C    9.625893  10.203632   8.364289   9.624554   7.635945
    28  C   10.677307  11.348213   9.378059  10.827304   8.728490
    29  H   10.151731  10.928950   8.764171  10.455224   8.153178
    30  H    7.846465   8.293878   6.599870   7.602799   5.697073
    31  H    9.757857  10.260868   8.573545   9.664894   7.840180
    32  H   11.540314  12.214011  10.270526  11.713349   9.657832
    33  C    8.705349   9.284780   7.356447   8.645352   6.519408
    34  C    9.892177  10.364340   8.565984   9.605173   7.618184
    35  C    8.524020   9.184298   7.207429   8.667050   6.525002
    36  C   10.800872  11.254136   9.504088  10.491073   8.575421
    37  C    9.546018  10.158300   8.284069   9.619170   7.603182
    38  C   10.644300  11.159458   9.379032  10.496761   8.569138
    39  H   10.229202  10.640027   8.910231   9.812574   7.891773
    40  H    7.721516   8.484944   6.411314   8.102659   5.886344
    41  H   11.753635  12.144017  10.469298  11.313204   9.481429
    42  H    9.641748  10.295886   8.438352   9.852424   7.881956
    43  O   11.691673  12.180964  10.471901  11.522207   9.687384
    44  H   12.405354  12.842148  11.178033  12.113142  10.321572
    45  O   11.909846  12.713073  10.548678  12.268699   9.995705
    46  H   12.497273  13.296171  11.156602  12.859300  10.619285
                    6          7          8          9         10
     6  C    0.000000
     7  H    3.394295   0.000000
     8  H    3.385653   4.289744   0.000000
     9  H    2.146517   2.482172   4.947488   0.000000
    10  H    1.088349   4.289857   4.286812   2.467231   0.000000
    11  C    2.505277   5.375519   2.711137   4.650757   2.710448
    12  C    3.045368   6.212934   3.931088   5.073520   2.815338
    13  C    3.678464   6.213738   2.814904   5.774081   3.932277
    14  C    4.390898   7.578091   4.901499   6.408358   4.051726
    15  C    4.856023   7.578426   4.051158   6.981744   4.902457
    16  C    5.161865   8.196724   4.968019   7.270895   4.966089
    17  H    2.819102   5.962232   4.393771   4.588573   2.427988
    18  H    3.941678   5.963121   2.423318   5.882541   4.397045
    19  H    5.069545   8.303823   5.874395   6.946307   4.578173
    20  H    5.776485   8.303680   4.573892   7.870218   5.877517
    21  H    3.859246   2.482113   2.467051   4.290175   4.947446
    22  N    6.545729   9.609797   6.270206   8.632733   6.272817
    23  C    7.413798  10.424049   7.010057   9.483849   7.144340
    24  C    8.723736  11.655199   8.023620  10.818905   8.495404
    25  C    7.208045  10.194089   7.059147   9.180895   6.897465
    26  C    9.696311  12.571228   8.952684  11.757451   9.466516
    27  C    8.361839  11.230583   8.092832  10.275401   8.068983
    28  C    9.547581  12.386633   8.993841  11.522562   9.290739
    29  H    9.113678  12.009675   8.266518  11.232310   8.915774
    30  H    6.307599   9.333960   6.506893   8.214370   5.947936
    31  H    8.466533  11.248352   8.376535  10.259829   8.155378
    32  H   10.463545  13.233095   9.874885  12.396752  10.211857
    33  C    7.285719  10.363497   7.087696   9.325276   6.963560
    34  C    8.233418  11.437587   8.377841  10.187067   7.766279
    35  C    7.376550  10.237056   6.856178   9.400076   7.184963
    36  C    9.151285  12.308686   9.314432  11.041794   8.672484
    37  C    8.369057  11.181982   7.959357  10.298882   8.135977
    38  C    9.212163  12.190141   9.130441  11.092346   8.839566
    39  H    8.429084  11.713660   8.776707  10.344219   7.883733
    40  H    6.865938   9.524739   5.967909   8.913566   6.827066
    41  H    9.973170  13.193071  10.323615  11.802622   9.416461
    42  H    8.679164  11.281287   8.069416  10.554568   8.536710
    43  O   10.283440  13.182252  10.230543  12.082016   9.904348
    44  H   10.853944  13.849661  10.976515  12.625733  10.398864
    45  O   10.951513  13.776985  10.012502  13.037633  10.749308
    46  H   11.559847  14.348113  10.622692  13.618008  11.355854
                   11         12         13         14         15
    11  C    0.000000
    12  C    1.394853   0.000000
    13  C    1.395493   2.387587   0.000000
    14  C    2.424467   1.385433   2.764907   0.000000
    15  C    2.424977   2.765668   1.384915   2.399172   0.000000
    16  C    2.821205   2.415097   2.414640   1.395739   1.396274
    17  H    2.150652   1.088341   3.378724   2.137944   3.853801
    18  H    2.151102   3.378607   1.088374   3.853152   2.137314
    19  H    3.405733   2.146670   3.852133   1.087245   3.386123
    20  H    3.405958   3.852753   2.145912   3.386314   1.087105
    21  H    4.651025   5.772746   5.073595   6.980786   6.408009
    22  N    4.234297   3.707444   3.711718   2.438321   2.445798
    23  C    5.119436   4.819888   4.323815   3.655275   2.971730
    24  C    6.354061   6.062456   5.477556   4.851927   4.095366
    25  C    5.130096   5.013697   4.280052   4.062454   3.117474
    26  C    7.381570   7.210266   6.389823   6.057489   5.051499
    27  C    6.356967   6.353639   5.394244   5.444632   4.290407
    28  C    7.395551   7.348852   6.366015   6.319675   5.144720
    29  H    6.692081   6.308050   5.891550   5.056143   4.521319
    30  H    4.424690   4.344498   3.715626   3.580848   2.794201
    31  H    6.680249   6.780270   5.740635   6.018314   4.822735
    32  H    8.368209   8.379672   7.298955   7.383345   6.130284
    33  C    5.071246   4.265481   4.790401   2.919364   3.644235
    34  C    6.184100   5.237096   5.987030   3.864124   4.836271
    35  C    5.178056   4.388518   5.005795   3.249424   4.040369
    36  C    7.194803   6.140130   7.119414   4.833223   6.031976
    37  C    6.335120   5.416109   6.305796   4.341831   5.408027
    38  C    7.261168   6.217257   7.258180   5.032557   6.273463
    39  H    6.454981   5.553792   6.203533   4.191663   5.027836
    40  H    4.607928   4.030316   4.381171   3.121964   3.554725
    41  H    8.109306   7.010311   8.058435   5.708258   6.960366
    42  H    6.726558   5.866041   6.758714   4.968333   5.990968
    43  O    8.445348   7.357619   8.522282   6.254149   7.590088
    44  H    9.053766   7.919987   9.129527   6.766643   8.150885
    45  O    8.578749   8.388421   7.567125   7.198655   6.218773
    46  H    9.231813   9.109043   8.168722   7.955263   6.855625
                   16         17         18         19         20
    16  C    0.000000
    17  H    3.394207   0.000000
    18  H    3.393888   4.285118   0.000000
    19  H    2.149959   2.458618   4.940396   0.000000
    20  H    2.150946   4.940862   2.457496   4.286703   0.000000
    21  H    7.272052   5.879531   4.586584   7.867781   6.943333
    22  N    1.413185   4.574376   4.581072   2.660702   2.673694
    23  C    2.461184   5.748712   4.987046   3.936574   2.719986
    24  C    3.659688   6.980082   6.049990   5.024031   3.626344
    25  C    2.950783   5.951756   4.803955   4.476050   2.808913
    26  C    4.823274   8.156826   6.816330   6.271123   4.399411
    27  C    4.305727   7.297452   5.733863   5.841531   3.743849
    28  C    5.098205   8.309038   6.688121   6.631716   4.459842
    29  H    3.964735   7.173357   6.510653   5.118591   4.131074
    30  H    2.691330   5.242475   4.272357   4.083539   2.772303
    31  H    4.975162   7.694537   5.969929   6.463601   4.309922
    32  H    6.163417   9.342352   7.531313   7.699927   5.385606
    33  C    2.444462   4.918427   5.724684   2.656342   3.946230
    34  C    3.575282   5.750454   6.942083   3.305325   5.103646
    35  C    3.002903   4.942300   5.912726   3.007336   4.402207
    36  C    4.748519   6.496951   8.097952   4.101793   6.333838
    37  C    4.325658   5.772443   7.225551   3.848085   5.781524
    38  C    5.053830   6.505338   8.223896   4.331393   6.623214
    39  H    3.826790   6.093060   7.126970   3.684882   5.229576
    40  H    2.810666   4.656592   5.208864   3.195189   3.925558
    41  H    5.661336   7.307668   9.043472   4.907224   7.241489
    42  H    5.034009   6.143340   7.628715   4.537903   6.377741
    43  O    6.379201   7.526498   9.488201   5.488005   7.950748
    44  H    6.888968   8.071289  10.114969   5.933793   8.494093
    45  O    5.977323   9.323085   7.961763   7.344943   5.519252
    46  H    6.710562  10.061670   8.487307   8.137159   6.091904
                   21         22         23         24         25
    21  H    0.000000
    22  N    8.630736   0.000000
    23  C    9.378863   1.409975   0.000000
    24  C   10.448678   2.427192   1.393769   0.000000
    25  C    9.294570   2.441920   1.400074   2.412018   0.000000
    26  C   11.340928   3.698257   2.411066   1.388635   2.777630
    27  C   10.282869   3.701415   2.407285   2.769277   1.384198
    28  C   11.274201   4.209523   2.799647   2.416588   2.417577
    29  H   10.723204   2.670685   2.162559   1.086097   3.404706
    30  H    8.618674   2.674231   2.157361   3.396874   1.086009
    31  H   10.422524   4.577693   3.391238   3.857316   2.138885
    32  H   12.108589   5.298710   3.888858   3.404834   3.404522
    33  C    9.422555   1.423630   2.449656   2.897645   3.665132
    34  C   10.664963   2.445238   3.015821   3.213721   4.095925
    35  C    9.159312   2.447772   3.579529   3.857360   4.841644
    36  C   11.560223   3.717714   4.341768   4.311254   5.468770
    37  C   10.171122   3.718373   4.755627   4.822429   6.050113
    38  C   11.336060   4.216682   5.066315   5.011839   6.315565
    39  H   11.041698   2.664454   2.828325   3.078428   3.633858
    40  H    8.282366   2.664787   3.822092   4.192298   5.006530
    41  H   12.545464   4.591413   5.039067   4.920622   6.050002
    42  H   10.194123   4.601641   5.673883   5.708058   6.976735
    43  O   12.363717   5.582485   6.407545   6.252116   7.659408
    44  H   13.117715   5.999586   6.706598   6.502409   7.897571
    45  O   12.431008   4.774896   3.633787   2.348270   4.143722
    46  H   13.004874   5.564877   4.321270   3.156551   4.578386
                   26         27         28         29         30
    26  C    0.000000
    27  C    2.392211   0.000000
    28  C    1.391168   1.389086   0.000000
    29  H    2.137698   3.855145   3.391388   0.000000
    30  H    3.863550   2.149250   3.400623   4.305980   0.000000
    31  H    3.378644   1.088057   2.143619   4.943189   2.467462
    32  H    2.159471   2.158843   1.089217   4.288857   4.299601
    33  C    4.253582   4.801856   5.058294   2.640057   3.974543
    34  C    4.371428   5.051860   5.183729   2.949737   4.472848
    35  C    5.235003   5.986376   6.169971   3.315918   5.109062
    36  C    5.404524   6.361556   6.351264   3.788802   5.856965
    37  C    6.138116   7.132383   7.189751   4.096427   6.354283
    38  C    6.211310   7.295875   7.269554   4.296043   6.674251
    39  H    4.006946   4.448941   4.621888   3.123025   4.026459
    40  H    5.552624   6.177610   6.427147   3.718923   5.201527
    41  H    5.837139   6.813970   6.735788   4.455879   6.456081
    42  H    7.015439   8.069072   8.105931   4.918273   7.257746
    43  O    7.381386   8.597614   8.493181   5.459893   8.027064
    44  H    7.532264   8.758460   8.612922   5.758714   8.287178
    45  O    1.367227   3.663126   2.416691   2.547437   5.229543
    46  H    1.913794   3.816640   2.440527   3.492323   5.649582
                   31         32         33         34         35
    31  H    0.000000
    32  H    2.478442   0.000000
    33  C    5.744120   6.118555   0.000000
    34  C    5.970845   6.164945   1.391239   0.000000
    35  C    6.946503   7.220154   1.394688   2.398215   0.000000
    36  C    7.295043   7.274146   2.414085   1.387322   2.770885
    37  C    8.117519   8.199772   2.416532   2.775069   1.383960
    38  C    8.272349   8.224419   2.793055   2.406627   2.402405
    39  H    5.291646   5.547585   2.145607   1.087528   3.384211
    40  H    7.102639   7.479350   2.147323   3.382834   1.087658
    41  H    7.700482   7.572976   3.398369   2.147938   3.860747
    42  H    9.059160   9.109358   3.406573   3.861914   2.156071
    43  O    9.578714   9.404314   4.158996   3.674618   3.630539
    44  H    9.714682   9.473810   4.593816   3.827868   4.316057
    45  O    4.553078   2.685707   5.056050   5.045352   5.862101
    46  H    4.537092   2.290462   5.946451   5.897189   6.801854
                   36         37         38         39         40
    36  C    0.000000
    37  C    2.405842   0.000000
    38  C    1.390951   1.391189   0.000000
    39  H    2.148032   3.862590   3.392125   0.000000
    40  H    3.858527   2.144509   3.388398   4.280423   0.000000
    41  H    1.089873   3.395973   2.155687   2.471366   4.948382
    42  H    3.385267   1.086930   2.141001   4.949432   2.486788
    43  O    2.420226   2.358967   1.366822   4.562846   4.501772
    44  H    2.450810   3.166715   1.916353   4.546703   5.271849
    45  O    5.823986   6.562547   6.543914   4.773683   6.217754
    46  H    6.694316   7.521588   7.471605   5.520247   7.137573
                   41         42         43         44         45
    41  H    0.000000
    42  H    4.286160   0.000000
    43  O    2.685542   2.564730   0.000000
    44  H    2.296841   3.509220   0.965891   0.000000
    45  O    6.156241   7.362977   7.560718   7.663707   0.000000
    46  H    6.956193   8.328675   8.473363   8.532172   0.965905
                   46
    46  H    0.000000
 Stoichiometry    C24H19NO2(1+,2)
 Framework group  C1[X(C24H19NO2)]
 Deg. of freedom   132
 Full point group                 C1      NOp   1
 Largest Abelian subgroup         C1      NOp   1
 Largest concise Abelian subgroup C1      NOp   1
                         Standard orientation:                         
 ---------------------------------------------------------------------
 Center     Atomic      Atomic             Coordinates (Angstroms)
 Number     Number       Type             X           Y           Z
 ---------------------------------------------------------------------
      1          6           0       -6.538108   -0.217341    1.255514
      2          6           0       -7.258661    0.087287    0.107878
      3          6           0       -5.151390   -0.259049    1.219222
      4          6           0       -6.580697    0.348691   -1.075777
      5          6           0       -4.458004    0.000662    0.035726
      6          6           0       -5.193998    0.304569   -1.110911
      7          1           0       -8.345644    0.121015    0.135956
      8          1           0       -4.593910   -0.476283    2.128350
      9          1           0       -7.136138    0.581164   -1.982188
     10          1           0       -4.671509    0.488761   -2.047704
     11          6           0       -2.974479   -0.044963   -0.002770
     12          6           0       -2.240322    0.918366   -0.694597
     13          6           0       -2.265576   -1.051297    0.654611
     14          6           0       -0.856277    0.875925   -0.739808
     15          6           0       -0.881570   -1.094369    0.628888
     16          6           0       -0.155643   -0.133238   -0.077397
     17          1           0       -2.762026    1.727417   -1.202285
     18          1           0       -2.809037   -1.823891    1.195264
     19          1           0       -0.306381    1.639189   -1.284917
     20          1           0       -0.352632   -1.885069    1.155020
     21          1           0       -7.059465   -0.416189    2.189743
     22          7           0        1.257026   -0.160831   -0.103806
     23          6           0        1.965402   -1.377887   -0.174570
     24          6           0        3.190004   -1.508547    0.478017
     25          6           0        1.461496   -2.456008   -0.912094
     26          6           0        3.903051   -2.696891    0.390217
     27          6           0        2.178621   -3.638306   -0.974610
     28          6           0        3.402953   -3.775056   -0.332839
     29          1           0        3.600761   -0.690157    1.062074
     30          1           0        0.514840   -2.358097   -1.435231
     31          1           0        1.782807   -4.471654   -1.551437
     32          1           0        3.963923   -4.706428   -0.398055
     33          6           0        1.972861    1.068372   -0.045814
     34          6           0        2.971482    1.350948   -0.972341
     35          6           0        1.683086    2.012203    0.939258
     36          6           0        3.676780    2.543988   -0.910119
     37          6           0        2.365608    3.214996    0.992156
     38          6           0        3.371443    3.483300    0.069272
     39          1           0        3.205268    0.621566   -1.744392
     40          1           0        0.904271    1.798314    1.667748
     41          1           0        4.460878    2.747602   -1.639197
     42          1           0        2.139895    3.954598    1.756001
     43          8           0        4.022986    4.680331    0.173244
     44          1           0        4.695287    4.738350   -0.517835
     45          8           0        5.097214   -2.751708    1.053752
     46          1           0        5.479651   -3.631493    0.941087
 ---------------------------------------------------------------------
 Rotational constants (GHZ):           0.2747871           0.0974680           0.0767524
 Leave Link  202 at Sun Jan 17 23:31:47 2021, MaxMem=  4026531840 cpu:               0.3 elap:               0.1
 (Enter /opt/ohpc/pub/libs/gaussian/g16-A.03/sandybridge/g16/l301.exe)
 Standard basis: TZVP (5D, 7F)
 Ernie: Thresh=  0.10000D-02 Tol=  0.10000D-05 Strict=F.
 There are   654 symmetry adapted cartesian basis functions of A   symmetry.
 There are   627 symmetry adapted basis functions of A   symmetry.
   627 basis functions,  1097 primitive gaussians,   654 cartesian basis functions
    93 alpha electrons       92 beta electrons
       nuclear repulsion energy      2186.7759231597 Hartrees.
 IExCor=33909 DFT=T Ex+Corr=LC-wHPBE ExCW=0 ScaHFX=  1.000000
 ScaDFX=  1.000000  1.000000  1.000000  1.000000 ScalE2=  1.000000  1.000000
 IRadAn=      5 IRanWt=     -1 IRanGd=            0 ICorTp=0 IEmpDi=  4
 HFx  wShort=  0.000000 wLong=  0.182300 cFull=  0.000000 cShort=  0.000000 cLong=  1.000000
 DFx  wShort=  0.000000 wLong=  0.182300 cFull=  0.000000 cShort=  1.000000 cLong=  0.000000
 NAtoms=   46 NActive=   46 NUniq=   46 SFac= 1.00D+00 NAtFMM=   60 NAOKFM=F Big=F
 Integral buffers will be    131072 words long.
 Raffenetti 2 integral format.
 Two-electron integral symmetry is turned on.
 Leave Link  301 at Sun Jan 17 23:31:47 2021, MaxMem=  4026531840 cpu:               0.4 elap:               0.1
 (Enter /opt/ohpc/pub/libs/gaussian/g16-A.03/sandybridge/g16/l302.exe)
 NPDir=0 NMtPBC=     1 NCelOv=     1 NCel=       1 NClECP=     1 NCelD=      1
         NCelK=      1 NCelE2=     1 NClLst=     1 CellRange=     0.0.
 One-electron integrals computed using PRISM.
 One-electron integral symmetry used in STVInt
 NBasis=   627 RedAO= T EigKep=  6.83D-06  NBF=   627
 NBsUse=   627 1.00D-06 EigRej= -1.00D+00 NBFU=   627
 Precomputing XC quadrature grid using
 IXCGrd= 4 IRadAn=           5 IRanWt=          -1 IRanGd=           0 AccXCQ= 0.00D+00.
 Generated NRdTot=       0 NPtTot=           0 NUsed=           0 NTot=          32
 NSgBfM=   623   621   621   623   623 MxSgAt=    46 MxSgA2=    46.
 Leave Link  302 at Sun Jan 17 23:31:48 2021, MaxMem=  4026531840 cpu:               8.9 elap:               1.1
 (Enter /opt/ohpc/pub/libs/gaussian/g16-A.03/sandybridge/g16/l303.exe)
 DipDrv:  MaxL=1.
 Leave Link  303 at Sun Jan 17 23:31:48 2021, MaxMem=  4026531840 cpu:               0.8 elap:               0.1
 (Enter /opt/ohpc/pub/libs/gaussian/g16-A.03/sandybridge/g16/l401.exe)
 ExpMin= 9.52D-02 ExpMax= 2.70D+04 ExpMxC= 9.22D+02 IAcc=3 IRadAn=         5 AccDes= 0.00D+00
 Harris functional with IExCor=33909 and IRadAn=       5 diagonalized for initial guess.
 HarFok:  IExCor=33909 AccDes= 0.00D+00 IRadAn=         5 IDoV= 1 UseB2=F ITyADJ=14
 ICtDFT=  3500011 ScaDFX=  1.000000  1.000000  1.000000  1.000000
 FoFCou: FMM=F IPFlag=           0 FMFlag=      100000 FMFlg1=           0
         NFxFlg=           0 DoJE=T BraDBF=F KetDBF=T FulRan=T
         wScrn=  0.000000 ICntrl=       500 IOpCl=  0 I1Cent=   200000004 NGrid=           0
         NMat0=    1 NMatS0=      1 NMatT0=    0 NMatD0=    1 NMtDS0=    0 NMtDT0=    0
 Petite list used in FoFCou.
 Harris En= -1112.22899090768    
 JPrj=0 DoOrth=F DoCkMO=F.
 Initial guess <Sx>= 0.0000 <Sy>= 0.0000 <Sz>= 0.5000 <S**2>= 0.7500 S= 0.5000
 Leave Link  401 at Sun Jan 17 23:31:55 2021, MaxMem=  4026531840 cpu:              53.2 elap:               6.7
 (Enter /opt/ohpc/pub/libs/gaussian/g16-A.03/sandybridge/g16/l502.exe)
 Integral symmetry usage will be decided dynamically.
 UHF open shell SCF:
 Using DIIS extrapolation, IDIIS=    10.
 NGot=  4026531840 LenX=  4025664800 LenY=  4025236430
 Requested convergence on RMS density matrix=1.00D-06 within  32 cycles.
 Requested convergence on MAX density matrix=1.00D-04.
 Requested convergence on             energy=1.00D-04.
 Virtual orbitals will be shifted by   0.500 hartree.
 No special actions if energy rises.
 Dynamic level shift is on during FON iterations.

 Cycle   1  Pass 1  IDiag  1:
 FoFJK:  IHMeth= 1 ICntrl=       0 DoSepK=T KAlg= 0 I1Cent=           0 FoldK=F
 IRaf=         1 NMat=       1 IRICut=       1 DoRegI=T DoRafI=F ISym2E= 0 IDoP0=0 IntGTp=1.
 FoFCou: FMM=F IPFlag=           0 FMFlag=      100000 FMFlg1=           0
         NFxFlg=           0 DoJE=T BraDBF=F KetDBF=F FulRan=T
         wScrn=  0.000000 ICntrl=       500 IOpCl=  0 I1Cent=           0 NGrid=           0
         NMat0=    1 NMatS0=      1 NMatT0=    0 NMatD0=    1 NMtDS0=    0 NMtDT0=    0
 Symmetry not used in FoFCou.
 E= -1129.81841853476    
 DIIS: error= 2.19D-02 at cycle   1 NSaved=   1.
 NSaved= 1 IEnMin= 1 EnMin= -1129.81841853476     IErMin= 1 ErrMin= 2.19D-02
 ErrMax= 2.19D-02  0.00D+00 EMaxC= 1.00D+00 BMatC= 1.83D+00 BMatP= 1.83D+00
 IDIUse=1 WtCom= 1.00D+00 WtEn= 0.00D+00
 Coeff-Com:  0.100D+01
 Coeff:      0.100D+01
 Gap=     0.382 Goal=   None    Shift=    0.500
 T= 1307. Gap= 0.692 NK=0 IS=   94 IE=  627 IFin=   93
          NO(<0.9)=   0  NV(>0.1)=   0     93.00e < EF      0.00e >EF  Err=0.0D+00
 Gap=     0.095 Goal=   None    Shift=    0.500
 T= 1307. Gap= 0.514 NK=0 IS=   93 IE=  627 IFin=   92
          NO(<0.9)=   0  NV(>0.1)=   0     92.00e < EF      0.00e >EF  Err=0.0D+00
 GapD=    0.095 DampG=0.500 DampE=0.500 DampFc=0.2500 IDamp=-1.
 Damping current iteration by 2.50D-01
 RMSDP=2.56D-03 MaxDP=1.27D-01              OVMax= 7.83D-02

 Cycle   2  Pass 1  IDiag  1:
 E= -1129.97619558008     Delta-E=       -0.157777045317 Rises=F Damp=T
 DIIS: error= 1.42D-02 at cycle   2 NSaved=   2.
 NSaved= 2 IEnMin= 2 EnMin= -1129.97619558008     IErMin= 2 ErrMin= 1.42D-02
 ErrMax= 1.42D-02  0.00D+00 EMaxC= 1.00D+00 BMatC= 8.36D-01 BMatP= 1.83D+00
 IDIUse=1 WtCom= 1.00D+00 WtEn= 0.00D+00
 Coeff-Com: -0.185D+01 0.285D+01
 Coeff:     -0.185D+01 0.285D+01
 Gap=     0.286 Goal=   None    Shift=    0.500
 T= 1233. Gap= 0.759 NK=0 IS=   94 IE=  627 IFin=   93
          NO(<0.9)=   0  NV(>0.1)=   0     93.00e < EF      0.00e >EF  Err=0.0D+00
 Gap=     0.175 Goal=   None    Shift=    0.500
 T= 1233. Gap= 0.646 NK=0 IS=   93 IE=  627 IFin=   92
          NO(<0.9)=   0  NV(>0.1)=   0     92.00e < EF      0.00e >EF  Err=0.0D+00
 GapD=    0.175 DampG=1.000 DampE=0.500 DampFc=0.5000 IDamp=-1.
 Damping current iteration by 5.00D-01
 RMSDP=1.88D-03 MaxDP=1.16D-01 DE=-1.58D-01 OVMax= 2.77D-02

 Cycle   3  Pass 1  IDiag  1:
 E= -1130.13959982743     Delta-E=       -0.163404247351 Rises=F Damp=T
 DIIS: error= 6.55D-03 at cycle   3 NSaved=   3.
 NSaved= 3 IEnMin= 3 EnMin= -1130.13959982743     IErMin= 3 ErrMin= 6.55D-03
 ErrMax= 6.55D-03  0.00D+00 EMaxC= 1.00D+00 BMatC= 1.60D-01 BMatP= 8.36D-01
 IDIUse=1 WtCom= 1.00D+00 WtEn= 0.00D+00
 Coeff-Com:  0.903D-02-0.762D+00 0.175D+01
 Coeff:      0.903D-02-0.762D+00 0.175D+01
 Gap=     0.274 Goal=   None    Shift=    0.500
 T= 1048. Gap= 0.772 NK=4 IS=   94 IE=  106 IFin=   93
          NO(<0.9)=   0  NV(>0.1)=   0     93.00e < EF      0.00e >EF  Err=0.0D+00
 Gap=     0.148 Goal=   None    Shift=    0.500
 T= 1048. Gap= 0.647 NK=4 IS=   93 IE=  105 IFin=   92
          NO(<0.9)=   0  NV(>0.1)=   0     92.00e < EF      0.00e >EF  Err=0.0D+00
 GapD=    0.148 DampG=1.000 DampE=1.000 DampFc=1.0000 IDamp=-1.
 RMSDP=9.64D-04 MaxDP=7.26D-02 DE=-1.63D-01 OVMax= 1.08D-02

 Cycle   4  Pass 1  IDiag  1:
 E= -1130.25263407667     Delta-E=       -0.113034249242 Rises=F Damp=F
 DIIS: error= 1.94D-03 at cycle   4 NSaved=   4.
 NSaved= 4 IEnMin= 4 EnMin= -1130.25263407667     IErMin= 4 ErrMin= 1.94D-03
 ErrMax= 1.94D-03  0.00D+00 EMaxC= 1.00D+00 BMatC= 3.71D-03 BMatP= 1.60D-01
 IDIUse=1 WtCom= 1.00D+00 WtEn= 0.00D+00
 Coeff-Com:  0.162D+00-0.260D+00 0.151D+00 0.946D+00
 Coeff:      0.162D+00-0.260D+00 0.151D+00 0.946D+00
 Gap=     0.273 Goal=   None    Shift=    0.500
 T=  671. Gap= 0.773 NK=4 IS=   94 IE=  106 IFin=   93
          NO(<0.9)=   0  NV(>0.1)=   0     93.00e < EF      0.00e >EF  Err=0.0D+00
 Gap=     0.150 Goal=   None    Shift=    0.500
 T=  671. Gap= 0.650 NK=4 IS=   93 IE=  104 IFin=   92
          NO(<0.9)=   0  NV(>0.1)=   0     92.00e < EF      0.00e >EF  Err=0.0D+00
 GapD=    0.150 DampG=1.000 DampE=1.000 DampFc=1.0000 IDamp=-1.
 RMSDP=1.37D-04 MaxDP=5.63D-03 DE=-1.13D-01 OVMax= 8.60D-03

 Cycle   5  Pass 1  IDiag  1:
 E= -1130.25374822862     Delta-E=       -0.001114151954 Rises=F Damp=F
 DIIS: error= 1.51D-03 at cycle   5 NSaved=   5.
 NSaved= 5 IEnMin= 5 EnMin= -1130.25374822862     IErMin= 5 ErrMin= 1.51D-03
 ErrMax= 1.51D-03  0.00D+00 EMaxC= 1.00D+00 BMatC= 6.81D-04 BMatP= 3.71D-03
 IDIUse=1 WtCom= 1.00D+00 WtEn= 0.00D+00
 Coeff-Com:  0.449D-01-0.135D-02-0.119D+00-0.484D-01 0.112D+01
 Coeff:      0.449D-01-0.135D-02-0.119D+00-0.484D-01 0.112D+01
 Gap=     0.274 Goal=   None    Shift=    0.500
 T=  178. Gap= 0.774 NK=4 IS=   94 IE=  106 IFin=   93
          NO(<0.9)=   0  NV(>0.1)=   0     93.00e < EF      0.00e >EF  Err=0.0D+00
 Gap=     0.153 Goal=   None    Shift=    0.500
 T=  178. Gap= 0.653 NK=4 IS=   93 IE=  105 IFin=   92
          NO(<0.9)=   0  NV(>0.1)=   0     92.00e < EF      0.00e >EF  Err=0.0D+00
 GapD=    0.153 DampG=1.000 DampE=1.000 DampFc=1.0000 IDamp=-1.
 RMSDP=9.45D-05 MaxDP=3.53D-03 DE=-1.11D-03 OVMax= 6.25D-03

 Cycle   6  Pass 1  IDiag  1:
 E= -1130.25416733200     Delta-E=       -0.000419103375 Rises=F Damp=F
 DIIS: error= 1.21D-03 at cycle   6 NSaved=   6.
 NSaved= 6 IEnMin= 6 EnMin= -1130.25416733200     IErMin= 6 ErrMin= 1.21D-03
 ErrMax= 1.21D-03  0.00D+00 EMaxC= 1.00D+00 BMatC= 2.15D-04 BMatP= 6.81D-04
 IDIUse=1 WtCom= 1.00D+00 WtEn= 0.00D+00
 Coeff-Com: -0.434D-01 0.939D-01-0.927D-01-0.304D+00 0.516D-01 0.129D+01
 Coeff:     -0.434D-01 0.939D-01-0.927D-01-0.304D+00 0.516D-01 0.129D+01
 Gap=     0.275 Goal=   None    Shift=    0.500
 Gap=     0.154 Goal=   None    Shift=    0.500
 GapD=    0.154 DampG=1.000 DampE=1.000 DampFc=1.0000 IDamp=-1.
 RMSDP=5.90D-05 MaxDP=2.73D-03 DE=-4.19D-04 OVMax= 5.61D-03

 Cycle   7  Pass 1  IDiag  1:
 E= -1130.25439959893     Delta-E=       -0.000232266928 Rises=F Damp=F
 DIIS: error= 1.08D-03 at cycle   7 NSaved=   7.
 NSaved= 7 IEnMin= 7 EnMin= -1130.25439959893     IErMin= 7 ErrMin= 1.08D-03
 ErrMax= 1.08D-03  0.00D+00 EMaxC= 1.00D+00 BMatC= 1.07D-04 BMatP= 2.15D-04
 IDIUse=1 WtCom= 1.00D+00 WtEn= 0.00D+00
 Coeff-Com: -0.290D-01 0.326D-01 0.239D-02-0.872D-01-0.314D+00-0.169D+00
 Coeff-Com:  0.156D+01
 Coeff:     -0.290D-01 0.326D-01 0.239D-02-0.872D-01-0.314D+00-0.169D+00
 Coeff:      0.156D+01
 Gap=     0.275 Goal=   None    Shift=    0.500
 Gap=     0.156 Goal=   None    Shift=    0.500
 GapD=    0.156 DampG=1.000 DampE=1.000 DampFc=1.0000 IDamp=-1.
 RMSDP=3.62D-05 MaxDP=1.62D-03 DE=-2.32D-04 OVMax= 5.08D-03

 Cycle   8  Pass 1  IDiag  1:
 E= -1130.25454660289     Delta-E=       -0.000147003960 Rises=F Damp=F
 DIIS: error= 9.53D-04 at cycle   8 NSaved=   8.
 NSaved= 8 IEnMin= 8 EnMin= -1130.25454660289     IErMin= 8 ErrMin= 9.53D-04
 ErrMax= 9.53D-04  0.00D+00 EMaxC= 1.00D+00 BMatC= 6.17D-05 BMatP= 1.07D-04
 IDIUse=1 WtCom= 1.00D+00 WtEn= 0.00D+00
 Coeff-Com:  0.986D-02-0.336D-01 0.438D-01 0.104D+00-0.157D+00-0.883D+00
 Coeff-Com:  0.177D+00 0.174D+01
 Coeff:      0.986D-02-0.336D-01 0.438D-01 0.104D+00-0.157D+00-0.883D+00
 Coeff:      0.177D+00 0.174D+01
 Gap=     0.275 Goal=   None    Shift=    0.500
 Gap=     0.157 Goal=   None    Shift=    0.500
 RMSDP=2.57D-05 MaxDP=8.90D-04 DE=-1.47D-04 OVMax= 4.99D-03

 Cycle   9  Pass 1  IDiag  1:
 E= -1130.25464734168     Delta-E=       -0.000100738793 Rises=F Damp=F
 DIIS: error= 8.17D-04 at cycle   9 NSaved=   9.
 NSaved= 9 IEnMin= 9 EnMin= -1130.25464734168     IErMin= 9 ErrMin= 8.17D-04
 ErrMax= 8.17D-04  0.00D+00 EMaxC= 1.00D+00 BMatC= 3.50D-05 BMatP= 6.17D-05
 IDIUse=1 WtCom= 1.00D+00 WtEn= 0.00D+00
 Coeff-Com:  0.124D-01-0.185D-01 0.719D-02 0.381D-01 0.165D+00-0.210D+00
 Coeff-Com: -0.855D+00-0.230D+00 0.209D+01
 Coeff:      0.124D-01-0.185D-01 0.719D-02 0.381D-01 0.165D+00-0.210D+00
 Coeff:     -0.855D+00-0.230D+00 0.209D+01
 Gap=     0.276 Goal=   None    Shift=    0.500
 Gap=     0.157 Goal=   None    Shift=    0.500
 RMSDP=1.81D-05 MaxDP=7.50D-04 DE=-1.01D-04 OVMax= 4.57D-03

 Cycle  10  Pass 1  IDiag  1:
 E= -1130.25471244784     Delta-E=       -0.000065106163 Rises=F Damp=F
 DIIS: error= 6.98D-04 at cycle  10 NSaved=  10.
 NSaved=10 IEnMin=10 EnMin= -1130.25471244784     IErMin=10 ErrMin= 6.98D-04
 ErrMax= 6.98D-04  0.00D+00 EMaxC= 1.00D+00 BMatC= 2.14D-05 BMatP= 3.50D-05
 IDIUse=1 WtCom= 1.00D+00 WtEn= 0.00D+00
 Coeff-Com: -0.369D-03 0.562D-02-0.104D-01-0.384D-01 0.147D+00 0.266D+00
 Coeff-Com: -0.585D+00-0.587D+00-0.243D+00 0.205D+01
 Coeff:     -0.369D-03 0.562D-02-0.104D-01-0.384D-01 0.147D+00 0.266D+00
 Coeff:     -0.585D+00-0.587D+00-0.243D+00 0.205D+01
 Gap=     0.275 Goal=   None    Shift=    0.500
 Gap=     0.158 Goal=   None    Shift=    0.500
 RMSDP=1.42D-05 MaxDP=6.59D-04 DE=-6.51D-05 OVMax= 3.88D-03

 Cycle  11  Pass 1  IDiag  1:
 E= -1130.25475296300     Delta-E=       -0.000040515159 Rises=F Damp=F
 DIIS: error= 5.88D-04 at cycle  11 NSaved=  11.
 NSaved=11 IEnMin=11 EnMin= -1130.25475296300     IErMin=11 ErrMin= 5.88D-04
 ErrMax= 5.88D-04  0.00D+00 EMaxC= 1.00D+00 BMatC= 1.38D-05 BMatP= 2.14D-05
 IDIUse=1 WtCom= 1.00D+00 WtEn= 0.00D+00
 Coeff-Com: -0.824D-02 0.109D-01-0.187D-02-0.525D-01-0.599D-01 0.306D+00
 Coeff-Com:  0.270D+00 0.849D-02-0.209D+01 0.231D+00 0.239D+01
 Coeff:     -0.824D-02 0.109D-01-0.187D-02-0.525D-01-0.599D-01 0.306D+00
 Coeff:      0.270D+00 0.849D-02-0.209D+01 0.231D+00 0.239D+01
 Gap=     0.275 Goal=   None    Shift=    0.500
 Gap=     0.158 Goal=   None    Shift=    0.500
 RMSDP=1.25D-05 MaxDP=8.55D-04 DE=-4.05D-05 OVMax= 3.45D-03

 Cycle  12  Pass 1  IDiag  1:
 E= -1130.25478004080     Delta-E=       -0.000027077795 Rises=F Damp=F
 DIIS: error= 5.02D-04 at cycle  12 NSaved=  12.
 NSaved=12 IEnMin=12 EnMin= -1130.25478004080     IErMin=12 ErrMin= 5.02D-04
 ErrMax= 5.02D-04  0.00D+00 EMaxC= 1.00D+00 BMatC= 9.74D-06 BMatP= 1.38D-05
 IDIUse=1 WtCom= 1.00D+00 WtEn= 0.00D+00
 Coeff-Com: -0.203D-02-0.357D-02 0.114D-01-0.219D-01-0.117D+00 0.921D-01
 Coeff-Com:  0.421D+00 0.299D+00-0.127D+01-0.900D+00 0.989D+00 0.151D+01
 Coeff:     -0.203D-02-0.357D-02 0.114D-01-0.219D-01-0.117D+00 0.921D-01
 Coeff:      0.421D+00 0.299D+00-0.127D+01-0.900D+00 0.989D+00 0.151D+01
 Gap=     0.275 Goal=   None    Shift=    0.500
 Gap=     0.158 Goal=   None    Shift=    0.500
 RMSDP=8.55D-06 MaxDP=5.25D-04 DE=-2.71D-05 OVMax= 2.76D-03

 Cycle  13  Pass 1  IDiag  1:
 E= -1130.25479654173     Delta-E=       -0.000016500938 Rises=F Damp=F
 DIIS: error= 4.10D-04 at cycle  13 NSaved=  13.
 NSaved=13 IEnMin=13 EnMin= -1130.25479654173     IErMin=13 ErrMin= 4.10D-04
 ErrMax= 4.10D-04  0.00D+00 EMaxC= 1.00D+00 BMatC= 6.31D-06 BMatP= 9.74D-06
 IDIUse=1 WtCom= 1.00D+00 WtEn= 0.00D+00
 Coeff-Com:  0.597D-02-0.150D-01 0.147D-01 0.206D-01-0.666D-01-0.139D+00
 Coeff-Com:  0.142D+00 0.246D+00 0.565D+00-0.110D+01-0.755D+00-0.433D+00
 Coeff-Com:  0.251D+01
 Coeff:      0.597D-02-0.150D-01 0.147D-01 0.206D-01-0.666D-01-0.139D+00
 Coeff:      0.142D+00 0.246D+00 0.565D+00-0.110D+01-0.755D+00-0.433D+00
 Coeff:      0.251D+01
 Gap=     0.275 Goal=   None    Shift=    0.500
 Gap=     0.158 Goal=   None    Shift=    0.500
 RMSDP=8.26D-06 MaxDP=5.25D-04 DE=-1.65D-05 OVMax= 2.34D-03

 Cycle  14  Pass 1  IDiag  1:
 E= -1130.25480758365     Delta-E=       -0.000011041914 Rises=F Damp=F
 DIIS: error= 3.42D-04 at cycle  14 NSaved=  14.
 NSaved=14 IEnMin=14 EnMin= -1130.25480758365     IErMin=14 ErrMin= 3.42D-04
 ErrMax= 3.42D-04  0.00D+00 EMaxC= 1.00D+00 BMatC= 5.00D-06 BMatP= 6.31D-06
 IDIUse=1 WtCom= 1.00D+00 WtEn= 0.00D+00
 Coeff-Com:  0.374D-02-0.494D-02 0.516D-03 0.148D-01 0.391D-01-0.643D-01
 Coeff-Com: -0.231D+00-0.940D-01 0.100D+01 0.204D+00-0.806D+00-0.266D+01
 Coeff-Com:  0.173D+01 0.186D+01
 Coeff:      0.374D-02-0.494D-02 0.516D-03 0.148D-01 0.391D-01-0.643D-01
 Coeff:     -0.231D+00-0.940D-01 0.100D+01 0.204D+00-0.806D+00-0.266D+01
 Coeff:      0.173D+01 0.186D+01
 Gap=     0.275 Goal=   None    Shift=    0.500
 Gap=     0.158 Goal=   None    Shift=    0.500
 RMSDP=6.58D-06 MaxDP=3.69D-04 DE=-1.10D-05 OVMax= 1.94D-03

 Cycle  15  Pass 1  IDiag  1:
 E= -1130.25481518465     Delta-E=       -0.000007601007 Rises=F Damp=F
 DIIS: error= 2.81D-04 at cycle  15 NSaved=  15.
 NSaved=15 IEnMin=15 EnMin= -1130.25481518465     IErMin=15 ErrMin= 2.81D-04
 ErrMax= 2.81D-04  0.00D+00 EMaxC= 1.00D+00 BMatC= 3.57D-06 BMatP= 5.00D-06
 IDIUse=1 WtCom= 1.00D+00 WtEn= 0.00D+00
 Coeff-Com:  0.716D-03 0.128D-02-0.445D-02-0.549D-03 0.525D-01 0.261D-01
 Coeff-Com: -0.241D+00-0.156D+00 0.471D+00 0.699D+00-0.256D+00-0.244D+01
 Coeff-Com:  0.937D+00 0.416D+00 0.150D+01
 Coeff:      0.716D-03 0.128D-02-0.445D-02-0.549D-03 0.525D-01 0.261D-01
 Coeff:     -0.241D+00-0.156D+00 0.471D+00 0.699D+00-0.256D+00-0.244D+01
 Coeff:      0.937D+00 0.416D+00 0.150D+01
 Gap=     0.275 Goal=   None    Shift=    0.500
 Gap=     0.158 Goal=   None    Shift=    0.500
 RMSDP=4.72D-06 MaxDP=2.67D-04 DE=-7.60D-06 OVMax= 1.57D-03

 Cycle  16  Pass 1  IDiag  1:
 E= -1130.25482028507     Delta-E=       -0.000005100419 Rises=F Damp=F
 DIIS: error= 2.27D-04 at cycle  16 NSaved=  16.
 NSaved=16 IEnMin=16 EnMin= -1130.25482028507     IErMin=16 ErrMin= 2.27D-04
 ErrMax= 2.27D-04  0.00D+00 EMaxC= 1.00D+00 BMatC= 2.36D-06 BMatP= 3.57D-06
 IDIUse=1 WtCom= 1.00D+00 WtEn= 0.00D+00
 Coeff-Com: -0.257D-02 0.385D-02-0.151D-02-0.168D-01-0.923D-02 0.871D-01
 Coeff-Com:  0.664D-01 0.700D-02-0.723D+00 0.371D+00 0.698D+00 0.299D+00
 Coeff-Com: -0.352D+00-0.202D+01-0.631D+00 0.323D+01
 Coeff:     -0.257D-02 0.385D-02-0.151D-02-0.168D-01-0.923D-02 0.871D-01
 Coeff:      0.664D-01 0.700D-02-0.723D+00 0.371D+00 0.698D+00 0.299D+00
 Coeff:     -0.352D+00-0.202D+01-0.631D+00 0.323D+01
 Gap=     0.275 Goal=   None    Shift=    0.500
 Gap=     0.158 Goal=   None    Shift=    0.500
 RMSDP=4.94D-06 MaxDP=2.68D-04 DE=-5.10D-06 OVMax= 1.46D-03

 Cycle  17  Pass 1  IDiag  1:
 E= -1130.25482412367     Delta-E=       -0.000003838592 Rises=F Damp=F
 DIIS: error= 1.84D-04 at cycle  17 NSaved=  17.
 NSaved=17 IEnMin=17 EnMin= -1130.25482412367     IErMin=17 ErrMin= 1.84D-04
 ErrMax= 1.84D-04  0.00D+00 EMaxC= 1.00D+00 BMatC= 1.89D-06 BMatP= 2.36D-06
 IDIUse=1 WtCom= 1.00D+00 WtEn= 0.00D+00
 Coeff-Com: -0.194D-02 0.156D-02 0.151D-02-0.142D-01-0.276D-01 0.558D-01
 Coeff-Com:  0.158D+00 0.530D-01-0.732D+00 0.406D-01 0.637D+00 0.926D+00
 Coeff-Com: -0.304D+00-0.201D+01-0.132D+01 0.265D+01 0.890D+00
 Coeff:     -0.194D-02 0.156D-02 0.151D-02-0.142D-01-0.276D-01 0.558D-01
 Coeff:      0.158D+00 0.530D-01-0.732D+00 0.406D-01 0.637D+00 0.926D+00
 Coeff:     -0.304D+00-0.201D+01-0.132D+01 0.265D+01 0.890D+00
 Gap=     0.275 Goal=   None    Shift=    0.500
 Gap=     0.158 Goal=   None    Shift=    0.500
 RMSDP=3.34D-06 MaxDP=1.96D-04 DE=-3.84D-06 OVMax= 1.21D-03

 Cycle  18  Pass 1  IDiag  1:
 E= -1130.25482675549     Delta-E=       -0.000002631821 Rises=F Damp=F
 DIIS: error= 1.48D-04 at cycle  18 NSaved=  18.
 NSaved=18 IEnMin=18 EnMin= -1130.25482675549     IErMin=18 ErrMin= 1.48D-04
 ErrMax= 1.48D-04  0.00D+00 EMaxC= 1.00D+00 BMatC= 1.26D-06 BMatP= 1.89D-06
 IDIUse=1 WtCom= 1.00D+00 WtEn= 0.00D+00
 Coeff-Com:  0.143D-02-0.359D-02 0.357D-02 0.799D-02-0.171D-01-0.656D-01
 Coeff-Com:  0.881D-01 0.753D-02 0.300D+00-0.480D+00-0.244D+00 0.494D-01
 Coeff-Com:  0.699D+00 0.728D+00-0.105D+01-0.645D+00-0.294D+01 0.456D+01
 Coeff:      0.143D-02-0.359D-02 0.357D-02 0.799D-02-0.171D-01-0.656D-01
 Coeff:      0.881D-01 0.753D-02 0.300D+00-0.480D+00-0.244D+00 0.494D-01
 Coeff:      0.699D+00 0.728D+00-0.105D+01-0.645D+00-0.294D+01 0.456D+01
 Gap=     0.275 Goal=   None    Shift=    0.500
 Gap=     0.158 Goal=   None    Shift=    0.500
 RMSDP=3.90D-06 MaxDP=2.41D-04 DE=-2.63D-06 OVMax= 1.19D-03

 Cycle  19  Pass 1  IDiag  1:
 E= -1130.25482879772     Delta-E=       -0.000002042239 Rises=F Damp=F
 DIIS: error= 1.20D-04 at cycle  19 NSaved=  19.
 NSaved=19 IEnMin=19 EnMin= -1130.25482879772     IErMin=19 ErrMin= 1.20D-04
 ErrMax= 1.20D-04  0.00D+00 EMaxC= 1.00D+00 BMatC= 1.21D-06 BMatP= 1.26D-06
 IDIUse=1 WtCom= 1.00D+00 WtEn= 0.00D+00
 Coeff-Com:  0.122D-02-0.256D-02 0.199D-02 0.614D-02-0.497D-02-0.385D-01
 Coeff-Com:  0.852D-02-0.248D-01 0.365D+00-0.258D+00-0.259D+00-0.606D+00
 Coeff-Com:  0.958D+00 0.829D+00-0.400D+00-0.532D+00-0.357D+01 0.329D+01
 Coeff-Com:  0.124D+01
 Coeff:      0.122D-02-0.256D-02 0.199D-02 0.614D-02-0.497D-02-0.385D-01
 Coeff:      0.852D-02-0.248D-01 0.365D+00-0.258D+00-0.259D+00-0.606D+00
 Coeff:      0.958D+00 0.829D+00-0.400D+00-0.532D+00-0.357D+01 0.329D+01
 Coeff:      0.124D+01
 Gap=     0.275 Goal=   None    Shift=    0.500
 Gap=     0.158 Goal=   None    Shift=    0.500
 RMSDP=2.58D-06 MaxDP=1.42D-04 DE=-2.04D-06 OVMax= 9.65D-04

 Cycle  20  Pass 1  IDiag  1:
 E= -1130.25483014901     Delta-E=       -0.000001351281 Rises=F Damp=F
 DIIS: error= 9.49D-05 at cycle  20 NSaved=  20.
 NSaved=20 IEnMin=20 EnMin= -1130.25483014901     IErMin=20 ErrMin= 9.49D-05
 ErrMax= 9.49D-05  0.00D+00 EMaxC= 1.00D+00 BMatC= 8.88D-07 BMatP= 1.21D-06
 IDIUse=1 WtCom= 1.00D+00 WtEn= 0.00D+00
 Coeff-Com:  0.133D-04 0.112D-03-0.366D-03-0.565D-03 0.176D-02 0.192D-01
 Coeff-Com: -0.451D-01-0.111D-01 0.498D-01 0.140D+00-0.284D-01-0.677D+00
 Coeff-Com:  0.531D+00 0.897D-01 0.177D+00 0.478D+00-0.178D+01 0.764D+00
 Coeff-Com: -0.192D+01 0.321D+01
 Coeff:      0.133D-04 0.112D-03-0.366D-03-0.565D-03 0.176D-02 0.192D-01
 Coeff:     -0.451D-01-0.111D-01 0.498D-01 0.140D+00-0.284D-01-0.677D+00
 Coeff:      0.531D+00 0.897D-01 0.177D+00 0.478D+00-0.178D+01 0.764D+00
 Coeff:     -0.192D+01 0.321D+01
 Gap=     0.275 Goal=   None    Shift=    0.500
 Gap=     0.158 Goal=   None    Shift=    0.500
 RMSDP=2.24D-06 MaxDP=1.01D-04 DE=-1.35D-06 OVMax= 8.41D-04

 Cycle  21  Pass 1  IDiag  1:
 E= -1130.25483105884     Delta-E=       -0.000000909835 Rises=F Damp=F
 DIIS: error= 7.81D-05 at cycle  21 NSaved=  20.
 NSaved=20 IEnMin=20 EnMin= -1130.25483105884     IErMin=20 ErrMin= 7.81D-05
 ErrMax= 7.81D-05  0.00D+00 EMaxC= 1.00D+00 BMatC= 6.71D-07 BMatP= 8.88D-07
 IDIUse=1 WtCom= 1.00D+00 WtEn= 0.00D+00
 Coeff-Com: -0.171D-03 0.270D-03-0.175D-02-0.374D-02 0.108D-01 0.104D-01
 Coeff-Com:  0.239D-01-0.146D+00 0.948D-01 0.856D-01 0.856D-02 0.492D-02
 Coeff-Com: -0.362D+00-0.163D+00 0.856D+00-0.136D+00 0.506D+00-0.338D+01
 Coeff-Com:  0.147D+01 0.212D+01
 Coeff:     -0.171D-03 0.270D-03-0.175D-02-0.374D-02 0.108D-01 0.104D-01
 Coeff:      0.239D-01-0.146D+00 0.948D-01 0.856D-01 0.856D-02 0.492D-02
 Coeff:     -0.362D+00-0.163D+00 0.856D+00-0.136D+00 0.506D+00-0.338D+01
 Coeff:      0.147D+01 0.212D+01
 Gap=     0.275 Goal=   None    Shift=    0.500
 Gap=     0.158 Goal=   None    Shift=    0.500
 RMSDP=1.72D-06 MaxDP=8.27D-05 DE=-9.10D-07 OVMax= 7.03D-04

 Cycle  22  Pass 1  IDiag  1:
 E= -1130.25483164640     Delta-E=       -0.000000587557 Rises=F Damp=F
 DIIS: error= 6.33D-05 at cycle  22 NSaved=  20.
 NSaved=20 IEnMin=20 EnMin= -1130.25483164640     IErMin=20 ErrMin= 6.33D-05
 ErrMax= 6.33D-05  0.00D+00 EMaxC= 1.00D+00 BMatC= 4.78D-07 BMatP= 6.71D-07
 IDIUse=1 WtCom= 1.00D+00 WtEn= 0.00D+00
 Coeff-Com: -0.102D-03-0.213D-02-0.117D-02-0.397D-02 0.393D-01-0.898D-02
 Coeff-Com: -0.711D-01-0.424D-01 0.798D-01 0.172D+00-0.205D-01-0.142D+00
 Coeff-Com: -0.425D+00 0.427D+00-0.251D+00 0.122D+01-0.139D+01-0.791D+00
 Coeff-Com: -0.290D+00 0.250D+01
 Coeff:     -0.102D-03-0.213D-02-0.117D-02-0.397D-02 0.393D-01-0.898D-02
 Coeff:     -0.711D-01-0.424D-01 0.798D-01 0.172D+00-0.205D-01-0.142D+00
 Coeff:     -0.425D+00 0.427D+00-0.251D+00 0.122D+01-0.139D+01-0.791D+00
 Coeff:     -0.290D+00 0.250D+01
 Gap=     0.275 Goal=   None    Shift=    0.500
 Gap=     0.158 Goal=   None    Shift=    0.500
 RMSDP=1.27D-06 MaxDP=5.52D-05 DE=-5.88D-07 OVMax= 5.62D-04

 Cycle  23  Pass 1  IDiag  1:
 E= -1130.25483201142     Delta-E=       -0.000000365025 Rises=F Damp=F
 DIIS: error= 5.06D-05 at cycle  23 NSaved=  20.
 NSaved=20 IEnMin=20 EnMin= -1130.25483201142     IErMin=20 ErrMin= 5.06D-05
 ErrMax= 5.06D-05  0.00D+00 EMaxC= 1.00D+00 BMatC= 3.18D-07 BMatP= 4.78D-07
 IDIUse=1 WtCom= 1.00D+00 WtEn= 0.00D+00
 Coeff-Com:  0.542D-03-0.128D-02-0.117D-01 0.268D-01-0.239D-01 0.649D-01
 Coeff-Com: -0.115D+00-0.233D-03-0.411D-01 0.226D+00 0.139D+00-0.282D+00
 Coeff-Com: -0.716D-01-0.847D+00 0.125D+01 0.814D+00-0.123D+01-0.177D+01
 Coeff-Com:  0.740D+00 0.214D+01
 Coeff:      0.542D-03-0.128D-02-0.117D-01 0.268D-01-0.239D-01 0.649D-01
 Coeff:     -0.115D+00-0.233D-03-0.411D-01 0.226D+00 0.139D+00-0.282D+00
 Coeff:     -0.716D-01-0.847D+00 0.125D+01 0.814D+00-0.123D+01-0.177D+01
 Coeff:      0.740D+00 0.214D+01
 Gap=     0.275 Goal=   None    Shift=    0.500
 Gap=     0.158 Goal=   None    Shift=    0.500
 RMSDP=9.52D-07 MaxDP=3.27D-05 DE=-3.65D-07 OVMax= 4.50D-04

 SCF Done:  E(ULC-wHPBE) =  -1130.25483201     A.U. after   23 cycles
            NFock= 23  Conv=0.95D-06     -V/T= 2.0045
 <Sx>= 0.0000 <Sy>= 0.0000 <Sz>= 0.5000 <S**2>= 0.7673 S= 0.5086
 <L.S>= 0.000000000000E+00
 KE= 1.125245478279D+03 PE=-6.981789430456D+03 EE= 2.539513197006D+03
 Annihilation of the first spin contaminant:
 S**2 before annihilation     0.7673,   after     0.7503
 Leave Link  502 at Sun Jan 17 23:54:19 2021, MaxMem=  4026531840 cpu:           10724.1 elap:            1344.1
 (Enter /opt/ohpc/pub/libs/gaussian/g16-A.03/sandybridge/g16/l508.exe)
 QCSCF skips out because SCF is already converged.
 Leave Link  508 at Sun Jan 17 23:54:19 2021, MaxMem=  4026531840 cpu:               0.0 elap:               0.0
 (Enter /opt/ohpc/pub/libs/gaussian/g16-A.03/sandybridge/g16/l601.exe)
 Copying SCF densities to generalized density rwf, IOpCl= 1 IROHF=0.

 **********************************************************************

            Population analysis using the SCF density.

 **********************************************************************

 Orbital symmetries:
 Alpha Orbitals:
       Occupied  (A) (A) (A) (A) (A) (A) (A) (A) (A) (A) (A) (A)
                 (A) (A) (A) (A) (A) (A) (A) (A) (A) (A) (A) (A)
                 (A) (A) (A) (A) (A) (A) (A) (A) (A) (A) (A) (A)
                 (A) (A) (A) (A) (A) (A) (A) (A) (A) (A) (A) (A)
                 (A) (A) (A) (A) (A) (A) (A) (A) (A) (A) (A) (A)
                 (A) (A) (A) (A) (A) (A) (A) (A) (A) (A) (A) (A)
                 (A) (A) (A) (A) (A) (A) (A) (A) (A) (A) (A) (A)
                 (A) (A) (A) (A) (A) (A) (A) (A) (A)
       Virtual   (A) (A) (A) (A) (A) (A) (A) (A) (A) (A) (A) (A)
                 (A) (A) (A) (A) (A) (A) (A) (A) (A) (A) (A) (A)
                 (A) (A) (A) (A) (A) (A) (A) (A) (A) (A) (A) (A)
                 (A) (A) (A) (A) (A) (A) (A) (A) (A) (A) (A) (A)
                 (A) (A) (A) (A) (A) (A) (A) (A) (A) (A) (A) (A)
                 (A) (A) (A) (A) (A) (A) (A) (A) (A) (A) (A) (A)
                 (A) (A) (A) (A) (A) (A) (A) (A) (A) (A) (A) (A)
                 (A) (A) (A) (A) (A) (A) (A) (A) (A) (A) (A) (A)
                 (A) (A) (A) (A) (A) (A) (A) (A) (A) (A) (A) (A)
                 (A) (A) (A) (A) (A) (A) (A) (A) (A) (A) (A) (A)
                 (A) (A) (A) (A) (A) (A) (A) (A) (A) (A) (A) (A)
                 (A) (A) (A) (A) (A) (A) (A) (A) (A) (A) (A) (A)
                 (A) (A) (A) (A) (A) (A) (A) (A) (A) (A) (A) (A)
                 (A) (A) (A) (A) (A) (A) (A) (A) (A) (A) (A) (A)
                 (A) (A) (A) (A) (A) (A) (A) (A) (A) (A) (A) (A)
                 (A) (A) (A) (A) (A) (A) (A) (A) (A) (A) (A) (A)
                 (A) (A) (A) (A) (A) (A) (A) (A) (A) (A) (A) (A)
                 (A) (A) (A) (A) (A) (A) (A) (A) (A) (A) (A) (A)
                 (A) (A) (A) (A) (A) (A) (A) (A) (A) (A) (A) (A)
                 (A) (A) (A) (A) (A) (A) (A) (A) (A) (A) (A) (A)
                 (A) (A) (A) (A) (A) (A) (A) (A) (A) (A) (A) (A)
                 (A) (A) (A) (A) (A) (A) (A) (A) (A) (A) (A) (A)
                 (A) (A) (A) (A) (A) (A) (A) (A) (A) (A) (A) (A)
                 (A) (A) (A) (A) (A) (A) (A) (A) (A) (A) (A) (A)
                 (A) (A) (A) (A) (A) (A) (A) (A) (A) (A) (A) (A)
                 (A) (A) (A) (A) (A) (A) (A) (A) (A) (A) (A) (A)
                 (A) (A) (A) (A) (A) (A) (A) (A) (A) (A) (A) (A)
                 (A) (A) (A) (A) (A) (A) (A) (A) (A) (A) (A) (A)
                 (A) (A) (A) (A) (A) (A) (A) (A) (A) (A) (A) (A)
                 (A) (A) (A) (A) (A) (A) (A) (A) (A) (A) (A) (A)
                 (A) (A) (A) (A) (A) (A) (A) (A) (A) (A) (A) (A)
                 (A) (A) (A) (A) (A) (A) (A) (A) (A) (A) (A) (A)
                 (A) (A) (A) (A) (A) (A) (A) (A) (A) (A) (A) (A)
                 (A) (A) (A) (A) (A) (A) (A) (A) (A) (A) (A) (A)
                 (A) (A) (A) (A) (A) (A) (A) (A) (A) (A) (A) (A)
                 (A) (A) (A) (A) (A) (A) (A) (A) (A) (A) (A) (A)
                 (A) (A) (A) (A) (A) (A) (A) (A) (A) (A) (A) (A)
                 (A) (A) (A) (A) (A) (A) (A) (A) (A) (A) (A) (A)
                 (A) (A) (A) (A) (A) (A) (A) (A) (A) (A) (A) (A)
                 (A) (A) (A) (A) (A) (A) (A) (A) (A) (A) (A) (A)
                 (A) (A) (A) (A) (A) (A) (A) (A) (A) (A) (A) (A)
                 (A) (A) (A) (A) (A) (A) (A) (A) (A) (A) (A) (A)
                 (A) (A) (A) (A) (A) (A) (A) (A) (A) (A) (A) (A)
                 (A) (A) (A) (A) (A) (A) (A) (A) (A) (A) (A) (A)
                 (A) (A) (A) (A) (A) (A)
 Beta  Orbitals:
       Occupied  (A) (A) (A) (A) (A) (A) (A) (A) (A) (A) (A) (A)
                 (A) (A) (A) (A) (A) (A) (A) (A) (A) (A) (A) (A)
                 (A) (A) (A) (A) (A) (A) (A) (A) (A) (A) (A) (A)
                 (A) (A) (A) (A) (A) (A) (A) (A) (A) (A) (A) (A)
                 (A) (A) (A) (A) (A) (A) (A) (A) (A) (A) (A) (A)
                 (A) (A) (A) (A) (A) (A) (A) (A) (A) (A) (A) (A)
                 (A) (A) (A) (A) (A) (A) (A) (A) (A) (A) (A) (A)
                 (A) (A) (A) (A) (A) (A) (A) (A)
       Virtual   (A) (A) (A) (A) (A) (A) (A) (A) (A) (A) (A) (A)
                 (A) (A) (A) (A) (A) (A) (A) (A) (A) (A) (A) (A)
                 (A) (A) (A) (A) (A) (A) (A) (A) (A) (A) (A) (A)
                 (A) (A) (A) (A) (A) (A) (A) (A) (A) (A) (A) (A)
                 (A) (A) (A) (A) (A) (A) (A) (A) (A) (A) (A) (A)
                 (A) (A) (A) (A) (A) (A) (A) (A) (A) (A) (A) (A)
                 (A) (A) (A) (A) (A) (A) (A) (A) (A) (A) (A) (A)
                 (A) (A) (A) (A) (A) (A) (A) (A) (A) (A) (A) (A)
                 (A) (A) (A) (A) (A) (A) (A) (A) (A) (A) (A) (A)
                 (A) (A) (A) (A) (A) (A) (A) (A) (A) (A) (A) (A)
                 (A) (A) (A) (A) (A) (A) (A) (A) (A) (A) (A) (A)
                 (A) (A) (A) (A) (A) (A) (A) (A) (A) (A) (A) (A)
                 (A) (A) (A) (A) (A) (A) (A) (A) (A) (A) (A) (A)
                 (A) (A) (A) (A) (A) (A) (A) (A) (A) (A) (A) (A)
                 (A) (A) (A) (A) (A) (A) (A) (A) (A) (A) (A) (A)
                 (A) (A) (A) (A) (A) (A) (A) (A) (A) (A) (A) (A)
                 (A) (A) (A) (A) (A) (A) (A) (A) (A) (A) (A) (A)
                 (A) (A) (A) (A) (A) (A) (A) (A) (A) (A) (A) (A)
                 (A) (A) (A) (A) (A) (A) (A) (A) (A) (A) (A) (A)
                 (A) (A) (A) (A) (A) (A) (A) (A) (A) (A) (A) (A)
                 (A) (A) (A) (A) (A) (A) (A) (A) (A) (A) (A) (A)
                 (A) (A) (A) (A) (A) (A) (A) (A) (A) (A) (A) (A)
                 (A) (A) (A) (A) (A) (A) (A) (A) (A) (A) (A) (A)
                 (A) (A) (A) (A) (A) (A) (A) (A) (A) (A) (A) (A)
                 (A) (A) (A) (A) (A) (A) (A) (A) (A) (A) (A) (A)
                 (A) (A) (A) (A) (A) (A) (A) (A) (A) (A) (A) (A)
                 (A) (A) (A) (A) (A) (A) (A) (A) (A) (A) (A) (A)
                 (A) (A) (A) (A) (A) (A) (A) (A) (A) (A) (A) (A)
                 (A) (A) (A) (A) (A) (A) (A) (A) (A) (A) (A) (A)
                 (A) (A) (A) (A) (A) (A) (A) (A) (A) (A) (A) (A)
                 (A) (A) (A) (A) (A) (A) (A) (A) (A) (A) (A) (A)
                 (A) (A) (A) (A) (A) (A) (A) (A) (A) (A) (A) (A)
                 (A) (A) (A) (A) (A) (A) (A) (A) (A) (A) (A) (A)
                 (A) (A) (A) (A) (A) (A) (A) (A) (A) (A) (A) (A)
                 (A) (A) (A) (A) (A) (A) (A) (A) (A) (A) (A) (A)
                 (A) (A) (A) (A) (A) (A) (A) (A) (A) (A) (A) (A)
                 (A) (A) (A) (A) (A) (A) (A) (A) (A) (A) (A) (A)
                 (A) (A) (A) (A) (A) (A) (A) (A) (A) (A) (A) (A)
                 (A) (A) (A) (A) (A) (A) (A) (A) (A) (A) (A) (A)
                 (A) (A) (A) (A) (A) (A) (A) (A) (A) (A) (A) (A)
                 (A) (A) (A) (A) (A) (A) (A) (A) (A) (A) (A) (A)
                 (A) (A) (A) (A) (A) (A) (A) (A) (A) (A) (A) (A)
                 (A) (A) (A) (A) (A) (A) (A) (A) (A) (A) (A) (A)
                 (A) (A) (A) (A) (A) (A) (A) (A) (A) (A) (A) (A)
                 (A) (A) (A) (A) (A) (A) (A)
 The electronic state is 2-A.
 Alpha  occ. eigenvalues --  -19.00914 -18.99915 -14.31858 -10.18635 -10.17880
 Alpha  occ. eigenvalues --  -10.17626 -10.17450 -10.16985 -10.13480 -10.13241
 Alpha  occ. eigenvalues --  -10.13212 -10.12888 -10.12881 -10.12445 -10.12341
 Alpha  occ. eigenvalues --  -10.12299 -10.12171 -10.12141 -10.11785 -10.11679
 Alpha  occ. eigenvalues --  -10.11676 -10.10021 -10.08506 -10.08503 -10.07867
 Alpha  occ. eigenvalues --  -10.07827 -10.07808  -1.20495  -1.19704  -1.16470
 Alpha  occ. eigenvalues --   -1.03301  -1.02977  -1.01191  -0.98529  -0.94248
 Alpha  occ. eigenvalues --   -0.93507  -0.92317  -0.91592  -0.91357  -0.89601
 Alpha  occ. eigenvalues --   -0.87421  -0.86645  -0.81928  -0.81719  -0.79905
 Alpha  occ. eigenvalues --   -0.78696  -0.77866  -0.76751  -0.74128  -0.73578
 Alpha  occ. eigenvalues --   -0.73238  -0.72642  -0.72223  -0.68202  -0.67800
 Alpha  occ. eigenvalues --   -0.67205  -0.66911  -0.64633  -0.64473  -0.63386
 Alpha  occ. eigenvalues --   -0.62511  -0.61205  -0.61040  -0.60686  -0.60276
 Alpha  occ. eigenvalues --   -0.59916  -0.59624  -0.59347  -0.59030  -0.58522
 Alpha  occ. eigenvalues --   -0.58117  -0.56893  -0.56028  -0.55738  -0.55614
 Alpha  occ. eigenvalues --   -0.54568  -0.54279  -0.53359  -0.52877  -0.52569
 Alpha  occ. eigenvalues --   -0.52231  -0.51955  -0.50118  -0.48918  -0.48278
 Alpha  occ. eigenvalues --   -0.46492  -0.45609  -0.44918  -0.44165  -0.41662
 Alpha  occ. eigenvalues --   -0.40925  -0.40874  -0.38663
 Alpha virt. eigenvalues --   -0.11150  -0.10545  -0.10024  -0.08611  -0.07655
 Alpha virt. eigenvalues --   -0.06537  -0.05166  -0.03578  -0.01724  -0.01419
 Alpha virt. eigenvalues --   -0.00795   0.00366   0.00865   0.02122   0.02384
 Alpha virt. eigenvalues --    0.02827   0.03261   0.03615   0.04802   0.04976
 Alpha virt. eigenvalues --    0.05464   0.05726   0.05909   0.06462   0.07144
 Alpha virt. eigenvalues --    0.07616   0.07814   0.08224   0.08581   0.09807
 Alpha virt. eigenvalues --    0.09970   0.10265   0.10746   0.10924   0.11119
 Alpha virt. eigenvalues --    0.11631   0.12947   0.13469   0.13864   0.14087
 Alpha virt. eigenvalues --    0.14308   0.15209   0.15347   0.15469   0.15949
 Alpha virt. eigenvalues --    0.16560   0.16732   0.16994   0.17384   0.17925
 Alpha virt. eigenvalues --    0.17999   0.18374   0.18654   0.19060   0.19644
 Alpha virt. eigenvalues --    0.20097   0.20229   0.20305   0.21348   0.21399
 Alpha virt. eigenvalues --    0.21623   0.21875   0.22198   0.22410   0.22759
 Alpha virt. eigenvalues --    0.22946   0.23423   0.23942   0.24140   0.24836
 Alpha virt. eigenvalues --    0.25066   0.25635   0.26026   0.26380   0.26670
 Alpha virt. eigenvalues --    0.27144   0.27522   0.28075   0.28463   0.29109
 Alpha virt. eigenvalues --    0.29482   0.29553   0.29901   0.30285   0.30330
 Alpha virt. eigenvalues --    0.30528   0.31265   0.31666   0.31890   0.32203
 Alpha virt. eigenvalues --    0.32420   0.33111   0.33329   0.33394   0.33744
 Alpha virt. eigenvalues --    0.33889   0.34485   0.34980   0.35100   0.36154
 Alpha virt. eigenvalues --    0.36320   0.36466   0.36887   0.37324   0.37442
 Alpha virt. eigenvalues --    0.37838   0.38343   0.38430   0.38900   0.39142
 Alpha virt. eigenvalues --    0.39511   0.39839   0.40540   0.40580   0.41044
 Alpha virt. eigenvalues --    0.41117   0.41678   0.41698   0.41971   0.42561
 Alpha virt. eigenvalues --    0.42881   0.43297   0.44162   0.44485   0.45049
 Alpha virt. eigenvalues --    0.45164   0.45667   0.45983   0.46288   0.47047
 Alpha virt. eigenvalues --    0.47316   0.47586   0.48418   0.48541   0.48769
 Alpha virt. eigenvalues --    0.49125   0.49817   0.50905   0.51151   0.51564
 Alpha virt. eigenvalues --    0.51744   0.52553   0.53104   0.53453   0.54425
 Alpha virt. eigenvalues --    0.56021   0.56283   0.57281   0.57893   0.58456
 Alpha virt. eigenvalues --    0.59037   0.59241   0.60879   0.61180   0.61312
 Alpha virt. eigenvalues --    0.61802   0.62623   0.62802   0.63212   0.63345
 Alpha virt. eigenvalues --    0.64411   0.64817   0.65175   0.65667   0.66171
 Alpha virt. eigenvalues --    0.66487   0.66700   0.68279   0.68765   0.68991
 Alpha virt. eigenvalues --    0.69658   0.71471   0.72250   0.73037   0.73566
 Alpha virt. eigenvalues --    0.74585   0.75674   0.76718   0.77265   0.78405
 Alpha virt. eigenvalues --    0.78936   0.79982   0.81129   0.83677   0.84795
 Alpha virt. eigenvalues --    0.86124   0.86432   0.87781   1.03986   1.06506
 Alpha virt. eigenvalues --    1.07726   1.12644   1.12792   1.13827   1.14323
 Alpha virt. eigenvalues --    1.15035   1.15430   1.15875   1.15912   1.16171
 Alpha virt. eigenvalues --    1.16861   1.17795   1.18164   1.18643   1.19000
 Alpha virt. eigenvalues --    1.19786   1.20087   1.20493   1.20972   1.21329
 Alpha virt. eigenvalues --    1.21905   1.22407   1.22553   1.23135   1.23334
 Alpha virt. eigenvalues --    1.23832   1.24151   1.24675   1.25101   1.25645
 Alpha virt. eigenvalues --    1.26194   1.26559   1.26820   1.27055   1.27936
 Alpha virt. eigenvalues --    1.28647   1.29564   1.30192   1.32183   1.32246
 Alpha virt. eigenvalues --    1.32757   1.32983   1.33570   1.33744   1.34235
 Alpha virt. eigenvalues --    1.34837   1.35240   1.35522   1.35727   1.36178
 Alpha virt. eigenvalues --    1.36328   1.36560   1.37041   1.37312   1.37592
 Alpha virt. eigenvalues --    1.37939   1.38803   1.39043   1.39316   1.39394
 Alpha virt. eigenvalues --    1.40121   1.40273   1.41011   1.41348   1.41530
 Alpha virt. eigenvalues --    1.42430   1.42680   1.43201   1.43517   1.43782
 Alpha virt. eigenvalues --    1.43973   1.44098   1.44332   1.44544   1.44804
 Alpha virt. eigenvalues --    1.45692   1.45836   1.46222   1.46493   1.47026
 Alpha virt. eigenvalues --    1.47305   1.47644   1.47896   1.48513   1.48724
 Alpha virt. eigenvalues --    1.49839   1.49932   1.50677   1.51115   1.51764
 Alpha virt. eigenvalues --    1.52740   1.53609   1.54749   1.55740   1.57027
 Alpha virt. eigenvalues --    1.57502   1.58520   1.58909   1.60038   1.60776
 Alpha virt. eigenvalues --    1.62397   1.64237   1.65496   1.66050   1.66582
 Alpha virt. eigenvalues --    1.67283   1.67789   1.68386   1.69217   1.69812
 Alpha virt. eigenvalues --    1.70137   1.70365   1.70878   1.71209   1.71621
 Alpha virt. eigenvalues --    1.72236   1.72490   1.72741   1.73708   1.74396
 Alpha virt. eigenvalues --    1.74556   1.75316   1.76793   1.77039   1.78129
 Alpha virt. eigenvalues --    1.79062   1.79672   1.79864   1.80823   1.81393
 Alpha virt. eigenvalues --    1.81759   1.82086   1.82216   1.82484   1.82775
 Alpha virt. eigenvalues --    1.83178   1.83451   1.83549   1.84000   1.84859
 Alpha virt. eigenvalues --    1.85412   1.85938   1.87064   1.87174   1.87360
 Alpha virt. eigenvalues --    1.88707   1.88862   1.89844   1.90214   1.91485
 Alpha virt. eigenvalues --    1.91880   1.92438   1.92930   1.93018   1.93509
 Alpha virt. eigenvalues --    1.95300   1.95737   1.95919   1.97051   1.98387
 Alpha virt. eigenvalues --    2.00197   2.01963   2.03375   2.03631   2.06542
 Alpha virt. eigenvalues --    2.07710   2.08728   2.10601   2.11190   2.12091
 Alpha virt. eigenvalues --    2.12871   2.14072   2.14952   2.16185   2.17348
 Alpha virt. eigenvalues --    2.18462   2.18885   2.19427   2.20103   2.20294
 Alpha virt. eigenvalues --    2.20715   2.21121   2.21707   2.21756   2.22205
 Alpha virt. eigenvalues --    2.22361   2.23365   2.23621   2.24094   2.24831
 Alpha virt. eigenvalues --    2.25451   2.26036   2.26451   2.27003   2.27454
 Alpha virt. eigenvalues --    2.27806   2.27918   2.28084   2.28773   2.28890
 Alpha virt. eigenvalues --    2.30234   2.30401   2.30981   2.33680   2.34833
 Alpha virt. eigenvalues --    2.36038   2.37514   2.38796   2.41473   2.42528
 Alpha virt. eigenvalues --    2.43237   2.43584   2.44461   2.45762   2.46067
 Alpha virt. eigenvalues --    2.47006   2.47078   2.47924   2.49748   2.50060
 Alpha virt. eigenvalues --    2.50176   2.50528   2.51348   2.53390   2.53599
 Alpha virt. eigenvalues --    2.54097   2.54384   2.55008   2.55690   2.56846
 Alpha virt. eigenvalues --    2.58239   2.58329   2.58968   2.60115   2.61216
 Alpha virt. eigenvalues --    2.61904   2.62665   2.63563   2.64109   2.64341
 Alpha virt. eigenvalues --    2.65708   2.66432   2.67251   2.69549   2.71368
 Alpha virt. eigenvalues --    2.71424   2.73668   2.74371   2.74866   2.75458
 Alpha virt. eigenvalues --    2.76751   2.77837   2.81572   2.82521   2.82705
 Alpha virt. eigenvalues --    2.83750   2.85334   2.86866   2.88103   2.88886
 Alpha virt. eigenvalues --    2.89328   2.90536   2.91529   2.92400   2.92831
 Alpha virt. eigenvalues --    2.93725   2.94417   2.95254   2.97009   2.97082
 Alpha virt. eigenvalues --    2.97337   2.98424   2.99244   3.00474   3.02011
 Alpha virt. eigenvalues --    3.02352   3.03464   3.05003   3.05290   3.06256
 Alpha virt. eigenvalues --    3.07006   3.07794   3.08973   3.10028   3.10809
 Alpha virt. eigenvalues --    3.11301   3.12349   3.12834   3.13498   3.15099
 Alpha virt. eigenvalues --    3.16253   3.17499   3.18780   3.19873   3.22749
 Alpha virt. eigenvalues --    3.23477   3.25117   3.26658   3.28342   3.29275
 Alpha virt. eigenvalues --    3.29596   3.33224   3.33478   3.42384   3.43847
 Alpha virt. eigenvalues --    3.44897   3.45652   3.46219   3.47478   3.59633
 Alpha virt. eigenvalues --    3.70237   3.70859   3.78434   3.95192   3.96027
 Alpha virt. eigenvalues --    4.20631   4.21509  20.97793  21.10824  21.13309
 Alpha virt. eigenvalues --   21.21790  21.51719  21.56889  21.59337  21.61145
 Alpha virt. eigenvalues --   21.62506  21.63405  21.69429  21.74257  21.78262
 Alpha virt. eigenvalues --   21.83209  21.84252  21.84481  21.86515  21.88222
 Alpha virt. eigenvalues --   21.89830  21.91403  21.95998  21.99369  22.01836
 Alpha virt. eigenvalues --   22.04631  31.86111  43.11738  43.14150
  Beta  occ. eigenvalues --  -19.00825 -18.99933 -14.31064 -10.18522 -10.17939
  Beta  occ. eigenvalues --  -10.17689 -10.17473 -10.16989 -10.13379 -10.13147
  Beta  occ. eigenvalues --  -10.13030 -10.12750 -10.12745 -10.12465 -10.12226
  Beta  occ. eigenvalues --  -10.12165 -10.12110 -10.12049 -10.11809 -10.11733
  Beta  occ. eigenvalues --  -10.11728 -10.10036 -10.08472 -10.08469 -10.07857
  Beta  occ. eigenvalues --  -10.07840 -10.07797  -1.20333  -1.19734  -1.15454
  Beta  occ. eigenvalues --   -1.03085  -1.02781  -1.00925  -0.98425  -0.94042
  Beta  occ. eigenvalues --   -0.93294  -0.92201  -0.91440  -0.91196  -0.89283
  Beta  occ. eigenvalues --   -0.87386  -0.86405  -0.81683  -0.81527  -0.79708
  Beta  occ. eigenvalues --   -0.78524  -0.77744  -0.76621  -0.74039  -0.73473
  Beta  occ. eigenvalues --   -0.73147  -0.72518  -0.72043  -0.68083  -0.67600
  Beta  occ. eigenvalues --   -0.66795  -0.66744  -0.64432  -0.64352  -0.63277
  Beta  occ. eigenvalues --   -0.62409  -0.61076  -0.60915  -0.60616  -0.60137
  Beta  occ. eigenvalues --   -0.59717  -0.59307  -0.59165  -0.58877  -0.58448
  Beta  occ. eigenvalues --   -0.57534  -0.56646  -0.55961  -0.55608  -0.55492
  Beta  occ. eigenvalues --   -0.54209  -0.54020  -0.52887  -0.52767  -0.52351
  Beta  occ. eigenvalues --   -0.52150  -0.51873  -0.48997  -0.48876  -0.48139
  Beta  occ. eigenvalues --   -0.45853  -0.44974  -0.44547  -0.42873  -0.40866
  Beta  occ. eigenvalues --   -0.40833  -0.39694
  Beta virt. eigenvalues --   -0.23854  -0.10495  -0.10227  -0.09443  -0.08154
  Beta virt. eigenvalues --   -0.07162  -0.05781  -0.05084  -0.03062  -0.01682
  Beta virt. eigenvalues --   -0.01386  -0.00722   0.00440   0.00938   0.02173
[...]
     5   Atom        0.004575     -0.009869      0.005294
     6   Atom       -0.010393      0.023791     -0.013398
     7   Atom        0.002320     -0.000376     -0.001944
     8   Atom       -0.000122     -0.000961      0.001083
     9   Atom        0.000726     -0.000671     -0.000054
    10   Atom       -0.000109     -0.000959      0.001068
    11   Atom       -0.072163     -0.013922      0.086085
    12   Atom        0.021024      0.002619     -0.023643
    13   Atom        0.022308      0.002048     -0.024355
    14   Atom       -0.055014      0.038534      0.016480
    15   Atom       -0.052575      0.037364      0.015211
    16   Atom        0.005237     -0.022138      0.016901
    17   Atom        0.001475     -0.000565     -0.000909
    18   Atom        0.001516     -0.000546     -0.000970
    19   Atom       -0.002706      0.003434     -0.000728
    20   Atom       -0.003052      0.003489     -0.000437
    21   Atom        0.000732     -0.000675     -0.000057
    22   Atom       -0.489092     -0.486425      0.975517
    23   Atom       -0.005347      0.013139     -0.007791
    24   Atom        0.018769     -0.032814      0.014044
    25   Atom       -0.000521     -0.022294      0.022816
    26   Atom        0.007211      0.015131     -0.022342
    27   Atom        0.008614      0.018788     -0.027402
    28   Atom       -0.034582     -0.051637      0.086218
    29   Atom        0.000777     -0.000514     -0.000263
    30   Atom        0.003934     -0.003741     -0.000193
    31   Atom        0.000782      0.000790     -0.001572
    32   Atom       -0.002855      0.006401     -0.003546
    33   Atom       -0.009123     -0.007989      0.017112
    34   Atom        0.057799     -0.029556     -0.028243
    35   Atom        0.016834      0.012331     -0.029165
    36   Atom        0.004500      0.000034     -0.004534
    37   Atom       -0.006303      0.011990     -0.005687
    38   Atom        0.009280     -0.022733      0.013453
    39   Atom        0.000152     -0.001635      0.001483
    40   Atom       -0.000313     -0.001175      0.001489
    41   Atom       -0.000358     -0.000060      0.000418
    42   Atom       -0.000797      0.000323      0.000475
    43   Atom        0.032732     -0.039399      0.006668
    44   Atom        0.002326     -0.003663      0.001337
    45   Atom        0.012247      0.009796     -0.022043
    46   Atom        0.001940     -0.001742     -0.000199
 --------------------------------------------------------
                        XY            XZ            YZ
 --------------------------------------------------------
     1   Atom        0.000555     -0.000045     -0.003701
     2   Atom        0.001497      0.000361      0.010898
     3   Atom        0.009594     -0.000877      0.001194
     4   Atom       -0.001740     -0.000352     -0.003639
     5   Atom       -0.000326      0.000101      0.002097
     6   Atom       -0.007518      0.000780      0.001599
     7   Atom       -0.000075     -0.000099      0.000388
     8   Atom        0.000001     -0.000077     -0.001190
     9   Atom       -0.000085     -0.000084     -0.000086
    10   Atom       -0.000117      0.000064     -0.001196
    11   Atom        0.004456      0.007245      0.102816
    12   Atom       -0.004452     -0.007242     -0.023923
    13   Atom        0.001364      0.002549     -0.025382
    14   Atom       -0.013161     -0.007443      0.081523
    15   Atom        0.021733      0.015168      0.081059
    16   Atom        0.002052      0.005257     -0.001566
    17   Atom        0.000424     -0.000316     -0.001986
    18   Atom       -0.000717      0.000060     -0.001894
    19   Atom        0.001413     -0.002052     -0.005282
    20   Atom       -0.001596      0.001687     -0.005213
    21   Atom       -0.000007      0.000036     -0.000092
    22   Atom       -0.001378      0.037976     -0.073859
    23   Atom       -0.016226      0.018122      0.011439
    24   Atom        0.034011     -0.064058     -0.035855
    25   Atom        0.056883     -0.079962     -0.061912
    26   Atom       -0.011231      0.023686      0.018891
    27   Atom       -0.014128      0.029072      0.018443
    28   Atom        0.029352     -0.085845     -0.062694
    29   Atom        0.002551      0.003484      0.003661
    30   Atom        0.000990      0.005983      0.000003
    31   Atom       -0.001859      0.001302      0.000393
    32   Atom       -0.007854     -0.004011     -0.001667
    33   Atom        0.006219      0.018167     -0.007833
    34   Atom       -0.032126      0.033791     -0.014836
    35   Atom       -0.052213      0.022633     -0.016991
    36   Atom        0.008755     -0.005915      0.008704
    37   Atom        0.004849     -0.013051      0.003921
    38   Atom       -0.035148      0.061800     -0.038867
    39   Atom       -0.000962     -0.004459      0.002735
    40   Atom       -0.000710     -0.004342      0.002440
    41   Atom        0.001084     -0.001538      0.000595
    42   Atom        0.000944     -0.001293      0.000926
    43   Atom       -0.071538      0.101834     -0.064882
    44   Atom        0.001201     -0.004889     -0.001905
    45   Atom       -0.007542      0.020442      0.014400
    46   Atom        0.000291      0.001749     -0.000128
 --------------------------------------------------------


 ---------------------------------------------------------------------------------
              Anisotropic Spin Dipole Couplings in Principal Axis System
 ---------------------------------------------------------------------------------

       Atom             a.u.   MegaHertz   Gauss  10(-4) cm-1        Axes

              Baa    -0.0107    -1.430    -0.510    -0.477 -0.0306  0.9657  0.2580
     1 C(13)  Bbb     0.0042     0.559     0.199     0.186  0.0803 -0.2549  0.9636
              Bcc     0.0065     0.871     0.311     0.291  0.9963  0.0502 -0.0697
 
              Baa    -0.0153    -2.058    -0.734    -0.686  0.0177 -0.2573  0.9662
     2 C(13)  Bbb    -0.0133    -1.786    -0.637    -0.596  0.9992 -0.0309 -0.0265
              Bcc     0.0286     3.843     1.371     1.282  0.0367  0.9658  0.2565
 
              Baa    -0.0140    -1.878    -0.670    -0.626  0.4917 -0.1565  0.8566
     3 C(13)  Bbb    -0.0114    -1.525    -0.544    -0.509  0.8293 -0.2156 -0.5155
              Bcc     0.0254     3.403     1.214     1.135  0.2654  0.9639  0.0238
 
              Baa    -0.0107    -1.434    -0.512    -0.478  0.1036  0.9615  0.2544
     4 C(13)  Bbb     0.0042     0.559     0.200     0.187 -0.0444 -0.2510  0.9670
              Bcc     0.0065     0.875     0.312     0.292  0.9936 -0.1114  0.0167
 
              Baa    -0.0102    -1.364    -0.487    -0.455  0.0228  0.9906 -0.1346
     5 C(13)  Bbb     0.0046     0.615     0.219     0.205  0.9981 -0.0302 -0.0529
              Bcc     0.0056     0.749     0.267     0.250  0.0564  0.1331  0.9895
 
              Baa    -0.0140    -1.882    -0.672    -0.628 -0.4525 -0.1273  0.8826
     6 C(13)  Bbb    -0.0114    -1.529    -0.546    -0.510  0.8680  0.1642  0.4686
              Bcc     0.0254     3.411     1.217     1.138 -0.2045  0.9782  0.0362
 
              Baa    -0.0020    -1.086    -0.388    -0.362  0.0183 -0.2266  0.9738
     7 H(1)   Bbb    -0.0003    -0.154    -0.055    -0.051  0.0364  0.9735  0.2259
              Bcc     0.0023     1.241     0.443     0.414  0.9992 -0.0313 -0.0260
 
              Baa    -0.0015    -0.805    -0.287    -0.268  0.0228  0.9083  0.4178
     8 H(1)   Bbb    -0.0001    -0.066    -0.024    -0.022  0.9989 -0.0374  0.0268
              Bcc     0.0016     0.871     0.311     0.291 -0.0399 -0.4167  0.9082
 
              Baa    -0.0007    -0.368    -0.131    -0.123  0.0679  0.9874  0.1432
     9 H(1)   Bbb    -0.0000    -0.026    -0.009    -0.009  0.0901 -0.1490  0.9847
              Bcc     0.0007     0.394     0.141     0.131  0.9936 -0.0539 -0.0991
 
              Baa    -0.0015    -0.810    -0.289    -0.270  0.0566  0.9067  0.4180
    10 H(1)   Bbb    -0.0001    -0.059    -0.021    -0.020  0.9965 -0.0255 -0.0797
              Bcc     0.0016     0.869     0.310     0.290  0.0616 -0.4210  0.9050
 
              Baa    -0.0782   -10.500    -3.747    -3.503  0.0113  0.8475 -0.5307
    11 C(13)  Bbb    -0.0725    -9.727    -3.471    -3.245  0.9992 -0.0298 -0.0263
              Bcc     0.1507    20.227     7.218     6.747  0.0381  0.5300  0.8471
 
              Baa    -0.0390    -5.234    -1.868    -1.746  0.1402  0.5046  0.8519
    12 C(13)  Bbb     0.0168     2.251     0.803     0.751  0.0257  0.8582 -0.5126
              Bcc     0.0222     2.983     1.064     0.995  0.9898 -0.0938 -0.1074
 
              Baa    -0.0399    -5.354    -1.910    -1.786 -0.0464  0.5183  0.8540
    13 C(13)  Bbb     0.0175     2.342     0.836     0.781  0.0313  0.8552 -0.5173
              Bcc     0.0224     3.012     1.075     1.005  0.9984 -0.0027  0.0559
 
              Baa    -0.0587    -7.876    -2.810    -2.627  0.7877  0.4549 -0.4154
    14 C(13)  Bbb    -0.0524    -7.032    -2.509    -2.346  0.6096 -0.4784  0.6321
              Bcc     0.1111    14.908     5.319     4.973 -0.0888  0.7511  0.6542
 
              Baa    -0.0591    -7.924    -2.828    -2.643  0.7707 -0.5028  0.3914
    15 C(13)  Bbb    -0.0533    -7.147    -2.550    -2.384 -0.6174 -0.4370  0.6541
              Bcc     0.1123    15.071     5.378     5.027  0.1578  0.7458  0.6472
 
              Baa    -0.0224    -3.005    -1.072    -1.002 -0.0836  0.9952  0.0508
    16 C(13)  Bbb     0.0035     0.464     0.166     0.155  0.9308  0.0962 -0.3527
              Bcc     0.0189     2.541     0.907     0.847  0.3559 -0.0178  0.9343
 
              Baa    -0.0027    -1.457    -0.520    -0.486 -0.0131  0.6771  0.7357
    17 H(1)   Bbb     0.0008     0.442     0.158     0.147  0.6308 -0.5653  0.5315
              Bcc     0.0019     1.015     0.362     0.339  0.7758  0.4711 -0.4197
 
              Baa    -0.0027    -1.445    -0.516    -0.482  0.1042  0.6745  0.7309
    18 H(1)   Bbb     0.0007     0.398     0.142     0.133 -0.5705 -0.5614  0.5994
              Bcc     0.0020     1.047     0.374     0.349  0.8146 -0.4795  0.3263
 
              Baa    -0.0048    -2.569    -0.917    -0.857  0.4763  0.4149  0.7753
    19 H(1)   Bbb    -0.0027    -1.464    -0.523    -0.488  0.8508 -0.4401 -0.2872
              Bcc     0.0076     4.034     1.439     1.345  0.2220  0.7964 -0.5625
 
              Baa    -0.0043    -2.307    -0.823    -0.770 -0.5021  0.4066  0.7632
    20 H(1)   Bbb    -0.0033    -1.739    -0.620    -0.580  0.8391  0.4427  0.3162
              Bcc     0.0076     4.046     1.444     1.350 -0.2093  0.7991 -0.5635
 
              Baa    -0.0007    -0.367    -0.131    -0.123  0.0015  0.9895  0.1443
    21 H(1)   Bbb    -0.0000    -0.024    -0.009    -0.008 -0.0466 -0.1441  0.9885
              Bcc     0.0007     0.391     0.140     0.131  0.9989 -0.0082  0.0459
 
              Baa    -0.4906   -18.923    -6.752    -6.312 -0.6828  0.7286  0.0544
    22 N(14)  Bbb    -0.4896   -18.882    -6.737    -6.298  0.7301  0.6831  0.0155
              Bcc     0.9802    37.805    13.490    12.610  0.0259 -0.0503  0.9984
 
              Baa    -0.0330    -4.427    -1.580    -1.477  0.6540  0.3907 -0.6478
    23 C(13)  Bbb     0.0104     1.394     0.497     0.465  0.5843  0.2830  0.7606
              Bcc     0.0226     3.033     1.082     1.012 -0.4805  0.8759  0.0432
 
              Baa    -0.0522    -7.011    -2.502    -2.339  0.0594  0.8529  0.5187
    24 C(13)  Bbb    -0.0468    -6.274    -2.239    -2.093  0.7395 -0.3866  0.5511
              Bcc     0.0990    13.285     4.741     4.432  0.6706  0.3508 -0.6537
 
              Baa    -0.0709    -9.513    -3.394    -3.173  0.8077 -0.4255  0.4081
    25 C(13)  Bbb    -0.0656    -8.798    -3.139    -2.935  0.0919  0.7746  0.6258
              Bcc     0.1365    18.311     6.534     6.108 -0.5824 -0.4679  0.6647
 
              Baa    -0.0437    -5.863    -2.092    -1.956 -0.4576 -0.3499  0.8174
    26 C(13)  Bbb     0.0202     2.715     0.969     0.906  0.8233  0.1806  0.5382
              Bcc     0.0235     3.148     1.123     1.050 -0.3359  0.9192  0.2054
 
              Baa    -0.0512    -6.865    -2.450    -2.290 -0.4742 -0.3128  0.8230
    27 C(13)  Bbb     0.0223     2.991     1.067     0.998  0.5862  0.5853  0.5602
              Bcc     0.0289     3.874     1.382     1.292 -0.6569  0.7481 -0.0942
 
              Baa    -0.0804   -10.796    -3.852    -3.601  0.7364  0.4140  0.5350
    28 C(13)  Bbb    -0.0736    -9.876    -3.524    -3.294 -0.5195  0.8526  0.0554
              Bcc     0.1540    20.671     7.376     6.895 -0.4333 -0.3188  0.8430
 
              Baa    -0.0042    -2.235    -0.797    -0.745 -0.2252 -0.6048  0.7639
    29 H(1)   Bbb    -0.0023    -1.230    -0.439    -0.410  0.7669 -0.5936 -0.2439
              Bcc     0.0065     3.465     1.236     1.156  0.6010  0.5309  0.5975
 
              Baa    -0.0048    -2.554    -0.911    -0.852 -0.5284  0.4977  0.6878
    30 H(1)   Bbb    -0.0035    -1.850    -0.660    -0.617  0.2407  0.8647 -0.4408
              Bcc     0.0083     4.404     1.571     1.469  0.8142  0.0673  0.5767
 
              Baa    -0.0026    -1.385    -0.494    -0.462 -0.5036 -0.3672  0.7820
    31 H(1)   Bbb    -0.0002    -0.082    -0.029    -0.027  0.4591  0.6530  0.6024
              Bcc     0.0027     1.467     0.523     0.489  0.7319 -0.6623  0.1603
 
              Baa    -0.0102    -5.420    -1.934    -1.808  0.7339  0.4031  0.5468
    32 H(1)   Bbb    -0.0008    -0.402    -0.143    -0.134 -0.4555 -0.3052  0.8363
              Bcc     0.0109     5.822     2.077     1.942 -0.5040  0.8628  0.0403
 
              Baa    -0.0238    -3.191    -1.139    -1.064  0.7473 -0.5073 -0.4292
    33 C(13)  Bbb    -0.0031    -0.422    -0.150    -0.141  0.5071  0.8528 -0.1250
              Bcc     0.0269     3.613     1.289     1.205  0.4294 -0.1242  0.8945
 
              Baa    -0.0438    -5.871    -2.095    -1.958 -0.0052  0.7169  0.6971
    34 C(13)  Bbb    -0.0370    -4.963    -1.771    -1.655 -0.4414 -0.6272  0.6417
              Bcc     0.0807    10.834     3.866     3.614  0.8973 -0.3044  0.3197
 
              Baa    -0.0405    -5.439    -1.941    -1.814  0.6416  0.4294 -0.6356
    35 C(13)  Bbb    -0.0339    -4.554    -1.625    -1.519  0.3082  0.6145  0.7263
              Bcc     0.0745     9.993     3.566     3.333  0.7024 -0.6618  0.2619
 
              Baa    -0.0162    -2.177    -0.777    -0.726  0.4431 -0.5969  0.6688
    36 C(13)  Bbb     0.0049     0.654     0.233     0.218 -0.4706  0.4801  0.7403
              Bcc     0.0113     1.523     0.543     0.508  0.7630  0.6428  0.0681
 
              Baa    -0.0202    -2.717    -0.969    -0.906  0.7053 -0.1892  0.6832
    37 C(13)  Bbb     0.0070     0.940     0.336     0.314 -0.6804  0.0899  0.7273
              Bcc     0.0132     1.776     0.634     0.593  0.1990  0.9778  0.0653
 
              Baa    -0.0510    -6.839    -2.440    -2.281 -0.6073  0.2718  0.7466
    38 C(13)  Bbb    -0.0453    -6.078    -2.169    -2.027  0.4805  0.8740  0.0727
              Bcc     0.0963    12.917     4.609     4.309  0.6327 -0.4029  0.6613
 
              Baa    -0.0043    -2.285    -0.815    -0.762  0.5662 -0.4838  0.6674
    39 H(1)   Bbb    -0.0020    -1.056    -0.377    -0.352  0.5756  0.8116  0.1000
              Bcc     0.0063     3.341     1.192     1.115 -0.5901  0.3275  0.7380
 
              Baa    -0.0042    -2.264    -0.808    -0.755  0.6581 -0.3696  0.6560
    40 H(1)   Bbb    -0.0016    -0.840    -0.300    -0.280  0.4898  0.8718 -0.0002
              Bcc     0.0058     3.104     1.108     1.035 -0.5718  0.3214  0.7548
 
              Baa    -0.0022    -1.197    -0.427    -0.399  0.7029 -0.4897  0.5159
    41 H(1)   Bbb     0.0006     0.317     0.113     0.106  0.2822  0.8578  0.4297
              Bcc     0.0016     0.879     0.314     0.293 -0.6529 -0.1564  0.7411
 
              Baa    -0.0023    -1.203    -0.429    -0.401  0.7378 -0.4508  0.5024
    42 H(1)   Bbb     0.0008     0.441     0.157     0.147  0.6056  0.7707 -0.1980
              Bcc     0.0014     0.762     0.272     0.254 -0.2980  0.4503  0.8417
 
              Baa    -0.0852     6.167     2.201     2.057 -0.0549  0.7860  0.6158
    43 O(17)  Bbb    -0.0822     5.949     2.123     1.984  0.7325  0.4509 -0.5101
              Bcc     0.1674   -12.116    -4.323    -4.042  0.6786 -0.4230  0.6005
 
              Baa    -0.0044    -2.333    -0.832    -0.778  0.1526  0.8909  0.4279
    44 H(1)   Bbb    -0.0028    -1.498    -0.535    -0.500  0.6776 -0.4095  0.6109
              Bcc     0.0072     3.831     1.367     1.278  0.7194  0.1967 -0.6661
 
              Baa    -0.0372     2.691     0.960     0.898 -0.4033 -0.3267  0.8548
    45 O(17)  Bbb     0.0153    -1.109    -0.396    -0.370 -0.0388  0.9394  0.3407
              Bcc     0.0219    -1.582    -0.564    -0.528  0.9143 -0.1042  0.3915
 
              Baa    -0.0018    -0.985    -0.351    -0.329 -0.2065  0.9339  0.2919
    46 H(1)   Bbb    -0.0011    -0.578    -0.206    -0.193 -0.4422 -0.3552  0.8236
              Bcc     0.0029     1.563     0.558     0.521  0.8728  0.0410  0.4863
 

 ---------------------------------------------------------------------------------

 No NMR shielding tensors so no spin-rotation constants.
 Leave Link  601 at Sun Jan 17 23:54:20 2021, MaxMem=  4026531840 cpu:               7.0 elap:               1.0
 (Enter /opt/ohpc/pub/libs/gaussian/g16-A.03/sandybridge/g16/l9999.exe)

 Test job not archived.
 1\1\GINC-CASCADEB002\SP\ULC-wHPBE\TZVP\C24H19N1O2(1+,2)\RDU230\17-Jan-
 2021\0\\#P LC-wHPBE/TZVP iop(3/107=0182300000, 3/108=0182300000) scf=(
 conver=6,fermi,ndamp=35,noincfock,novaracc,vshift=500,xqc)\\H19 C24 N1
  O2\\1,2\C,0,-6.538108,-0.217341,1.255514\C,0,-7.258661,0.087287,0.107
 878\C,0,-5.15139,-0.259049,1.219222\C,0,-6.580697,0.348691,-1.075777\C
 ,0,-4.458004,0.000662,0.035726\C,0,-5.193998,0.304569,-1.110911\H,0,-8
 .345644,0.121015,0.135956\H,0,-4.59391,-0.476283,2.12835\H,0,-7.136138
 ,0.581164,-1.982188\H,0,-4.671509,0.488761,-2.047704\C,0,-2.974479,-0.
 044963,-0.00277\C,0,-2.240322,0.918366,-0.694597\C,0,-2.265576,-1.0512
 97,0.654611\C,0,-0.856277,0.875925,-0.739808\C,0,-0.88157,-1.094369,0.
 628888\C,0,-0.155643,-0.133238,-0.077397\H,0,-2.762026,1.727417,-1.202
 285\H,0,-2.809037,-1.823891,1.195264\H,0,-0.306381,1.639189,-1.284917\
 H,0,-0.352632,-1.885069,1.15502\H,0,-7.059465,-0.416189,2.189743\N,0,1
 .257026,-0.160831,-0.103806\C,0,1.965402,-1.377887,-0.17457\C,0,3.1900
 04,-1.508547,0.478017\C,0,1.461496,-2.456008,-0.912094\C,0,3.903051,-2
 .696891,0.390217\C,0,2.178621,-3.638306,-0.97461\C,0,3.402953,-3.77505
 6,-0.332839\H,0,3.600761,-0.690157,1.062074\H,0,0.51484,-2.358097,-1.4
 35231\H,0,1.782807,-4.471654,-1.551437\H,0,3.963923,-4.706428,-0.39805
 5\C,0,1.972861,1.068372,-0.045814\C,0,2.971482,1.350948,-0.972341\C,0,
 1.683086,2.012203,0.939258\C,0,3.67678,2.543988,-0.910119\C,0,2.365608
 ,3.214996,0.992156\C,0,3.371443,3.4833,0.069272\H,0,3.205268,0.621566,
 -1.744392\H,0,0.904271,1.798314,1.667748\H,0,4.460878,2.747602,-1.6391
 97\H,0,2.139895,3.954598,1.756001\O,0,4.022986,4.680331,0.173244\H,0,4
 .695287,4.73835,-0.517835\O,0,5.097214,-2.751708,1.053752\H,0,5.479651
 ,-3.631493,0.941087\\Version=EM64L-G16RevA.03\State=2-A\HF=-1130.25483
 2\S2=0.767251\S2-1=0.\S2A=0.75027\RMSD=9.522e-07\Dipole=1.7070133,-0.5
 683001,-0.6971862\Quadrupole=28.9288776,-2.0544465,-26.8744311,-3.0963
 8,-7.1454804,-4.4138174\PG=C01 [X(C24H19N1O2)]\\@


 ACCORDING TO HEN3RY, LIFE IS MUCH LIKE A SEWER........
 YOU GET OUT OF IT JUST WHAT YOU PUT INTO IT...........
                         TOM LEHRER - (THE 3 IS SILENT)
 Job cpu time:       0 days  2 hours 59 minutes 57.9 seconds.
 Elapsed time:       0 days  0 hours 22 minutes 33.8 seconds.
 File lengths (MBytes):  RWF=    240 Int=      0 D2E=      0 Chk=     32 Scr=      8
 Normal termination of Gaussian 16 at Sun Jan 17 23:54:20 2021.
