 Entering Gaussian System, Link 0=g16
 Input=mol_bp_ma_half_tune_c3.gjf
 Output=mol_bp_ma_half_tune_c3.log
 Initial command:
 /opt/ohpc/pub/libs/gaussian/g16-A.03/sandybridge/g16/l1.exe "/mnt/gpfs2_4m/scratch/rdu230/ondemand/projects/init_structures/wtuning/mol_bp_ma_half/tuning_mol_bp_ma_half_ocycle0/Gau-53458.inp" -scrdir="/mnt/gpfs2_4m/scratch/rdu230/ondemand/projects/init_structures/wtuning/mol_bp_ma_half/tuning_mol_bp_ma_half_ocycle0/"
 Entering Link 1 = /opt/ohpc/pub/libs/gaussian/g16-A.03/sandybridge/g16/l1.exe PID=     53459.
  
 Copyright (c) 1988,1990,1992,1993,1995,1998,2003,2009,2016,
            Gaussian, Inc.  All Rights Reserved.
  
 This is part of the Gaussian(R) 16 program.  It is based on
 the Gaussian(R) 09 system (copyright 2009, Gaussian, Inc.),
 the Gaussian(R) 03 system (copyright 2003, Gaussian, Inc.),
 the Gaussian(R) 98 system (copyright 1998, Gaussian, Inc.),
 the Gaussian(R) 94 system (copyright 1995, Gaussian, Inc.),
 the Gaussian 92(TM) system (copyright 1992, Gaussian, Inc.),
 the Gaussian 90(TM) system (copyright 1990, Gaussian, Inc.),
 the Gaussian 88(TM) system (copyright 1988, Gaussian, Inc.),
 the Gaussian 86(TM) system (copyright 1986, Carnegie Mellon
 University), and the Gaussian 82(TM) system (copyright 1983,
 Carnegie Mellon University). Gaussian is a federally registered
 trademark of Gaussian, Inc.
  
 This software contains proprietary and confidential information,
 including trade secrets, belonging to Gaussian, Inc.
  
 This software is provided under written license and may be
 used, copied, transmitted, or stored only in accord with that
 written license.
  
 The following legend is applicable only to US Government
 contracts under FAR:
  
                    RESTRICTED RIGHTS LEGEND
  
 Use, reproduction and disclosure by the US Government is
 subject to restrictions as set forth in subparagraphs (a)
 and (c) of the Commercial Computer Software - Restricted
 Rights clause in FAR 52.227-19.
  
 Gaussian, Inc.
 340 Quinnipiac St., Bldg. 40, Wallingford CT 06492
  
  
 ---------------------------------------------------------------
 Warning -- This program may not be used in any manner that
 competes with the business of Gaussian, Inc. or will provide
 assistance to any competitor of Gaussian, Inc.  The licensee
 of this program is prohibited from giving any competitor of
 Gaussian, Inc. access to this program.  By using this program,
 the user acknowledges that Gaussian, Inc. is engaged in the
 business of creating and licensing software in the field of
 computational chemistry and represents and warrants to the
 licensee that it is not a competitor of Gaussian, Inc. and that
 it will not use this program in any manner prohibited above.
 ---------------------------------------------------------------
  

 Cite this work as:
 Gaussian 16, Revision A.03,
 M. J. Frisch, G. W. Trucks, H. B. Schlegel, G. E. Scuseria, 
 M. A. Robb, J. R. Cheeseman, G. Scalmani, V. Barone, 
 G. A. Petersson, H. Nakatsuji, X. Li, M. Caricato, A. V. Marenich, 
 J. Bloino, B. G. Janesko, R. Gomperts, B. Mennucci, H. P. Hratchian, 
 J. V. Ortiz, A. F. Izmaylov, J. L. Sonnenberg, D. Williams-Young, 
 F. Ding, F. Lipparini, F. Egidi, J. Goings, B. Peng, A. Petrone, 
 T. Henderson, D. Ranasinghe, V. G. Zakrzewski, J. Gao, N. Rega, 
 G. Zheng, W. Liang, M. Hada, M. Ehara, K. Toyota, R. Fukuda, 
 J. Hasegawa, M. Ishida, T. Nakajima, Y. Honda, O. Kitao, H. Nakai, 
 T. Vreven, K. Throssell, J. A. Montgomery, Jr., J. E. Peralta, 
 F. Ogliaro, M. J. Bearpark, J. J. Heyd, E. N. Brothers, K. N. Kudin, 
 V. N. Staroverov, T. A. Keith, R. Kobayashi, J. Normand, 
 K. Raghavachari, A. P. Rendell, J. C. Burant, S. S. Iyengar, 
 J. Tomasi, M. Cossi, J. M. Millam, M. Klene, C. Adamo, R. Cammi, 
 J. W. Ochterski, R. L. Martin, K. Morokuma, O. Farkas, 
 J. B. Foresman, and D. J. Fox, Gaussian, Inc., Wallingford CT, 2016.
 
 ******************************************
 Gaussian 16:  EM64L-G16RevA.03 25-Dec-2016
                17-Jan-2021 
 ******************************************
 %mem=30GB
 %nproc=8
 Will use up to    8 processors via shared memory.
 ----------------------------------------------------------------------
 #P LC-wHPBE/TZVP iop(3/107=0168400000, 3/108=0168400000) scf=(conver=6
 ,fermi,ndamp=35,noincfock,novaracc,vshift=500,xqc)
 ----------------------------------------------------------------------
 1/38=1,172=1/1;
 2/12=2,17=6,18=5,40=1/2;
 3/5=19,7=101,11=2,25=1,30=1,74=-71,107=168400000,108=168400000/1,2,3;
 4//1;
 5/5=100002,6=6,8=3,10=500,13=1,18=-1,22=13,38=1,93=35/2,8;
 6/7=2,8=2,9=2,10=2,28=1/1;
 99/5=1,9=1/99;
 Leave Link    1 at Sun Jan 17 19:37:27 2021, MaxMem=  4026531840 cpu:               1.5 elap:               0.2
 (Enter /opt/ohpc/pub/libs/gaussian/g16-A.03/sandybridge/g16/l101.exe)
 -------------
 H19 C24 N1 O2
 -------------
 Symbolic Z-matrix:
 Charge =  1 Multiplicity = 2
 C                    -6.53811  -0.21734   1.25551 
 C                    -7.25866   0.08729   0.10788 
 C                    -5.15139  -0.25905   1.21922 
 C                    -6.5807    0.34869  -1.07578 
 C                    -4.458     0.00066   0.03573 
 C                    -5.194     0.30457  -1.11091 
 H                    -8.34564   0.12102   0.13596 
 H                    -4.59391  -0.47628   2.12835 
 H                    -7.13614   0.58116  -1.98219 
 H                    -4.67151   0.48876  -2.0477 
 C                    -2.97448  -0.04496  -0.00277 
 C                    -2.24032   0.91837  -0.6946 
 C                    -2.26558  -1.0513    0.65461 
 C                    -0.85628   0.87593  -0.73981 
 C                    -0.88157  -1.09437   0.62889 
 C                    -0.15564  -0.13324  -0.0774 
 H                    -2.76203   1.72742  -1.20229 
 H                    -2.80904  -1.82389   1.19526 
 H                    -0.30638   1.63919  -1.28492 
 H                    -0.35263  -1.88507   1.15502 
 H                    -7.05947  -0.41619   2.18974 
 N                     1.25703  -0.16083  -0.10381 
 C                     1.9654   -1.37789  -0.17457 
 C                     3.19     -1.50855   0.47802 
 C                     1.4615   -2.45601  -0.91209 
 C                     3.90305  -2.69689   0.39022 
 C                     2.17862  -3.63831  -0.97461 
 C                     3.40295  -3.77506  -0.33284 
 H                     3.60076  -0.69016   1.06207 
 H                     0.51484  -2.3581   -1.43523 
 H                     1.78281  -4.47165  -1.55144 
 H                     3.96392  -4.70643  -0.39806 
 C                     1.97286   1.06837  -0.04581 
 C                     2.97148   1.35095  -0.97234 
 C                     1.68309   2.0122    0.93926 
 C                     3.67678   2.54399  -0.91012 
 C                     2.36561   3.215     0.99216 
 C                     3.37144   3.4833    0.06927 
 H                     3.20527   0.62157  -1.74439 
 H                     0.90427   1.79831   1.66775 
 H                     4.46088   2.7476   -1.6392 
 H                     2.1399    3.9546    1.756 
 O                     4.02299   4.68033   0.17324 
 H                     4.69529   4.73835  -0.51784 
 O                     5.09721  -2.75171   1.05375 
 H                     5.47965  -3.63149   0.94109 
 
 ITRead=  0  0  0  0  0  0  0  0  0  0  0  0  0  0  0  0  0  0  0  0
 ITRead=  0  0  0  0  0  0  0  0  0  0  0  0  0  0  0  0  0  0  0  0
 ITRead=  0  0  0  0  0  0
 MicOpt= -1 -1 -1 -1 -1 -1 -1 -1 -1 -1 -1 -1 -1 -1 -1 -1 -1 -1 -1 -1
 MicOpt= -1 -1 -1 -1 -1 -1 -1 -1 -1 -1 -1 -1 -1 -1 -1 -1 -1 -1 -1 -1
 MicOpt= -1 -1 -1 -1 -1 -1
 NAtoms=     46 NQM=       46 NQMF=       0 NMMI=      0 NMMIF=      0
                NMic=       0 NMicF=      0.
                    Isotopes and Nuclear Properties:
 (Nuclear quadrupole moments (NQMom) in fm**2, nuclear magnetic moments (NMagM)
  in nuclear magnetons)

  Atom         1           2           3           4           5           6           7           8           9          10
 IAtWgt=          12          12          12          12          12          12           1           1           1           1
 AtmWgt=  12.0000000  12.0000000  12.0000000  12.0000000  12.0000000  12.0000000   1.0078250   1.0078250   1.0078250   1.0078250
 NucSpn=           0           0           0           0           0           0           1           1           1           1
 AtZEff=  -0.0000000  -0.0000000  -0.0000000  -0.0000000  -0.0000000  -0.0000000  -0.0000000  -0.0000000  -0.0000000  -0.0000000
 NQMom=    0.0000000   0.0000000   0.0000000   0.0000000   0.0000000   0.0000000   0.0000000   0.0000000   0.0000000   0.0000000
 NMagM=    0.0000000   0.0000000   0.0000000   0.0000000   0.0000000   0.0000000   2.7928460   2.7928460   2.7928460   2.7928460
 AtZNuc=   6.0000000   6.0000000   6.0000000   6.0000000   6.0000000   6.0000000   1.0000000   1.0000000   1.0000000   1.0000000

  Atom        11          12          13          14          15          16          17          18          19          20
 IAtWgt=          12          12          12          12          12          12           1           1           1           1
 AtmWgt=  12.0000000  12.0000000  12.0000000  12.0000000  12.0000000  12.0000000   1.0078250   1.0078250   1.0078250   1.0078250
 NucSpn=           0           0           0           0           0           0           1           1           1           1
 AtZEff=  -0.0000000  -0.0000000  -0.0000000  -0.0000000  -0.0000000  -0.0000000  -0.0000000  -0.0000000  -0.0000000  -0.0000000
 NQMom=    0.0000000   0.0000000   0.0000000   0.0000000   0.0000000   0.0000000   0.0000000   0.0000000   0.0000000   0.0000000
 NMagM=    0.0000000   0.0000000   0.0000000   0.0000000   0.0000000   0.0000000   2.7928460   2.7928460   2.7928460   2.7928460
 AtZNuc=   6.0000000   6.0000000   6.0000000   6.0000000   6.0000000   6.0000000   1.0000000   1.0000000   1.0000000   1.0000000

  Atom        21          22          23          24          25          26          27          28          29          30
 IAtWgt=           1          14          12          12          12          12          12          12           1           1
 AtmWgt=   1.0078250  14.0030740  12.0000000  12.0000000  12.0000000  12.0000000  12.0000000  12.0000000   1.0078250   1.0078250
 NucSpn=           1           2           0           0           0           0           0           0           1           1
 AtZEff=  -0.0000000  -0.0000000  -0.0000000  -0.0000000  -0.0000000  -0.0000000  -0.0000000  -0.0000000  -0.0000000  -0.0000000
 NQMom=    0.0000000   2.0440000   0.0000000   0.0000000   0.0000000   0.0000000   0.0000000   0.0000000   0.0000000   0.0000000
 NMagM=    2.7928460   0.4037610   0.0000000   0.0000000   0.0000000   0.0000000   0.0000000   0.0000000   2.7928460   2.7928460
 AtZNuc=   1.0000000   7.0000000   6.0000000   6.0000000   6.0000000   6.0000000   6.0000000   6.0000000   1.0000000   1.0000000

  Atom        31          32          33          34          35          36          37          38          39          40
 IAtWgt=           1           1          12          12          12          12          12          12           1           1
 AtmWgt=   1.0078250   1.0078250  12.0000000  12.0000000  12.0000000  12.0000000  12.0000000  12.0000000   1.0078250   1.0078250
 NucSpn=           1           1           0           0           0           0           0           0           1           1
 AtZEff=  -0.0000000  -0.0000000  -0.0000000  -0.0000000  -0.0000000  -0.0000000  -0.0000000  -0.0000000  -0.0000000  -0.0000000
 NQMom=    0.0000000   0.0000000   0.0000000   0.0000000   0.0000000   0.0000000   0.0000000   0.0000000   0.0000000   0.0000000
 NMagM=    2.7928460   2.7928460   0.0000000   0.0000000   0.0000000   0.0000000   0.0000000   0.0000000   2.7928460   2.7928460
 AtZNuc=   1.0000000   1.0000000   6.0000000   6.0000000   6.0000000   6.0000000   6.0000000   6.0000000   1.0000000   1.0000000

  Atom        41          42          43          44          45          46
 IAtWgt=           1           1          16           1          16           1
 AtmWgt=   1.0078250   1.0078250  15.9949146   1.0078250  15.9949146   1.0078250
 NucSpn=           1           1           0           1           0           1
 AtZEff=  -0.0000000  -0.0000000  -0.0000000  -0.0000000  -0.0000000  -0.0000000
 NQMom=    0.0000000   0.0000000   0.0000000   0.0000000   0.0000000   0.0000000
 NMagM=    2.7928460   2.7928460   0.0000000   2.7928460   0.0000000   2.7928460
 AtZNuc=   1.0000000   1.0000000   8.0000000   1.0000000   8.0000000   1.0000000
 Leave Link  101 at Sun Jan 17 19:37:27 2021, MaxMem=  4026531840 cpu:               0.8 elap:               0.1
 (Enter /opt/ohpc/pub/libs/gaussian/g16-A.03/sandybridge/g16/l202.exe)
                          Input orientation:                          
 ---------------------------------------------------------------------
 Center     Atomic      Atomic             Coordinates (Angstroms)
 Number     Number       Type             X           Y           Z
 ---------------------------------------------------------------------
      1          6           0       -6.538108   -0.217341    1.255514
      2          6           0       -7.258661    0.087287    0.107878
      3          6           0       -5.151390   -0.259049    1.219222
      4          6           0       -6.580697    0.348691   -1.075777
      5          6           0       -4.458004    0.000662    0.035726
      6          6           0       -5.193998    0.304569   -1.110911
      7          1           0       -8.345644    0.121015    0.135956
      8          1           0       -4.593910   -0.476283    2.128350
      9          1           0       -7.136138    0.581164   -1.982188
     10          1           0       -4.671509    0.488761   -2.047704
     11          6           0       -2.974479   -0.044963   -0.002770
     12          6           0       -2.240322    0.918366   -0.694597
     13          6           0       -2.265576   -1.051297    0.654611
     14          6           0       -0.856277    0.875925   -0.739808
     15          6           0       -0.881570   -1.094369    0.628888
     16          6           0       -0.155643   -0.133238   -0.077397
     17          1           0       -2.762026    1.727417   -1.202285
     18          1           0       -2.809037   -1.823891    1.195264
     19          1           0       -0.306381    1.639189   -1.284917
     20          1           0       -0.352632   -1.885069    1.155020
     21          1           0       -7.059465   -0.416189    2.189743
     22          7           0        1.257026   -0.160831   -0.103806
     23          6           0        1.965402   -1.377887   -0.174570
     24          6           0        3.190004   -1.508547    0.478017
     25          6           0        1.461496   -2.456008   -0.912094
     26          6           0        3.903051   -2.696891    0.390217
     27          6           0        2.178621   -3.638306   -0.974610
     28          6           0        3.402953   -3.775056   -0.332839
     29          1           0        3.600761   -0.690157    1.062074
     30          1           0        0.514840   -2.358097   -1.435231
     31          1           0        1.782807   -4.471654   -1.551437
     32          1           0        3.963923   -4.706428   -0.398055
     33          6           0        1.972861    1.068372   -0.045814
     34          6           0        2.971482    1.350948   -0.972341
     35          6           0        1.683086    2.012203    0.939258
     36          6           0        3.676780    2.543988   -0.910119
     37          6           0        2.365608    3.214996    0.992156
     38          6           0        3.371443    3.483300    0.069272
     39          1           0        3.205268    0.621566   -1.744392
     40          1           0        0.904271    1.798314    1.667748
     41          1           0        4.460878    2.747602   -1.639197
     42          1           0        2.139895    3.954598    1.756001
     43          8           0        4.022986    4.680331    0.173244
     44          1           0        4.695287    4.738350   -0.517835
     45          8           0        5.097214   -2.751708    1.053752
     46          1           0        5.479651   -3.631493    0.941087
 ---------------------------------------------------------------------
                    Distance matrix (angstroms):
                    1          2          3          4          5
     1  C    0.000000
     2  C    1.388907   0.000000
     3  C    1.387820   2.407410   0.000000
     4  C    2.399401   1.388887   2.771153   0.000000
     5  C    2.421206   2.802925   1.396029   2.421237   0.000000
     6  C    2.771099   2.407383   2.397707   1.387846   1.396003
     7  H    2.152924   1.087869   3.394285   2.152945   3.890794
     8  H    2.146811   3.391285   1.088342   3.859318   2.150586
     9  H    3.387914   2.151117   3.859302   1.088182   3.403140
    10  H    3.859277   3.391323   3.385604   2.146919   2.150466
    11  C    3.783179   4.287651   2.505601   3.783004   1.484726
    12  C    4.854248   5.149600   3.677408   4.394165   2.508718
    13  C    4.394439   5.150358   3.045384   4.855356   2.509258
    14  C    6.120437   6.506231   4.855302   5.758458   3.786816
    15  C    5.758321   6.506539   4.390628   6.121140   3.787059
    16  C    6.520704   7.108855   5.162803   6.519995   4.305930
    17  H    4.907306   4.962487   3.939391   4.061913   2.718583
    18  H    4.060862   4.963282   2.817077   4.909497   2.718936
    19  H    6.981040   7.258269   5.774784   6.409069   4.654551
    20  H    6.407147   7.258094   5.067163   6.982473   4.654340
    21  H    1.088181   2.151123   2.146475   3.387902   3.403109
    22  N    7.912968   8.521930   6.544299   7.914180   5.719014
    23  C    8.700672   9.343974   7.337791   8.765218   6.573033
    24  C    9.844180  10.576308   8.466964  10.066291   7.808032
    25  C    8.585093   9.140560   7.286933   8.518803   6.478740
    26  C   10.766369  11.507179   9.413460  11.015157   8.792593
    27  C    9.625893  10.203632   8.364289   9.624554   7.635945
    28  C   10.677307  11.348213   9.378059  10.827304   8.728490
    29  H   10.151731  10.928950   8.764171  10.455224   8.153178
    30  H    7.846465   8.293878   6.599870   7.602799   5.697073
    31  H    9.757857  10.260868   8.573545   9.664894   7.840180
    32  H   11.540314  12.214011  10.270526  11.713349   9.657832
    33  C    8.705349   9.284780   7.356447   8.645352   6.519408
    34  C    9.892177  10.364340   8.565984   9.605173   7.618184
    35  C    8.524020   9.184298   7.207429   8.667050   6.525002
    36  C   10.800872  11.254136   9.504088  10.491073   8.575421
    37  C    9.546018  10.158300   8.284069   9.619170   7.603182
    38  C   10.644300  11.159458   9.379032  10.496761   8.569138
    39  H   10.229202  10.640027   8.910231   9.812574   7.891773
    40  H    7.721516   8.484944   6.411314   8.102659   5.886344
    41  H   11.753635  12.144017  10.469298  11.313204   9.481429
    42  H    9.641748  10.295886   8.438352   9.852424   7.881956
    43  O   11.691673  12.180964  10.471901  11.522207   9.687384
    44  H   12.405354  12.842148  11.178033  12.113142  10.321572
    45  O   11.909846  12.713073  10.548678  12.268699   9.995705
    46  H   12.497273  13.296171  11.156602  12.859300  10.619285
                    6          7          8          9         10
     6  C    0.000000
     7  H    3.394295   0.000000
     8  H    3.385653   4.289744   0.000000
     9  H    2.146517   2.482172   4.947488   0.000000
    10  H    1.088349   4.289857   4.286812   2.467231   0.000000
    11  C    2.505277   5.375519   2.711137   4.650757   2.710448
    12  C    3.045368   6.212934   3.931088   5.073520   2.815338
    13  C    3.678464   6.213738   2.814904   5.774081   3.932277
    14  C    4.390898   7.578091   4.901499   6.408358   4.051726
    15  C    4.856023   7.578426   4.051158   6.981744   4.902457
    16  C    5.161865   8.196724   4.968019   7.270895   4.966089
    17  H    2.819102   5.962232   4.393771   4.588573   2.427988
    18  H    3.941678   5.963121   2.423318   5.882541   4.397045
    19  H    5.069545   8.303823   5.874395   6.946307   4.578173
    20  H    5.776485   8.303680   4.573892   7.870218   5.877517
    21  H    3.859246   2.482113   2.467051   4.290175   4.947446
    22  N    6.545729   9.609797   6.270206   8.632733   6.272817
    23  C    7.413798  10.424049   7.010057   9.483849   7.144340
    24  C    8.723736  11.655199   8.023620  10.818905   8.495404
    25  C    7.208045  10.194089   7.059147   9.180895   6.897465
    26  C    9.696311  12.571228   8.952684  11.757451   9.466516
    27  C    8.361839  11.230583   8.092832  10.275401   8.068983
    28  C    9.547581  12.386633   8.993841  11.522562   9.290739
    29  H    9.113678  12.009675   8.266518  11.232310   8.915774
    30  H    6.307599   9.333960   6.506893   8.214370   5.947936
    31  H    8.466533  11.248352   8.376535  10.259829   8.155378
    32  H   10.463545  13.233095   9.874885  12.396752  10.211857
    33  C    7.285719  10.363497   7.087696   9.325276   6.963560
    34  C    8.233418  11.437587   8.377841  10.187067   7.766279
    35  C    7.376550  10.237056   6.856178   9.400076   7.184963
    36  C    9.151285  12.308686   9.314432  11.041794   8.672484
    37  C    8.369057  11.181982   7.959357  10.298882   8.135977
    38  C    9.212163  12.190141   9.130441  11.092346   8.839566
    39  H    8.429084  11.713660   8.776707  10.344219   7.883733
    40  H    6.865938   9.524739   5.967909   8.913566   6.827066
    41  H    9.973170  13.193071  10.323615  11.802622   9.416461
    42  H    8.679164  11.281287   8.069416  10.554568   8.536710
    43  O   10.283440  13.182252  10.230543  12.082016   9.904348
    44  H   10.853944  13.849661  10.976515  12.625733  10.398864
    45  O   10.951513  13.776985  10.012502  13.037633  10.749308
    46  H   11.559847  14.348113  10.622692  13.618008  11.355854
                   11         12         13         14         15
    11  C    0.000000
    12  C    1.394853   0.000000
    13  C    1.395493   2.387587   0.000000
    14  C    2.424467   1.385433   2.764907   0.000000
    15  C    2.424977   2.765668   1.384915   2.399172   0.000000
    16  C    2.821205   2.415097   2.414640   1.395739   1.396274
    17  H    2.150652   1.088341   3.378724   2.137944   3.853801
    18  H    2.151102   3.378607   1.088374   3.853152   2.137314
    19  H    3.405733   2.146670   3.852133   1.087245   3.386123
    20  H    3.405958   3.852753   2.145912   3.386314   1.087105
    21  H    4.651025   5.772746   5.073595   6.980786   6.408009
    22  N    4.234297   3.707444   3.711718   2.438321   2.445798
    23  C    5.119436   4.819888   4.323815   3.655275   2.971730
    24  C    6.354061   6.062456   5.477556   4.851927   4.095366
    25  C    5.130096   5.013697   4.280052   4.062454   3.117474
    26  C    7.381570   7.210266   6.389823   6.057489   5.051499
    27  C    6.356967   6.353639   5.394244   5.444632   4.290407
    28  C    7.395551   7.348852   6.366015   6.319675   5.144720
    29  H    6.692081   6.308050   5.891550   5.056143   4.521319
    30  H    4.424690   4.344498   3.715626   3.580848   2.794201
    31  H    6.680249   6.780270   5.740635   6.018314   4.822735
    32  H    8.368209   8.379672   7.298955   7.383345   6.130284
    33  C    5.071246   4.265481   4.790401   2.919364   3.644235
    34  C    6.184100   5.237096   5.987030   3.864124   4.836271
    35  C    5.178056   4.388518   5.005795   3.249424   4.040369
    36  C    7.194803   6.140130   7.119414   4.833223   6.031976
    37  C    6.335120   5.416109   6.305796   4.341831   5.408027
    38  C    7.261168   6.217257   7.258180   5.032557   6.273463
    39  H    6.454981   5.553792   6.203533   4.191663   5.027836
    40  H    4.607928   4.030316   4.381171   3.121964   3.554725
    41  H    8.109306   7.010311   8.058435   5.708258   6.960366
    42  H    6.726558   5.866041   6.758714   4.968333   5.990968
    43  O    8.445348   7.357619   8.522282   6.254149   7.590088
    44  H    9.053766   7.919987   9.129527   6.766643   8.150885
    45  O    8.578749   8.388421   7.567125   7.198655   6.218773
    46  H    9.231813   9.109043   8.168722   7.955263   6.855625
                   16         17         18         19         20
    16  C    0.000000
    17  H    3.394207   0.000000
    18  H    3.393888   4.285118   0.000000
    19  H    2.149959   2.458618   4.940396   0.000000
    20  H    2.150946   4.940862   2.457496   4.286703   0.000000
    21  H    7.272052   5.879531   4.586584   7.867781   6.943333
    22  N    1.413185   4.574376   4.581072   2.660702   2.673694
    23  C    2.461184   5.748712   4.987046   3.936574   2.719986
    24  C    3.659688   6.980082   6.049990   5.024031   3.626344
    25  C    2.950783   5.951756   4.803955   4.476050   2.808913
    26  C    4.823274   8.156826   6.816330   6.271123   4.399411
    27  C    4.305727   7.297452   5.733863   5.841531   3.743849
    28  C    5.098205   8.309038   6.688121   6.631716   4.459842
    29  H    3.964735   7.173357   6.510653   5.118591   4.131074
    30  H    2.691330   5.242475   4.272357   4.083539   2.772303
    31  H    4.975162   7.694537   5.969929   6.463601   4.309922
    32  H    6.163417   9.342352   7.531313   7.699927   5.385606
    33  C    2.444462   4.918427   5.724684   2.656342   3.946230
    34  C    3.575282   5.750454   6.942083   3.305325   5.103646
    35  C    3.002903   4.942300   5.912726   3.007336   4.402207
    36  C    4.748519   6.496951   8.097952   4.101793   6.333838
    37  C    4.325658   5.772443   7.225551   3.848085   5.781524
    38  C    5.053830   6.505338   8.223896   4.331393   6.623214
    39  H    3.826790   6.093060   7.126970   3.684882   5.229576
    40  H    2.810666   4.656592   5.208864   3.195189   3.925558
    41  H    5.661336   7.307668   9.043472   4.907224   7.241489
    42  H    5.034009   6.143340   7.628715   4.537903   6.377741
    43  O    6.379201   7.526498   9.488201   5.488005   7.950748
    44  H    6.888968   8.071289  10.114969   5.933793   8.494093
    45  O    5.977323   9.323085   7.961763   7.344943   5.519252
    46  H    6.710562  10.061670   8.487307   8.137159   6.091904
                   21         22         23         24         25
    21  H    0.000000
    22  N    8.630736   0.000000
    23  C    9.378863   1.409975   0.000000
    24  C   10.448678   2.427192   1.393769   0.000000
    25  C    9.294570   2.441920   1.400074   2.412018   0.000000
    26  C   11.340928   3.698257   2.411066   1.388635   2.777630
    27  C   10.282869   3.701415   2.407285   2.769277   1.384198
    28  C   11.274201   4.209523   2.799647   2.416588   2.417577
    29  H   10.723204   2.670685   2.162559   1.086097   3.404706
    30  H    8.618674   2.674231   2.157361   3.396874   1.086009
    31  H   10.422524   4.577693   3.391238   3.857316   2.138885
    32  H   12.108589   5.298710   3.888858   3.404834   3.404522
    33  C    9.422555   1.423630   2.449656   2.897645   3.665132
    34  C   10.664963   2.445238   3.015821   3.213721   4.095925
    35  C    9.159312   2.447772   3.579529   3.857360   4.841644
    36  C   11.560223   3.717714   4.341768   4.311254   5.468770
    37  C   10.171122   3.718373   4.755627   4.822429   6.050113
    38  C   11.336060   4.216682   5.066315   5.011839   6.315565
    39  H   11.041698   2.664454   2.828325   3.078428   3.633858
    40  H    8.282366   2.664787   3.822092   4.192298   5.006530
    41  H   12.545464   4.591413   5.039067   4.920622   6.050002
    42  H   10.194123   4.601641   5.673883   5.708058   6.976735
    43  O   12.363717   5.582485   6.407545   6.252116   7.659408
    44  H   13.117715   5.999586   6.706598   6.502409   7.897571
    45  O   12.431008   4.774896   3.633787   2.348270   4.143722
    46  H   13.004874   5.564877   4.321270   3.156551   4.578386
                   26         27         28         29         30
    26  C    0.000000
    27  C    2.392211   0.000000
    28  C    1.391168   1.389086   0.000000
    29  H    2.137698   3.855145   3.391388   0.000000
    30  H    3.863550   2.149250   3.400623   4.305980   0.000000
    31  H    3.378644   1.088057   2.143619   4.943189   2.467462
    32  H    2.159471   2.158843   1.089217   4.288857   4.299601
    33  C    4.253582   4.801856   5.058294   2.640057   3.974543
    34  C    4.371428   5.051860   5.183729   2.949737   4.472848
    35  C    5.235003   5.986376   6.169971   3.315918   5.109062
    36  C    5.404524   6.361556   6.351264   3.788802   5.856965
    37  C    6.138116   7.132383   7.189751   4.096427   6.354283
    38  C    6.211310   7.295875   7.269554   4.296043   6.674251
    39  H    4.006946   4.448941   4.621888   3.123025   4.026459
    40  H    5.552624   6.177610   6.427147   3.718923   5.201527
    41  H    5.837139   6.813970   6.735788   4.455879   6.456081
    42  H    7.015439   8.069072   8.105931   4.918273   7.257746
    43  O    7.381386   8.597614   8.493181   5.459893   8.027064
    44  H    7.532264   8.758460   8.612922   5.758714   8.287178
    45  O    1.367227   3.663126   2.416691   2.547437   5.229543
    46  H    1.913794   3.816640   2.440527   3.492323   5.649582
                   31         32         33         34         35
    31  H    0.000000
    32  H    2.478442   0.000000
    33  C    5.744120   6.118555   0.000000
    34  C    5.970845   6.164945   1.391239   0.000000
    35  C    6.946503   7.220154   1.394688   2.398215   0.000000
    36  C    7.295043   7.274146   2.414085   1.387322   2.770885
    37  C    8.117519   8.199772   2.416532   2.775069   1.383960
    38  C    8.272349   8.224419   2.793055   2.406627   2.402405
    39  H    5.291646   5.547585   2.145607   1.087528   3.384211
    40  H    7.102639   7.479350   2.147323   3.382834   1.087658
    41  H    7.700482   7.572976   3.398369   2.147938   3.860747
    42  H    9.059160   9.109358   3.406573   3.861914   2.156071
    43  O    9.578714   9.404314   4.158996   3.674618   3.630539
    44  H    9.714682   9.473810   4.593816   3.827868   4.316057
    45  O    4.553078   2.685707   5.056050   5.045352   5.862101
    46  H    4.537092   2.290462   5.946451   5.897189   6.801854
                   36         37         38         39         40
    36  C    0.000000
    37  C    2.405842   0.000000
    38  C    1.390951   1.391189   0.000000
    39  H    2.148032   3.862590   3.392125   0.000000
    40  H    3.858527   2.144509   3.388398   4.280423   0.000000
    41  H    1.089873   3.395973   2.155687   2.471366   4.948382
    42  H    3.385267   1.086930   2.141001   4.949432   2.486788
    43  O    2.420226   2.358967   1.366822   4.562846   4.501772
    44  H    2.450810   3.166715   1.916353   4.546703   5.271849
    45  O    5.823986   6.562547   6.543914   4.773683   6.217754
    46  H    6.694316   7.521588   7.471605   5.520247   7.137573
                   41         42         43         44         45
    41  H    0.000000
    42  H    4.286160   0.000000
    43  O    2.685542   2.564730   0.000000
    44  H    2.296841   3.509220   0.965891   0.000000
    45  O    6.156241   7.362977   7.560718   7.663707   0.000000
    46  H    6.956193   8.328675   8.473363   8.532172   0.965905
                   46
    46  H    0.000000
 Stoichiometry    C24H19NO2(1+,2)
 Framework group  C1[X(C24H19NO2)]
 Deg. of freedom   132
 Full point group                 C1      NOp   1
 Largest Abelian subgroup         C1      NOp   1
 Largest concise Abelian subgroup C1      NOp   1
                         Standard orientation:                         
 ---------------------------------------------------------------------
 Center     Atomic      Atomic             Coordinates (Angstroms)
 Number     Number       Type             X           Y           Z
 ---------------------------------------------------------------------
      1          6           0       -6.538108   -0.217341    1.255514
      2          6           0       -7.258661    0.087287    0.107878
      3          6           0       -5.151390   -0.259049    1.219222
      4          6           0       -6.580697    0.348691   -1.075777
      5          6           0       -4.458004    0.000662    0.035726
      6          6           0       -5.193998    0.304569   -1.110911
      7          1           0       -8.345644    0.121015    0.135956
      8          1           0       -4.593910   -0.476283    2.128350
      9          1           0       -7.136138    0.581164   -1.982188
     10          1           0       -4.671509    0.488761   -2.047704
     11          6           0       -2.974479   -0.044963   -0.002770
     12          6           0       -2.240322    0.918366   -0.694597
     13          6           0       -2.265576   -1.051297    0.654611
     14          6           0       -0.856277    0.875925   -0.739808
     15          6           0       -0.881570   -1.094369    0.628888
     16          6           0       -0.155643   -0.133238   -0.077397
     17          1           0       -2.762026    1.727417   -1.202285
     18          1           0       -2.809037   -1.823891    1.195264
     19          1           0       -0.306381    1.639189   -1.284917
     20          1           0       -0.352632   -1.885069    1.155020
     21          1           0       -7.059465   -0.416189    2.189743
     22          7           0        1.257026   -0.160831   -0.103806
     23          6           0        1.965402   -1.377887   -0.174570
     24          6           0        3.190004   -1.508547    0.478017
     25          6           0        1.461496   -2.456008   -0.912094
     26          6           0        3.903051   -2.696891    0.390217
     27          6           0        2.178621   -3.638306   -0.974610
     28          6           0        3.402953   -3.775056   -0.332839
     29          1           0        3.600761   -0.690157    1.062074
     30          1           0        0.514840   -2.358097   -1.435231
     31          1           0        1.782807   -4.471654   -1.551437
     32          1           0        3.963923   -4.706428   -0.398055
     33          6           0        1.972861    1.068372   -0.045814
     34          6           0        2.971482    1.350948   -0.972341
     35          6           0        1.683086    2.012203    0.939258
     36          6           0        3.676780    2.543988   -0.910119
     37          6           0        2.365608    3.214996    0.992156
     38          6           0        3.371443    3.483300    0.069272
     39          1           0        3.205268    0.621566   -1.744392
     40          1           0        0.904271    1.798314    1.667748
     41          1           0        4.460878    2.747602   -1.639197
     42          1           0        2.139895    3.954598    1.756001
     43          8           0        4.022986    4.680331    0.173244
     44          1           0        4.695287    4.738350   -0.517835
     45          8           0        5.097214   -2.751708    1.053752
     46          1           0        5.479651   -3.631493    0.941087
 ---------------------------------------------------------------------
 Rotational constants (GHZ):           0.2747871           0.0974680           0.0767524
 Leave Link  202 at Sun Jan 17 19:37:28 2021, MaxMem=  4026531840 cpu:               0.4 elap:               0.1
 (Enter /opt/ohpc/pub/libs/gaussian/g16-A.03/sandybridge/g16/l301.exe)
 Standard basis: TZVP (5D, 7F)
 Ernie: Thresh=  0.10000D-02 Tol=  0.10000D-05 Strict=F.
 There are   654 symmetry adapted cartesian basis functions of A   symmetry.
 There are   627 symmetry adapted basis functions of A   symmetry.
   627 basis functions,  1097 primitive gaussians,   654 cartesian basis functions
    93 alpha electrons       92 beta electrons
       nuclear repulsion energy      2186.7759231597 Hartrees.
 IExCor=33909 DFT=T Ex+Corr=LC-wHPBE ExCW=0 ScaHFX=  1.000000
 ScaDFX=  1.000000  1.000000  1.000000  1.000000 ScalE2=  1.000000  1.000000
 IRadAn=      5 IRanWt=     -1 IRanGd=            0 ICorTp=0 IEmpDi=  4
 HFx  wShort=  0.000000 wLong=  0.168400 cFull=  0.000000 cShort=  0.000000 cLong=  1.000000
 DFx  wShort=  0.000000 wLong=  0.168400 cFull=  0.000000 cShort=  1.000000 cLong=  0.000000
 NAtoms=   46 NActive=   46 NUniq=   46 SFac= 1.00D+00 NAtFMM=   60 NAOKFM=F Big=F
 Integral buffers will be    131072 words long.
 Raffenetti 2 integral format.
 Two-electron integral symmetry is turned on.
 Leave Link  301 at Sun Jan 17 19:37:28 2021, MaxMem=  4026531840 cpu:               0.4 elap:               0.1
 (Enter /opt/ohpc/pub/libs/gaussian/g16-A.03/sandybridge/g16/l302.exe)
 NPDir=0 NMtPBC=     1 NCelOv=     1 NCel=       1 NClECP=     1 NCelD=      1
         NCelK=      1 NCelE2=     1 NClLst=     1 CellRange=     0.0.
 One-electron integrals computed using PRISM.
 One-electron integral symmetry used in STVInt
 NBasis=   627 RedAO= T EigKep=  6.83D-06  NBF=   627
 NBsUse=   627 1.00D-06 EigRej= -1.00D+00 NBFU=   627
 Precomputing XC quadrature grid using
 IXCGrd= 4 IRadAn=           5 IRanWt=          -1 IRanGd=           0 AccXCQ= 0.00D+00.
 Generated NRdTot=       0 NPtTot=           0 NUsed=           0 NTot=          32
 NSgBfM=   623   621   621   623   623 MxSgAt=    46 MxSgA2=    46.
 Leave Link  302 at Sun Jan 17 19:37:29 2021, MaxMem=  4026531840 cpu:              10.1 elap:               1.4
 (Enter /opt/ohpc/pub/libs/gaussian/g16-A.03/sandybridge/g16/l303.exe)
 DipDrv:  MaxL=1.
 Leave Link  303 at Sun Jan 17 19:37:29 2021, MaxMem=  4026531840 cpu:               0.7 elap:               0.1
 (Enter /opt/ohpc/pub/libs/gaussian/g16-A.03/sandybridge/g16/l401.exe)
 ExpMin= 9.52D-02 ExpMax= 2.70D+04 ExpMxC= 9.22D+02 IAcc=3 IRadAn=         5 AccDes= 0.00D+00
 Harris functional with IExCor=33909 and IRadAn=       5 diagonalized for initial guess.
 HarFok:  IExCor=33909 AccDes= 0.00D+00 IRadAn=         5 IDoV= 1 UseB2=F ITyADJ=14
 ICtDFT=  3500011 ScaDFX=  1.000000  1.000000  1.000000  1.000000
 FoFCou: FMM=F IPFlag=           0 FMFlag=      100000 FMFlg1=           0
         NFxFlg=           0 DoJE=T BraDBF=F KetDBF=T FulRan=T
         wScrn=  0.000000 ICntrl=       500 IOpCl=  0 I1Cent=   200000004 NGrid=           0
         NMat0=    1 NMatS0=      1 NMatT0=    0 NMatD0=    1 NMtDS0=    0 NMtDT0=    0
 Petite list used in FoFCou.
 Harris En= -1113.53514042175    
 JPrj=0 DoOrth=F DoCkMO=F.
 Initial guess <Sx>= 0.0000 <Sy>= 0.0000 <Sz>= 0.5000 <S**2>= 0.7500 S= 0.5000
 Leave Link  401 at Sun Jan 17 19:37:36 2021, MaxMem=  4026531840 cpu:              53.6 elap:               6.8
 (Enter /opt/ohpc/pub/libs/gaussian/g16-A.03/sandybridge/g16/l502.exe)
 Integral symmetry usage will be decided dynamically.
 UHF open shell SCF:
 Using DIIS extrapolation, IDIIS=    10.
 NGot=  4026531840 LenX=  4025664800 LenY=  4025236430
 Requested convergence on RMS density matrix=1.00D-06 within  32 cycles.
 Requested convergence on MAX density matrix=1.00D-04.
 Requested convergence on             energy=1.00D-04.
 Virtual orbitals will be shifted by   0.500 hartree.
 No special actions if energy rises.
 Dynamic level shift is on during FON iterations.

 Cycle   1  Pass 1  IDiag  1:
 FoFJK:  IHMeth= 1 ICntrl=       0 DoSepK=T KAlg= 0 I1Cent=           0 FoldK=F
 IRaf=         1 NMat=       1 IRICut=       1 DoRegI=T DoRafI=F ISym2E= 0 IDoP0=0 IntGTp=1.
 FoFCou: FMM=F IPFlag=           0 FMFlag=      100000 FMFlg1=           0
         NFxFlg=           0 DoJE=T BraDBF=F KetDBF=F FulRan=T
         wScrn=  0.000000 ICntrl=       500 IOpCl=  0 I1Cent=           0 NGrid=           0
         NMat0=    1 NMatS0=      1 NMatT0=    0 NMatD0=    1 NMtDS0=    0 NMtDT0=    0
 Symmetry not used in FoFCou.
 E= -1129.79044196136    
 DIIS: error= 2.18D-02 at cycle   1 NSaved=   1.
 NSaved= 1 IEnMin= 1 EnMin= -1129.79044196136     IErMin= 1 ErrMin= 2.18D-02
 ErrMax= 2.18D-02  0.00D+00 EMaxC= 1.00D+00 BMatC= 1.86D+00 BMatP= 1.86D+00
 IDIUse=1 WtCom= 1.00D+00 WtEn= 0.00D+00
 Coeff-Com:  0.100D+01
 Coeff:      0.100D+01
 Gap=     0.374 Goal=   None    Shift=    0.500
 T= 1303. Gap= 0.683 NK=0 IS=   94 IE=  627 IFin=   93
          NO(<0.9)=   0  NV(>0.1)=   0     93.00e < EF      0.00e >EF  Err=0.0D+00
 Gap=     0.090 Goal=   None    Shift=    0.500
 T= 1303. Gap= 0.508 NK=0 IS=   93 IE=  627 IFin=   92
          NO(<0.9)=   0  NV(>0.1)=   0     92.00e < EF      0.00e >EF  Err=0.0D+00
 GapD=    0.090 DampG=0.500 DampE=0.500 DampFc=0.2500 IDamp=-1.
 Damping current iteration by 2.50D-01
 RMSDP=2.58D-03 MaxDP=1.32D-01              OVMax= 7.91D-02

 Cycle   2  Pass 1  IDiag  1:
 E= -1129.95236286311     Delta-E=       -0.161920901751 Rises=F Damp=T
 DIIS: error= 1.45D-02 at cycle   2 NSaved=   2.
 NSaved= 2 IEnMin= 2 EnMin= -1129.95236286311     IErMin= 2 ErrMin= 1.45D-02
 ErrMax= 1.45D-02  0.00D+00 EMaxC= 1.00D+00 BMatC= 8.43D-01 BMatP= 1.86D+00
 IDIUse=1 WtCom= 1.00D+00 WtEn= 0.00D+00
 Coeff-Com: -0.183D+01 0.283D+01
 Coeff:     -0.183D+01 0.283D+01
 Gap=     0.278 Goal=   None    Shift=    0.500
 T= 1233. Gap= 0.752 NK=0 IS=   94 IE=  627 IFin=   93
          NO(<0.9)=   0  NV(>0.1)=   0     93.00e < EF      0.00e >EF  Err=0.0D+00
 Gap=     0.170 Goal=   None    Shift=    0.500
 T= 1233. Gap= 0.641 NK=0 IS=   93 IE=  627 IFin=   92
          NO(<0.9)=   0  NV(>0.1)=   0     92.00e < EF      0.00e >EF  Err=0.0D+00
 GapD=    0.170 DampG=1.000 DampE=0.500 DampFc=0.5000 IDamp=-1.
 Damping current iteration by 5.00D-01
 RMSDP=1.87D-03 MaxDP=1.19D-01 DE=-1.62D-01 OVMax= 2.76D-02

 Cycle   3  Pass 1  IDiag  1:
 E= -1130.11897769450     Delta-E=       -0.166614831390 Rises=F Damp=T
 DIIS: error= 6.58D-03 at cycle   3 NSaved=   3.
 NSaved= 3 IEnMin= 3 EnMin= -1130.11897769450     IErMin= 3 ErrMin= 6.58D-03
 ErrMax= 6.58D-03  0.00D+00 EMaxC= 1.00D+00 BMatC= 1.59D-01 BMatP= 8.43D-01
 IDIUse=1 WtCom= 1.00D+00 WtEn= 0.00D+00
 Coeff-Com:  0.963D-02-0.752D+00 0.174D+01
 Coeff:      0.963D-02-0.752D+00 0.174D+01
 Gap=     0.266 Goal=   None    Shift=    0.500
 T= 1051. Gap= 0.765 NK=4 IS=   94 IE=  106 IFin=   93
          NO(<0.9)=   0  NV(>0.1)=   0     93.00e < EF      0.00e >EF  Err=0.0D+00
 Gap=     0.143 Goal=   None    Shift=    0.500
 T= 1051. Gap= 0.642 NK=4 IS=   93 IE=  105 IFin=   92
          NO(<0.9)=   0  NV(>0.1)=   0     92.00e < EF      0.00e >EF  Err=0.0D+00
 GapD=    0.143 DampG=1.000 DampE=1.000 DampFc=1.0000 IDamp=-1.
 RMSDP=9.56D-04 MaxDP=7.40D-02 DE=-1.67D-01 OVMax= 1.05D-02

 Cycle   4  Pass 1  IDiag  1:
 E= -1130.23325023380     Delta-E=       -0.114272539298 Rises=F Damp=F
 DIIS: error= 1.84D-03 at cycle   4 NSaved=   4.
 NSaved= 4 IEnMin= 4 EnMin= -1130.23325023380     IErMin= 4 ErrMin= 1.84D-03
 ErrMax= 1.84D-03  0.00D+00 EMaxC= 1.00D+00 BMatC= 4.02D-03 BMatP= 1.59D-01
 IDIUse=1 WtCom= 1.00D+00 WtEn= 0.00D+00
 Coeff-Com:  0.164D+00-0.265D+00 0.162D+00 0.939D+00
 Coeff:      0.164D+00-0.265D+00 0.162D+00 0.939D+00
 Gap=     0.265 Goal=   None    Shift=    0.500
 T=  675. Gap= 0.765 NK=4 IS=   94 IE=  106 IFin=   93
          NO(<0.9)=   0  NV(>0.1)=   0     93.00e < EF      0.00e >EF  Err=0.0D+00
 Gap=     0.145 Goal=   None    Shift=    0.500
 T=  675. Gap= 0.645 NK=4 IS=   93 IE=  105 IFin=   92
          NO(<0.9)=   0  NV(>0.1)=   0     92.00e < EF      0.00e >EF  Err=0.0D+00
 GapD=    0.145 DampG=1.000 DampE=1.000 DampFc=1.0000 IDamp=-1.
 RMSDP=1.46D-04 MaxDP=6.69D-03 DE=-1.14D-01 OVMax= 8.33D-03

 Cycle   5  Pass 1  IDiag  1:
 E= -1130.23438406065     Delta-E=       -0.001133826848 Rises=F Damp=F
 DIIS: error= 1.41D-03 at cycle   5 NSaved=   5.
 NSaved= 5 IEnMin= 5 EnMin= -1130.23438406065     IErMin= 5 ErrMin= 1.41D-03
 ErrMax= 1.41D-03  0.00D+00 EMaxC= 1.00D+00 BMatC= 6.93D-04 BMatP= 4.02D-03
 IDIUse=1 WtCom= 1.00D+00 WtEn= 0.00D+00
 Coeff-Com:  0.486D-01-0.117D-01-0.106D+00-0.283D-01 0.110D+01
 Coeff:      0.486D-01-0.117D-01-0.106D+00-0.283D-01 0.110D+01
 Gap=     0.266 Goal=   None    Shift=    0.500
 T=  167. Gap= 0.766 NK=4 IS=   94 IE=  106 IFin=   93
          NO(<0.9)=   0  NV(>0.1)=   0     93.00e < EF      0.00e >EF  Err=0.0D+00
 Gap=     0.148 Goal=   None    Shift=    0.500
 T=  167. Gap= 0.648 NK=4 IS=   93 IE=  105 IFin=   92
          NO(<0.9)=   0  NV(>0.1)=   0     92.00e < EF      0.00e >EF  Err=0.0D+00
 GapD=    0.148 DampG=1.000 DampE=1.000 DampFc=1.0000 IDamp=-1.
 RMSDP=9.82D-05 MaxDP=4.06D-03 DE=-1.13D-03 OVMax= 6.11D-03

 Cycle   6  Pass 1  IDiag  1:
 E= -1130.23478055993     Delta-E=       -0.000396499280 Rises=F Damp=F
 DIIS: error= 1.11D-03 at cycle   6 NSaved=   6.
 NSaved= 6 IEnMin= 6 EnMin= -1130.23478055993     IErMin= 6 ErrMin= 1.11D-03
 ErrMax= 1.11D-03  0.00D+00 EMaxC= 1.00D+00 BMatC= 2.00D-04 BMatP= 6.93D-04
 IDIUse=1 WtCom= 1.00D+00 WtEn= 0.00D+00
 Coeff-Com: -0.398D-01 0.876D-01-0.888D-01-0.282D+00 0.514D-01 0.127D+01
 Coeff:     -0.398D-01 0.876D-01-0.888D-01-0.282D+00 0.514D-01 0.127D+01
 Gap=     0.267 Goal=   None    Shift=    0.500
 Gap=     0.149 Goal=   None    Shift=    0.500
 GapD=    0.149 DampG=1.000 DampE=1.000 DampFc=1.0000 IDamp=-1.
 RMSDP=6.02D-05 MaxDP=3.05D-03 DE=-3.96D-04 OVMax= 5.65D-03

 Cycle   7  Pass 1  IDiag  1:
 E= -1130.23499051954     Delta-E=       -0.000209959615 Rises=F Damp=F
 DIIS: error= 9.96D-04 at cycle   7 NSaved=   7.
 NSaved= 7 IEnMin= 7 EnMin= -1130.23499051954     IErMin= 7 ErrMin= 9.96D-04
 ErrMax= 9.96D-04  0.00D+00 EMaxC= 1.00D+00 BMatC= 9.80D-05 BMatP= 2.00D-04
 IDIUse=1 WtCom= 1.00D+00 WtEn= 0.00D+00
 Coeff-Com: -0.282D-01 0.337D-01-0.224D-02-0.860D-01-0.293D+00-0.147D+00
 Coeff-Com:  0.152D+01
 Coeff:     -0.282D-01 0.337D-01-0.224D-02-0.860D-01-0.293D+00-0.147D+00
 Coeff:      0.152D+01
 Gap=     0.267 Goal=   None    Shift=    0.500
 Gap=     0.150 Goal=   None    Shift=    0.500
 RMSDP=3.57D-05 MaxDP=1.76D-03 DE=-2.10D-04 OVMax= 5.04D-03

 Cycle   8  Pass 1  IDiag  1:
 E= -1130.23512223157     Delta-E=       -0.000131712034 Rises=F Damp=F
 DIIS: error= 8.86D-04 at cycle   8 NSaved=   8.
 NSaved= 8 IEnMin= 8 EnMin= -1130.23512223157     IErMin= 8 ErrMin= 8.86D-04
 ErrMax= 8.86D-04  0.00D+00 EMaxC= 1.00D+00 BMatC= 5.66D-05 BMatP= 9.80D-05
 IDIUse=1 WtCom= 1.00D+00 WtEn= 0.00D+00
 Coeff-Com:  0.888D-02-0.309D-01 0.406D-01 0.973D-01-0.154D+00-0.866D+00
 Coeff-Com:  0.165D+00 0.174D+01
 Coeff:      0.888D-02-0.309D-01 0.406D-01 0.973D-01-0.154D+00-0.866D+00
 Coeff:      0.165D+00 0.174D+01
 Gap=     0.268 Goal=   None    Shift=    0.500
 Gap=     0.151 Goal=   None    Shift=    0.500
 RMSDP=2.49D-05 MaxDP=8.35D-04 DE=-1.32D-04 OVMax= 4.63D-03

 Cycle   9  Pass 1  IDiag  1:
 E= -1130.23521327063     Delta-E=       -0.000091039057 Rises=F Damp=F
 DIIS: error= 7.62D-04 at cycle   9 NSaved=   9.
 NSaved= 9 IEnMin= 9 EnMin= -1130.23521327063     IErMin= 9 ErrMin= 7.62D-04
 ErrMax= 7.62D-04  0.00D+00 EMaxC= 1.00D+00 BMatC= 3.22D-05 BMatP= 5.66D-05
 IDIUse=1 WtCom= 1.00D+00 WtEn= 0.00D+00
 Coeff-Com:  0.122D-01-0.192D-01 0.912D-02 0.416D-01 0.147D+00-0.238D+00
 Coeff-Com: -0.814D+00-0.202D+00 0.206D+01
 Coeff:      0.122D-01-0.192D-01 0.912D-02 0.416D-01 0.147D+00-0.238D+00
 Coeff:     -0.814D+00-0.202D+00 0.206D+01
 Gap=     0.268 Goal=   None    Shift=    0.500
 Gap=     0.152 Goal=   None    Shift=    0.500
 RMSDP=1.72D-05 MaxDP=6.84D-04 DE=-9.10D-05 OVMax= 4.13D-03

 Cycle  10  Pass 1  IDiag  1:
 E= -1130.23527246455     Delta-E=       -0.000059193919 Rises=F Damp=F
 DIIS: error= 6.53D-04 at cycle  10 NSaved=  10.
 NSaved=10 IEnMin=10 EnMin= -1130.23527246455     IErMin=10 ErrMin= 6.53D-04
 ErrMax= 6.53D-04  0.00D+00 EMaxC= 1.00D+00 BMatC= 1.98D-05 BMatP= 3.22D-05
 IDIUse=1 WtCom= 1.00D+00 WtEn= 0.00D+00
 Coeff-Com:  0.128D-03 0.448D-02-0.922D-02-0.304D-01 0.144D+00 0.229D+00
 Coeff-Com: -0.575D+00-0.585D+00-0.182D+00 0.200D+01
 Coeff:      0.128D-03 0.448D-02-0.922D-02-0.304D-01 0.144D+00 0.229D+00
 Coeff:     -0.575D+00-0.585D+00-0.182D+00 0.200D+01
 Gap=     0.268 Goal=   None    Shift=    0.500
 Gap=     0.152 Goal=   None    Shift=    0.500
 RMSDP=1.35D-05 MaxDP=6.21D-04 DE=-5.92D-05 OVMax= 3.51D-03

 Cycle  11  Pass 1  IDiag  1:
 E= -1130.23530964345     Delta-E=       -0.000037178904 Rises=F Damp=F
 DIIS: error= 5.52D-04 at cycle  11 NSaved=  11.
 NSaved=11 IEnMin=11 EnMin= -1130.23530964345     IErMin=11 ErrMin= 5.52D-04
 ErrMax= 5.52D-04  0.00D+00 EMaxC= 1.00D+00 BMatC= 1.28D-05 BMatP= 1.98D-05
 IDIUse=1 WtCom= 1.00D+00 WtEn= 0.00D+00
 Coeff-Com: -0.834D-02 0.123D-01-0.436D-02-0.497D-01-0.425D-01 0.300D+00
 Coeff-Com:  0.241D+00-0.171D-01-0.206D+01 0.239D+00 0.239D+01
 Coeff:     -0.834D-02 0.123D-01-0.436D-02-0.497D-01-0.425D-01 0.300D+00
 Coeff:      0.241D+00-0.171D-01-0.206D+01 0.239D+00 0.239D+01
 Gap=     0.268 Goal=   None    Shift=    0.500
 Gap=     0.152 Goal=   None    Shift=    0.500
 RMSDP=1.19D-05 MaxDP=8.13D-04 DE=-3.72D-05 OVMax= 3.12D-03

 Cycle  12  Pass 1  IDiag  1:
 E= -1130.23533476944     Delta-E=       -0.000025125986 Rises=F Damp=F
 DIIS: error= 4.74D-04 at cycle  12 NSaved=  12.
 NSaved=12 IEnMin=12 EnMin= -1130.23533476944     IErMin=12 ErrMin= 4.74D-04
 ErrMax= 4.74D-04  0.00D+00 EMaxC= 1.00D+00 BMatC= 9.10D-06 BMatP= 1.28D-05
 IDIUse=1 WtCom= 1.00D+00 WtEn= 0.00D+00
 Coeff-Com: -0.286D-02-0.105D-02 0.839D-02-0.238D-01-0.104D+00 0.103D+00
 Coeff-Com:  0.412D+00 0.284D+00-0.134D+01-0.853D+00 0.102D+01 0.149D+01
 Coeff:     -0.286D-02-0.105D-02 0.839D-02-0.238D-01-0.104D+00 0.103D+00
 Coeff:      0.412D+00 0.284D+00-0.134D+01-0.853D+00 0.102D+01 0.149D+01
 Gap=     0.268 Goal=   None    Shift=    0.500
 Gap=     0.152 Goal=   None    Shift=    0.500
 RMSDP=8.19D-06 MaxDP=5.08D-04 DE=-2.51D-05 OVMax= 2.51D-03

 Cycle  13  Pass 1  IDiag  1:
 E= -1130.23535037676     Delta-E=       -0.000015607316 Rises=F Damp=F
 DIIS: error= 3.88D-04 at cycle  13 NSaved=  13.
 NSaved=13 IEnMin=13 EnMin= -1130.23535037676     IErMin=13 ErrMin= 3.88D-04
 ErrMax= 3.88D-04  0.00D+00 EMaxC= 1.00D+00 BMatC= 5.97D-06 BMatP= 9.10D-06
 IDIUse=1 WtCom= 1.00D+00 WtEn= 0.00D+00
 Coeff-Com:  0.537D-02-0.142D-01 0.145D-01 0.172D-01-0.721D-01-0.133D+00
 Coeff-Com:  0.176D+00 0.270D+00 0.457D+00-0.110D+01-0.717D+00-0.440D+00
 Coeff-Com:  0.254D+01
 Coeff:      0.537D-02-0.142D-01 0.145D-01 0.172D-01-0.721D-01-0.133D+00
 Coeff:      0.176D+00 0.270D+00 0.457D+00-0.110D+01-0.717D+00-0.440D+00
 Coeff:      0.254D+01
 Gap=     0.268 Goal=   None    Shift=    0.500
 Gap=     0.152 Goal=   None    Shift=    0.500
 RMSDP=8.03D-06 MaxDP=5.16D-04 DE=-1.56D-05 OVMax= 2.26D-03

 Cycle  14  Pass 1  IDiag  1:
 E= -1130.23536098401     Delta-E=       -0.000010607257 Rises=F Damp=F
 DIIS: error= 3.25D-04 at cycle  14 NSaved=  14.
 NSaved=14 IEnMin=14 EnMin= -1130.23536098401     IErMin=14 ErrMin= 3.25D-04
 ErrMax= 3.25D-04  0.00D+00 EMaxC= 1.00D+00 BMatC= 4.86D-06 BMatP= 5.97D-06
 IDIUse=1 WtCom= 1.00D+00 WtEn= 0.00D+00
 Coeff-Com:  0.407D-02-0.633D-02 0.242D-02 0.151D-01 0.276D-01-0.732D-01
 Coeff-Com: -0.202D+00-0.747D-01 0.100D+01 0.175D+00-0.816D+00-0.277D+01
 Coeff-Com:  0.185D+01 0.187D+01
 Coeff:      0.407D-02-0.633D-02 0.242D-02 0.151D-01 0.276D-01-0.732D-01
 Coeff:     -0.202D+00-0.747D-01 0.100D+01 0.175D+00-0.816D+00-0.277D+01
 Coeff:      0.185D+01 0.187D+01
 Gap=     0.268 Goal=   None    Shift=    0.500
 Gap=     0.152 Goal=   None    Shift=    0.500
 RMSDP=6.44D-06 MaxDP=3.63D-04 DE=-1.06D-05 OVMax= 2.02D-03

 Cycle  15  Pass 1  IDiag  1:
 E= -1130.23536840158     Delta-E=       -0.000007417565 Rises=F Damp=F
 DIIS: error= 2.69D-04 at cycle  15 NSaved=  15.
 NSaved=15 IEnMin=15 EnMin= -1130.23536840158     IErMin=15 ErrMin= 2.69D-04
 ErrMax= 2.69D-04  0.00D+00 EMaxC= 1.00D+00 BMatC= 3.54D-06 BMatP= 4.86D-06
 IDIUse=1 WtCom= 1.00D+00 WtEn= 0.00D+00
 Coeff-Com:  0.124D-02-0.612D-04-0.308D-02 0.193D-02 0.472D-01 0.139D-01
 Coeff-Com: -0.239D+00-0.156D+00 0.549D+00 0.697D+00-0.306D+00-0.266D+01
 Coeff-Com:  0.110D+01 0.500D+00 0.145D+01
 Coeff:      0.124D-02-0.612D-04-0.308D-02 0.193D-02 0.472D-01 0.139D-01
 Coeff:     -0.239D+00-0.156D+00 0.549D+00 0.697D+00-0.306D+00-0.266D+01
 Coeff:      0.110D+01 0.500D+00 0.145D+01
 Gap=     0.268 Goal=   None    Shift=    0.500
 Gap=     0.153 Goal=   None    Shift=    0.500
 RMSDP=4.64D-06 MaxDP=2.63D-04 DE=-7.42D-06 OVMax= 1.67D-03

 Cycle  16  Pass 1  IDiag  1:
 E= -1130.23537344863     Delta-E=       -0.000005047052 Rises=F Damp=F
 DIIS: error= 2.17D-04 at cycle  16 NSaved=  16.
 NSaved=16 IEnMin=16 EnMin= -1130.23537344863     IErMin=16 ErrMin= 2.17D-04
 ErrMax= 2.17D-04  0.00D+00 EMaxC= 1.00D+00 BMatC= 2.38D-06 BMatP= 3.54D-06
 IDIUse=1 WtCom= 1.00D+00 WtEn= 0.00D+00
 Coeff-Com: -0.257D-02 0.430D-02-0.240D-02-0.152D-01-0.345D-02 0.866D-01
 Coeff-Com:  0.426D-01-0.231D-02-0.685D+00 0.401D+00 0.674D+00 0.211D+00
 Coeff-Com: -0.256D+00-0.203D+01-0.754D+00 0.333D+01
 Coeff:     -0.257D-02 0.430D-02-0.240D-02-0.152D-01-0.345D-02 0.866D-01
 Coeff:      0.426D-01-0.231D-02-0.685D+00 0.401D+00 0.674D+00 0.211D+00
 Coeff:     -0.256D+00-0.203D+01-0.754D+00 0.333D+01
 Gap=     0.267 Goal=   None    Shift=    0.500
 Gap=     0.153 Goal=   None    Shift=    0.500
 RMSDP=4.87D-06 MaxDP=2.56D-04 DE=-5.05D-06 OVMax= 1.55D-03

 Cycle  17  Pass 1  IDiag  1:
 E= -1130.23537724529     Delta-E=       -0.000003796662 Rises=F Damp=F
 DIIS: error= 1.77D-04 at cycle  17 NSaved=  17.
 NSaved=17 IEnMin=17 EnMin= -1130.23537724529     IErMin=17 ErrMin= 1.77D-04
 ErrMax= 1.77D-04  0.00D+00 EMaxC= 1.00D+00 BMatC= 1.95D-06 BMatP= 2.38D-06
 IDIUse=1 WtCom= 1.00D+00 WtEn= 0.00D+00
 Coeff-Com: -0.224D-02 0.256D-02 0.246D-03-0.144D-01-0.219D-01 0.618D-01
 Coeff-Com:  0.144D+00 0.490D-01-0.761D+00 0.793D-01 0.653D+00 0.943D+00
 Coeff-Com: -0.276D+00-0.212D+01-0.143D+01 0.284D+01 0.858D+00
 Coeff:     -0.224D-02 0.256D-02 0.246D-03-0.144D-01-0.219D-01 0.618D-01
 Coeff:      0.144D+00 0.490D-01-0.761D+00 0.793D-01 0.653D+00 0.943D+00
 Coeff:     -0.276D+00-0.212D+01-0.143D+01 0.284D+01 0.858D+00
 Gap=     0.267 Goal=   None    Shift=    0.500
 Gap=     0.153 Goal=   None    Shift=    0.500
 RMSDP=3.31D-06 MaxDP=1.91D-04 DE=-3.80D-06 OVMax= 1.28D-03

 Cycle  18  Pass 1  IDiag  1:
 E= -1130.23537987906     Delta-E=       -0.000002633767 Rises=F Damp=F
 DIIS: error= 1.42D-04 at cycle  18 NSaved=  18.
 NSaved=18 IEnMin=18 EnMin= -1130.23537987906     IErMin=18 ErrMin= 1.42D-04
 ErrMax= 1.42D-04  0.00D+00 EMaxC= 1.00D+00 BMatC= 1.32D-06 BMatP= 1.95D-06
 IDIUse=1 WtCom= 1.00D+00 WtEn= 0.00D+00
 Coeff-Com:  0.130D-02-0.356D-02 0.383D-02 0.603D-02-0.195D-01-0.652D-01
 Coeff-Com:  0.112D+00 0.172D-01 0.237D+00-0.488D+00-0.217D+00 0.115D+00
 Coeff-Com:  0.671D+00 0.651D+00-0.954D+00-0.612D+00-0.319D+01 0.474D+01
 Coeff:      0.130D-02-0.356D-02 0.383D-02 0.603D-02-0.195D-01-0.652D-01
 Coeff:      0.112D+00 0.172D-01 0.237D+00-0.488D+00-0.217D+00 0.115D+00
 Coeff:      0.671D+00 0.651D+00-0.954D+00-0.612D+00-0.319D+01 0.474D+01
 Gap=     0.267 Goal=   None    Shift=    0.500
 Gap=     0.153 Goal=   None    Shift=    0.500
 RMSDP=3.83D-06 MaxDP=2.38D-04 DE=-2.63D-06 OVMax= 1.25D-03

 Cycle  19  Pass 1  IDiag  1:
 E= -1130.23538190990     Delta-E=       -0.000002030835 Rises=F Damp=F
 DIIS: error= 1.17D-04 at cycle  19 NSaved=  19.
 NSaved=19 IEnMin=19 EnMin= -1130.23538190990     IErMin=19 ErrMin= 1.17D-04
 ErrMax= 1.17D-04  0.00D+00 EMaxC= 1.00D+00 BMatC= 1.26D-06 BMatP= 1.32D-06
 IDIUse=1 WtCom= 1.00D+00 WtEn= 0.00D+00
 Coeff-Com:  0.125D-02-0.293D-02 0.265D-02 0.558D-02-0.980D-02-0.450D-01
 Coeff-Com:  0.385D-01-0.138D-01 0.332D+00-0.302D+00-0.249D+00-0.545D+00
 Coeff-Com:  0.967D+00 0.807D+00-0.372D+00-0.597D+00-0.370D+01 0.350D+01
 Coeff-Com:  0.117D+01
 Coeff:      0.125D-02-0.293D-02 0.265D-02 0.558D-02-0.980D-02-0.450D-01
 Coeff:      0.385D-01-0.138D-01 0.332D+00-0.302D+00-0.249D+00-0.545D+00
 Coeff:      0.967D+00 0.807D+00-0.372D+00-0.597D+00-0.370D+01 0.350D+01
 Coeff:      0.117D+01
 Gap=     0.267 Goal=   None    Shift=    0.500
 Gap=     0.153 Goal=   None    Shift=    0.500
 RMSDP=2.51D-06 MaxDP=1.40D-04 DE=-2.03D-06 OVMax= 1.02D-03

 Cycle  20  Pass 1  IDiag  1:
 E= -1130.23538326823     Delta-E=       -0.000001358332 Rises=F Damp=F
 DIIS: error= 9.62D-05 at cycle  20 NSaved=  20.
 NSaved=20 IEnMin=20 EnMin= -1130.23538326823     IErMin=20 ErrMin= 9.62D-05
 ErrMax= 9.62D-05  0.00D+00 EMaxC= 1.00D+00 BMatC= 9.29D-07 BMatP= 1.26D-06
 IDIUse=1 WtCom= 1.00D+00 WtEn= 0.00D+00
 Coeff-Com:  0.106D-03-0.129D-03-0.111D-03 0.496D-03-0.602D-03 0.140D-01
 Coeff-Com: -0.385D-01-0.756D-02 0.716D-01 0.113D+00-0.466D-01-0.714D+00
 Coeff-Com:  0.591D+00 0.141D+00 0.149D+00 0.393D+00-0.168D+01 0.762D+00
 Coeff-Com: -0.212D+01 0.338D+01
 Coeff:      0.106D-03-0.129D-03-0.111D-03 0.496D-03-0.602D-03 0.140D-01
 Coeff:     -0.385D-01-0.756D-02 0.716D-01 0.113D+00-0.466D-01-0.714D+00
 Coeff:      0.591D+00 0.141D+00 0.149D+00 0.393D+00-0.168D+01 0.762D+00
 Coeff:     -0.212D+01 0.338D+01
 Gap=     0.267 Goal=   None    Shift=    0.500
 Gap=     0.153 Goal=   None    Shift=    0.500
 RMSDP=2.22D-06 MaxDP=1.00D-04 DE=-1.36D-06 OVMax= 8.88D-04

 Cycle  21  Pass 1  IDiag  1:
 E= -1130.23538419287     Delta-E=       -0.000000924641 Rises=F Damp=F
 DIIS: error= 7.93D-05 at cycle  21 NSaved=  20.
 NSaved=20 IEnMin=20 EnMin= -1130.23538419287     IErMin=20 ErrMin= 7.93D-05
 ErrMax= 7.93D-05  0.00D+00 EMaxC= 1.00D+00 BMatC= 7.15D-07 BMatP= 9.29D-07
 IDIUse=1 WtCom= 1.00D+00 WtEn= 0.00D+00
 Coeff-Com: -0.685D-04 0.579D-04-0.140D-02-0.211D-02 0.129D-01-0.219D-02
 Coeff-Com:  0.231D-01-0.129D+00 0.116D+00 0.694D-01-0.668D-01 0.531D-01
 Coeff-Com: -0.347D+00-0.158D+00 0.891D+00-0.972D-01 0.389D+00-0.362D+01
 Coeff-Com:  0.185D+01 0.201D+01
 Coeff:     -0.685D-04 0.579D-04-0.140D-02-0.211D-02 0.129D-01-0.219D-02
 Coeff:      0.231D-01-0.129D+00 0.116D+00 0.694D-01-0.668D-01 0.531D-01
 Coeff:     -0.347D+00-0.158D+00 0.891D+00-0.972D-01 0.389D+00-0.362D+01
 Coeff:      0.185D+01 0.201D+01
 Gap=     0.267 Goal=   None    Shift=    0.500
 Gap=     0.153 Goal=   None    Shift=    0.500
 RMSDP=1.72D-06 MaxDP=7.96D-05 DE=-9.25D-07 OVMax= 7.45D-04

 Cycle  22  Pass 1  IDiag  1:
 E= -1130.23538480049     Delta-E=       -0.000000607623 Rises=F Damp=F
 DIIS: error= 6.44D-05 at cycle  22 NSaved=  20.
 NSaved=20 IEnMin=20 EnMin= -1130.23538480049     IErMin=20 ErrMin= 6.44D-05
 ErrMax= 6.44D-05  0.00D+00 EMaxC= 1.00D+00 BMatC= 5.18D-07 BMatP= 7.15D-07
 IDIUse=1 WtCom= 1.00D+00 WtEn= 0.00D+00
 Coeff-Com: -0.119D-03-0.262D-02 0.360D-04-0.176D-02 0.368D-01-0.536D-02
 Coeff-Com: -0.967D-01-0.184D-01 0.930D-01 0.182D+00-0.391D-01-0.214D+00
 Coeff-Com: -0.407D+00 0.553D+00-0.278D+00 0.118D+01-0.160D+01-0.513D+00
 Coeff-Com: -0.427D+00 0.256D+01
 Coeff:     -0.119D-03-0.262D-02 0.360D-04-0.176D-02 0.368D-01-0.536D-02
 Coeff:     -0.967D-01-0.184D-01 0.930D-01 0.182D+00-0.391D-01-0.214D+00
 Coeff:     -0.407D+00 0.553D+00-0.278D+00 0.118D+01-0.160D+01-0.513D+00
 Coeff:     -0.427D+00 0.256D+01
 Gap=     0.267 Goal=   None    Shift=    0.500
 Gap=     0.153 Goal=   None    Shift=    0.500
 RMSDP=1.28D-06 MaxDP=5.44D-05 DE=-6.08D-07 OVMax= 5.99D-04

 Cycle  23  Pass 1  IDiag  1:
 E= -1130.23538518532     Delta-E=       -0.000000384829 Rises=F Damp=F
 DIIS: error= 5.16D-05 at cycle  23 NSaved=  20.
 NSaved=20 IEnMin=20 EnMin= -1130.23538518532     IErMin=20 ErrMin= 5.16D-05
 ErrMax= 5.16D-05  0.00D+00 EMaxC= 1.00D+00 BMatC= 3.50D-07 BMatP= 5.18D-07
 IDIUse=1 WtCom= 1.00D+00 WtEn= 0.00D+00
 Coeff-Com: -0.544D-04-0.802D-03-0.108D-01 0.316D-01-0.224D-01 0.315D-01
 Coeff-Com: -0.961D-01 0.229D-01-0.173D-01 0.194D+00 0.671D-01-0.251D+00
 Coeff-Com:  0.209D-01-0.887D+00 0.128D+01 0.626D+00-0.112D+01-0.179D+01
 Coeff-Com:  0.821D+00 0.210D+01
 Coeff:     -0.544D-04-0.802D-03-0.108D-01 0.316D-01-0.224D-01 0.315D-01
 Coeff:     -0.961D-01 0.229D-01-0.173D-01 0.194D+00 0.671D-01-0.251D+00
 Coeff:      0.209D-01-0.887D+00 0.128D+01 0.626D+00-0.112D+01-0.179D+01
 Coeff:      0.821D+00 0.210D+01
 Gap=     0.267 Goal=   None    Shift=    0.500
 Gap=     0.153 Goal=   None    Shift=    0.500
 RMSDP=9.68D-07 MaxDP=3.26D-05 DE=-3.85D-07 OVMax= 4.81D-04

 SCF Done:  E(ULC-wHPBE) =  -1130.23538519     A.U. after   23 cycles
            NFock= 23  Conv=0.97D-06     -V/T= 2.0044
 <Sx>= 0.0000 <Sy>= 0.0000 <Sz>= 0.5000 <S**2>= 0.7651 S= 0.5075
 <L.S>= 0.000000000000E+00
 KE= 1.125293918861D+03 PE=-6.981857368726D+03 EE= 2.539552141520D+03
 Annihilation of the first spin contaminant:
 S**2 before annihilation     0.7651,   after     0.7502
 Leave Link  502 at Sun Jan 17 19:59:58 2021, MaxMem=  4026531840 cpu:           10708.7 elap:            1342.1
 (Enter /opt/ohpc/pub/libs/gaussian/g16-A.03/sandybridge/g16/l508.exe)
 QCSCF skips out because SCF is already converged.
 Leave Link  508 at Sun Jan 17 19:59:58 2021, MaxMem=  4026531840 cpu:               0.2 elap:               0.0
 (Enter /opt/ohpc/pub/libs/gaussian/g16-A.03/sandybridge/g16/l601.exe)
 Copying SCF densities to generalized density rwf, IOpCl= 1 IROHF=0.

 **********************************************************************

            Population analysis using the SCF density.

 **********************************************************************

 Orbital symmetries:
 Alpha Orbitals:
       Occupied  (A) (A) (A) (A) (A) (A) (A) (A) (A) (A) (A) (A)
                 (A) (A) (A) (A) (A) (A) (A) (A) (A) (A) (A) (A)
                 (A) (A) (A) (A) (A) (A) (A) (A) (A) (A) (A) (A)
                 (A) (A) (A) (A) (A) (A) (A) (A) (A) (A) (A) (A)
                 (A) (A) (A) (A) (A) (A) (A) (A) (A) (A) (A) (A)
                 (A) (A) (A) (A) (A) (A) (A) (A) (A) (A) (A) (A)
                 (A) (A) (A) (A) (A) (A) (A) (A) (A) (A) (A) (A)
                 (A) (A) (A) (A) (A) (A) (A) (A) (A)
       Virtual   (A) (A) (A) (A) (A) (A) (A) (A) (A) (A) (A) (A)
                 (A) (A) (A) (A) (A) (A) (A) (A) (A) (A) (A) (A)
                 (A) (A) (A) (A) (A) (A) (A) (A) (A) (A) (A) (A)
                 (A) (A) (A) (A) (A) (A) (A) (A) (A) (A) (A) (A)
                 (A) (A) (A) (A) (A) (A) (A) (A) (A) (A) (A) (A)
                 (A) (A) (A) (A) (A) (A) (A) (A) (A) (A) (A) (A)
                 (A) (A) (A) (A) (A) (A) (A) (A) (A) (A) (A) (A)
                 (A) (A) (A) (A) (A) (A) (A) (A) (A) (A) (A) (A)
                 (A) (A) (A) (A) (A) (A) (A) (A) (A) (A) (A) (A)
                 (A) (A) (A) (A) (A) (A) (A) (A) (A) (A) (A) (A)
                 (A) (A) (A) (A) (A) (A) (A) (A) (A) (A) (A) (A)
                 (A) (A) (A) (A) (A) (A) (A) (A) (A) (A) (A) (A)
                 (A) (A) (A) (A) (A) (A) (A) (A) (A) (A) (A) (A)
                 (A) (A) (A) (A) (A) (A) (A) (A) (A) (A) (A) (A)
                 (A) (A) (A) (A) (A) (A) (A) (A) (A) (A) (A) (A)
                 (A) (A) (A) (A) (A) (A) (A) (A) (A) (A) (A) (A)
                 (A) (A) (A) (A) (A) (A) (A) (A) (A) (A) (A) (A)
                 (A) (A) (A) (A) (A) (A) (A) (A) (A) (A) (A) (A)
                 (A) (A) (A) (A) (A) (A) (A) (A) (A) (A) (A) (A)
                 (A) (A) (A) (A) (A) (A) (A) (A) (A) (A) (A) (A)
                 (A) (A) (A) (A) (A) (A) (A) (A) (A) (A) (A) (A)
                 (A) (A) (A) (A) (A) (A) (A) (A) (A) (A) (A) (A)
                 (A) (A) (A) (A) (A) (A) (A) (A) (A) (A) (A) (A)
                 (A) (A) (A) (A) (A) (A) (A) (A) (A) (A) (A) (A)
                 (A) (A) (A) (A) (A) (A) (A) (A) (A) (A) (A) (A)
                 (A) (A) (A) (A) (A) (A) (A) (A) (A) (A) (A) (A)
                 (A) (A) (A) (A) (A) (A) (A) (A) (A) (A) (A) (A)
                 (A) (A) (A) (A) (A) (A) (A) (A) (A) (A) (A) (A)
                 (A) (A) (A) (A) (A) (A) (A) (A) (A) (A) (A) (A)
                 (A) (A) (A) (A) (A) (A) (A) (A) (A) (A) (A) (A)
                 (A) (A) (A) (A) (A) (A) (A) (A) (A) (A) (A) (A)
                 (A) (A) (A) (A) (A) (A) (A) (A) (A) (A) (A) (A)
                 (A) (A) (A) (A) (A) (A) (A) (A) (A) (A) (A) (A)
                 (A) (A) (A) (A) (A) (A) (A) (A) (A) (A) (A) (A)
                 (A) (A) (A) (A) (A) (A) (A) (A) (A) (A) (A) (A)
                 (A) (A) (A) (A) (A) (A) (A) (A) (A) (A) (A) (A)
                 (A) (A) (A) (A) (A) (A) (A) (A) (A) (A) (A) (A)
                 (A) (A) (A) (A) (A) (A) (A) (A) (A) (A) (A) (A)
                 (A) (A) (A) (A) (A) (A) (A) (A) (A) (A) (A) (A)
                 (A) (A) (A) (A) (A) (A) (A) (A) (A) (A) (A) (A)
                 (A) (A) (A) (A) (A) (A) (A) (A) (A) (A) (A) (A)
                 (A) (A) (A) (A) (A) (A) (A) (A) (A) (A) (A) (A)
                 (A) (A) (A) (A) (A) (A) (A) (A) (A) (A) (A) (A)
                 (A) (A) (A) (A) (A) (A) (A) (A) (A) (A) (A) (A)
                 (A) (A) (A) (A) (A) (A)
 Beta  Orbitals:
       Occupied  (A) (A) (A) (A) (A) (A) (A) (A) (A) (A) (A) (A)
                 (A) (A) (A) (A) (A) (A) (A) (A) (A) (A) (A) (A)
                 (A) (A) (A) (A) (A) (A) (A) (A) (A) (A) (A) (A)
                 (A) (A) (A) (A) (A) (A) (A) (A) (A) (A) (A) (A)
                 (A) (A) (A) (A) (A) (A) (A) (A) (A) (A) (A) (A)
                 (A) (A) (A) (A) (A) (A) (A) (A) (A) (A) (A) (A)
                 (A) (A) (A) (A) (A) (A) (A) (A) (A) (A) (A) (A)
                 (A) (A) (A) (A) (A) (A) (A) (A)
       Virtual   (A) (A) (A) (A) (A) (A) (A) (A) (A) (A) (A) (A)
                 (A) (A) (A) (A) (A) (A) (A) (A) (A) (A) (A) (A)
                 (A) (A) (A) (A) (A) (A) (A) (A) (A) (A) (A) (A)
                 (A) (A) (A) (A) (A) (A) (A) (A) (A) (A) (A) (A)
                 (A) (A) (A) (A) (A) (A) (A) (A) (A) (A) (A) (A)
                 (A) (A) (A) (A) (A) (A) (A) (A) (A) (A) (A) (A)
                 (A) (A) (A) (A) (A) (A) (A) (A) (A) (A) (A) (A)
                 (A) (A) (A) (A) (A) (A) (A) (A) (A) (A) (A) (A)
                 (A) (A) (A) (A) (A) (A) (A) (A) (A) (A) (A) (A)
                 (A) (A) (A) (A) (A) (A) (A) (A) (A) (A) (A) (A)
                 (A) (A) (A) (A) (A) (A) (A) (A) (A) (A) (A) (A)
                 (A) (A) (A) (A) (A) (A) (A) (A) (A) (A) (A) (A)
                 (A) (A) (A) (A) (A) (A) (A) (A) (A) (A) (A) (A)
                 (A) (A) (A) (A) (A) (A) (A) (A) (A) (A) (A) (A)
                 (A) (A) (A) (A) (A) (A) (A) (A) (A) (A) (A) (A)
                 (A) (A) (A) (A) (A) (A) (A) (A) (A) (A) (A) (A)
                 (A) (A) (A) (A) (A) (A) (A) (A) (A) (A) (A) (A)
                 (A) (A) (A) (A) (A) (A) (A) (A) (A) (A) (A) (A)
                 (A) (A) (A) (A) (A) (A) (A) (A) (A) (A) (A) (A)
                 (A) (A) (A) (A) (A) (A) (A) (A) (A) (A) (A) (A)
                 (A) (A) (A) (A) (A) (A) (A) (A) (A) (A) (A) (A)
                 (A) (A) (A) (A) (A) (A) (A) (A) (A) (A) (A) (A)
                 (A) (A) (A) (A) (A) (A) (A) (A) (A) (A) (A) (A)
                 (A) (A) (A) (A) (A) (A) (A) (A) (A) (A) (A) (A)
                 (A) (A) (A) (A) (A) (A) (A) (A) (A) (A) (A) (A)
                 (A) (A) (A) (A) (A) (A) (A) (A) (A) (A) (A) (A)
                 (A) (A) (A) (A) (A) (A) (A) (A) (A) (A) (A) (A)
                 (A) (A) (A) (A) (A) (A) (A) (A) (A) (A) (A) (A)
                 (A) (A) (A) (A) (A) (A) (A) (A) (A) (A) (A) (A)
                 (A) (A) (A) (A) (A) (A) (A) (A) (A) (A) (A) (A)
                 (A) (A) (A) (A) (A) (A) (A) (A) (A) (A) (A) (A)
                 (A) (A) (A) (A) (A) (A) (A) (A) (A) (A) (A) (A)
                 (A) (A) (A) (A) (A) (A) (A) (A) (A) (A) (A) (A)
                 (A) (A) (A) (A) (A) (A) (A) (A) (A) (A) (A) (A)
                 (A) (A) (A) (A) (A) (A) (A) (A) (A) (A) (A) (A)
                 (A) (A) (A) (A) (A) (A) (A) (A) (A) (A) (A) (A)
                 (A) (A) (A) (A) (A) (A) (A) (A) (A) (A) (A) (A)
                 (A) (A) (A) (A) (A) (A) (A) (A) (A) (A) (A) (A)
                 (A) (A) (A) (A) (A) (A) (A) (A) (A) (A) (A) (A)
                 (A) (A) (A) (A) (A) (A) (A) (A) (A) (A) (A) (A)
                 (A) (A) (A) (A) (A) (A) (A) (A) (A) (A) (A) (A)
                 (A) (A) (A) (A) (A) (A) (A) (A) (A) (A) (A) (A)
                 (A) (A) (A) (A) (A) (A) (A) (A) (A) (A) (A) (A)
                 (A) (A) (A) (A) (A) (A) (A) (A) (A) (A) (A) (A)
                 (A) (A) (A) (A) (A) (A) (A)
 The electronic state is 2-A.
 Alpha  occ. eigenvalues --  -19.00196 -18.99168 -14.30928 -10.17824 -10.17056
 Alpha  occ. eigenvalues --  -10.16785 -10.16621 -10.16172 -10.12654 -10.12418
 Alpha  occ. eigenvalues --  -10.12397 -10.12055 -10.12050 -10.11661 -10.11510
 Alpha  occ. eigenvalues --  -10.11482 -10.11336 -10.11323 -10.11003 -10.10882
 Alpha  occ. eigenvalues --  -10.10880 -10.09264 -10.07747 -10.07744 -10.07117
 Alpha  occ. eigenvalues --  -10.07074 -10.07056  -1.19726  -1.18909  -1.15549
 Alpha  occ. eigenvalues --   -1.02440  -1.02114  -1.00337  -0.97714  -0.93418
 Alpha  occ. eigenvalues --   -0.92677  -0.91498  -0.90763  -0.90531  -0.88796
 Alpha  occ. eigenvalues --   -0.86647  -0.85862  -0.81148  -0.80956  -0.79141
 Alpha  occ. eigenvalues --   -0.77928  -0.77109  -0.76016  -0.73406  -0.72863
 Alpha  occ. eigenvalues --   -0.72509  -0.71921  -0.71526  -0.67484  -0.67086
 Alpha  occ. eigenvalues --   -0.66490  -0.66226  -0.63949  -0.63790  -0.62704
 Alpha  occ. eigenvalues --   -0.61845  -0.60523  -0.60371  -0.60030  -0.59601
 Alpha  occ. eigenvalues --   -0.59261  -0.58936  -0.58691  -0.58372  -0.57881
 Alpha  occ. eigenvalues --   -0.57433  -0.56237  -0.55413  -0.55121  -0.54991
 Alpha  occ. eigenvalues --   -0.53919  -0.53682  -0.52714  -0.52249  -0.51940
 Alpha  occ. eigenvalues --   -0.51635  -0.51352  -0.49490  -0.48367  -0.47729
 Alpha  occ. eigenvalues --   -0.45966  -0.45096  -0.44412  -0.43649  -0.41167
 Alpha  occ. eigenvalues --   -0.40475  -0.40423  -0.38220
 Alpha virt. eigenvalues --   -0.11481  -0.10908  -0.10374  -0.09000  -0.08032
 Alpha virt. eigenvalues --   -0.06918  -0.05590  -0.04009  -0.02130  -0.01810
 Alpha virt. eigenvalues --   -0.01174  -0.00015   0.00492   0.01755   0.02014
 Alpha virt. eigenvalues --    0.02453   0.02888   0.03230   0.04424   0.04555
 Alpha virt. eigenvalues --    0.04997   0.05220   0.05501   0.06058   0.06737
 Alpha virt. eigenvalues --    0.07164   0.07408   0.07806   0.08171   0.09365
 Alpha virt. eigenvalues --    0.09511   0.09862   0.10315   0.10505   0.10639
 Alpha virt. eigenvalues --    0.11214   0.12534   0.13037   0.13432   0.13659
 Alpha virt. eigenvalues --    0.13893   0.14810   0.14913   0.15044   0.15530
 Alpha virt. eigenvalues --    0.16147   0.16294   0.16555   0.16947   0.17492
 Alpha virt. eigenvalues --    0.17573   0.17922   0.18211   0.18617   0.19213
 Alpha virt. eigenvalues --    0.19655   0.19777   0.19863   0.20897   0.20952
 Alpha virt. eigenvalues --    0.21163   0.21427   0.21748   0.21953   0.22303
 Alpha virt. eigenvalues --    0.22506   0.22964   0.23481   0.23673   0.24360
 Alpha virt. eigenvalues --    0.24590   0.25165   0.25559   0.25908   0.26208
 Alpha virt. eigenvalues --    0.26675   0.27034   0.27603   0.27981   0.28626
 Alpha virt. eigenvalues --    0.28994   0.29072   0.29433   0.29815   0.29861
 Alpha virt. eigenvalues --    0.30053   0.30789   0.31197   0.31415   0.31715
 Alpha virt. eigenvalues --    0.31962   0.32665   0.32866   0.32913   0.33251
 Alpha virt. eigenvalues --    0.33419   0.34023   0.34504   0.34610   0.35688
 Alpha virt. eigenvalues --    0.35855   0.36015   0.36436   0.36863   0.36983
 Alpha virt. eigenvalues --    0.37357   0.37879   0.37961   0.38441   0.38681
 Alpha virt. eigenvalues --    0.39057   0.39381   0.40062   0.40133   0.40563
 Alpha virt. eigenvalues --    0.40650   0.41200   0.41219   0.41498   0.42117
 Alpha virt. eigenvalues --    0.42400   0.42807   0.43683   0.44014   0.44574
 Alpha virt. eigenvalues --    0.44679   0.45177   0.45472   0.45801   0.46523
 Alpha virt. eigenvalues --    0.46809   0.47072   0.47916   0.48043   0.48268
 Alpha virt. eigenvalues --    0.48639   0.49297   0.50404   0.50636   0.51017
 Alpha virt. eigenvalues --    0.51234   0.52039   0.52583   0.52913   0.53892
 Alpha virt. eigenvalues --    0.55506   0.55760   0.56758   0.57376   0.57915
 Alpha virt. eigenvalues --    0.58508   0.58724   0.60367   0.60650   0.60789
 Alpha virt. eigenvalues --    0.61289   0.62084   0.62233   0.62687   0.62826
 Alpha virt. eigenvalues --    0.63873   0.64294   0.64662   0.65106   0.65624
 Alpha virt. eigenvalues --    0.65880   0.66180   0.67795   0.68252   0.68493
 Alpha virt. eigenvalues --    0.69160   0.70970   0.71749   0.72543   0.73058
 Alpha virt. eigenvalues --    0.74097   0.75181   0.76234   0.76775   0.77939
 Alpha virt. eigenvalues --    0.78450   0.79486   0.80616   0.83174   0.84312
 Alpha virt. eigenvalues --    0.85628   0.85945   0.87305   1.03404   1.05940
 Alpha virt. eigenvalues --    1.07144   1.12033   1.12173   1.13209   1.13714
 Alpha virt. eigenvalues --    1.14401   1.14810   1.15270   1.15284   1.15540
 Alpha virt. eigenvalues --    1.16232   1.17176   1.17544   1.18024   1.18333
 Alpha virt. eigenvalues --    1.19159   1.19479   1.19881   1.20353   1.20711
 Alpha virt. eigenvalues --    1.21305   1.21763   1.21950   1.22512   1.22721
 Alpha virt. eigenvalues --    1.23228   1.23520   1.24050   1.24475   1.25020
 Alpha virt. eigenvalues --    1.25549   1.25924   1.26187   1.26422   1.27307
 Alpha virt. eigenvalues --    1.28007   1.28956   1.29576   1.31568   1.31614
 Alpha virt. eigenvalues --    1.32132   1.32352   1.32946   1.33100   1.33620
 Alpha virt. eigenvalues --    1.34228   1.34601   1.34880   1.35091   1.35528
 Alpha virt. eigenvalues --    1.35701   1.35939   1.36417   1.36687   1.36977
 Alpha virt. eigenvalues --    1.37314   1.38173   1.38378   1.38672   1.38722
 Alpha virt. eigenvalues --    1.39496   1.39644   1.40358   1.40728   1.40890
 Alpha virt. eigenvalues --    1.41805   1.42052   1.42589   1.42886   1.43143
 Alpha virt. eigenvalues --    1.43337   1.43472   1.43686   1.43916   1.44167
 Alpha virt. eigenvalues --    1.45063   1.45202   1.45591   1.45857   1.46387
 Alpha virt. eigenvalues --    1.46677   1.47017   1.47261   1.47898   1.48095
 Alpha virt. eigenvalues --    1.49206   1.49307   1.50040   1.50471   1.51139
 Alpha virt. eigenvalues --    1.52122   1.52996   1.54139   1.55130   1.56418
 Alpha virt. eigenvalues --    1.56894   1.57883   1.58292   1.59423   1.60152
 Alpha virt. eigenvalues --    1.61777   1.63613   1.64869   1.65426   1.65952
 Alpha virt. eigenvalues --    1.66638   1.67153   1.67746   1.68566   1.69178
 Alpha virt. eigenvalues --    1.69494   1.69718   1.70231   1.70563   1.70954
 Alpha virt. eigenvalues --    1.71556   1.71828   1.72098   1.73067   1.73752
 Alpha virt. eigenvalues --    1.73866   1.74658   1.76141   1.76391   1.77491
 Alpha virt. eigenvalues --    1.78419   1.79024   1.79223   1.80172   1.80736
 Alpha virt. eigenvalues --    1.81084   1.81414   1.81551   1.81811   1.82119
 Alpha virt. eigenvalues --    1.82515   1.82806   1.82901   1.83348   1.84184
 Alpha virt. eigenvalues --    1.84742   1.85281   1.86390   1.86491   1.86709
 Alpha virt. eigenvalues --    1.88039   1.88201   1.89188   1.89549   1.90786
 Alpha virt. eigenvalues --    1.91221   1.91772   1.92241   1.92341   1.92844
 Alpha virt. eigenvalues --    1.94616   1.95083   1.95244   1.96405   1.97738
 Alpha virt. eigenvalues --    1.99546   2.01315   2.02697   2.02945   2.05878
 Alpha virt. eigenvalues --    2.07051   2.08073   2.09924   2.10525   2.11425
 Alpha virt. eigenvalues --    2.12226   2.13399   2.14280   2.15522   2.16663
 Alpha virt. eigenvalues --    2.17801   2.18212   2.18759   2.19432   2.19622
 Alpha virt. eigenvalues --    2.20053   2.20420   2.21039   2.21071   2.21528
 Alpha virt. eigenvalues --    2.21687   2.22689   2.22953   2.23416   2.24146
 Alpha virt. eigenvalues --    2.24775   2.25345   2.25766   2.26323   2.26768
 Alpha virt. eigenvalues --    2.27125   2.27226   2.27371   2.28083   2.28208
 Alpha virt. eigenvalues --    2.29510   2.29727   2.30312   2.33033   2.34186
 Alpha virt. eigenvalues --    2.35399   2.36854   2.38130   2.40803   2.41830
 Alpha virt. eigenvalues --    2.42526   2.42898   2.43756   2.45090   2.45396
 Alpha virt. eigenvalues --    2.46325   2.46376   2.47265   2.49073   2.49391
 Alpha virt. eigenvalues --    2.49501   2.49846   2.50665   2.52705   2.52892
 Alpha virt. eigenvalues --    2.53391   2.53697   2.54344   2.55008   2.56148
 Alpha virt. eigenvalues --    2.57505   2.57643   2.58292   2.59411   2.60500
 Alpha virt. eigenvalues --    2.61239   2.61991   2.62897   2.63443   2.63644
 Alpha virt. eigenvalues --    2.65033   2.65785   2.66590   2.68863   2.70692
 Alpha virt. eigenvalues --    2.70753   2.72988   2.73658   2.74194   2.74776
 Alpha virt. eigenvalues --    2.76093   2.77164   2.80921   2.81813   2.82009
 Alpha virt. eigenvalues --    2.83025   2.84637   2.86180   2.87345   2.88156
 Alpha virt. eigenvalues --    2.88669   2.89894   2.90848   2.91744   2.92168
 Alpha virt. eigenvalues --    2.93063   2.93756   2.94558   2.96301   2.96416
 Alpha virt. eigenvalues --    2.96671   2.97757   2.98577   2.99811   3.01330
 Alpha virt. eigenvalues --    3.01657   3.02791   3.04330   3.04622   3.05551
 Alpha virt. eigenvalues --    3.06323   3.07112   3.08307   3.09353   3.10101
 Alpha virt. eigenvalues --    3.10612   3.11654   3.12144   3.12804   3.14432
 Alpha virt. eigenvalues --    3.15572   3.16845   3.18093   3.19177   3.22076
 Alpha virt. eigenvalues --    3.22771   3.24451   3.25944   3.27660   3.28607
 Alpha virt. eigenvalues --    3.28884   3.32591   3.32777   3.41709   3.43166
 Alpha virt. eigenvalues --    3.44211   3.44958   3.45534   3.46773   3.58944
 Alpha virt. eigenvalues --    3.69570   3.70134   3.77743   3.94459   3.95312
 Alpha virt. eigenvalues --    4.19859   4.20762  20.97012  21.10082  21.12555
 Alpha virt. eigenvalues --   21.21016  21.50941  21.56130  21.58560  21.60379
 Alpha virt. eigenvalues --   21.61758  21.62654  21.68682  21.73488  21.77515
 Alpha virt. eigenvalues --   21.82452  21.83490  21.83721  21.85738  21.87443
 Alpha virt. eigenvalues --   21.89086  21.90653  21.95249  21.98590  22.01077
 Alpha virt. eigenvalues --   22.03883  31.85475  43.10892  43.13334
  Beta  occ. eigenvalues --  -19.00105 -18.99183 -14.30154 -10.17713 -10.17112
  Beta  occ. eigenvalues --  -10.16842 -10.16639 -10.16171 -10.12557 -10.12327
  Beta  occ. eigenvalues --  -10.12218 -10.11922 -10.11918 -10.11677 -10.11404
  Beta  occ. eigenvalues --  -10.11338 -10.11296 -10.11218 -10.11024 -10.10931
  Beta  occ. eigenvalues --  -10.10928 -10.09277 -10.07713 -10.07710 -10.07104
  Beta  occ. eigenvalues --  -10.07086 -10.07046  -1.19562  -1.18935  -1.14555
  Beta  occ. eigenvalues --   -1.02225  -1.01918  -1.00076  -0.97611  -0.93212
  Beta  occ. eigenvalues --   -0.92464  -0.91382  -0.90613  -0.90372  -0.88486
  Beta  occ. eigenvalues --   -0.86611  -0.85625  -0.80907  -0.80768  -0.78949
  Beta  occ. eigenvalues --   -0.77757  -0.76987  -0.75887  -0.73318  -0.72759
  Beta  occ. eigenvalues --   -0.72418  -0.71801  -0.71344  -0.67369  -0.66896
  Beta  occ. eigenvalues --   -0.66091  -0.66062  -0.63754  -0.63670  -0.62597
  Beta  occ. eigenvalues --   -0.61744  -0.60397  -0.60254  -0.59961  -0.59470
  Beta  occ. eigenvalues --   -0.59067  -0.58618  -0.58514  -0.58219  -0.57812
  Beta  occ. eigenvalues --   -0.56862  -0.56006  -0.55350  -0.54995  -0.54870
  Beta  occ. eigenvalues --   -0.53612  -0.53384  -0.52265  -0.52144  -0.51737
  Beta  occ. eigenvalues --   -0.51550  -0.51272  -0.48453  -0.48326  -0.47598
  Beta  occ. eigenvalues --   -0.45353  -0.44492  -0.44061  -0.42429  -0.40415
  Beta  occ. eigenvalues --   -0.40383  -0.39287
  Beta virt. eigenvalues --   -0.24021  -0.10836  -0.10598  -0.09807  -0.08565
  Beta virt. eigenvalues --   -0.07561  -0.06206  -0.05508  -0.03519  -0.02088
  Beta virt. eigenvalues --   -0.01777  -0.01099   0.00059   0.00564   0.01806
[...]
     5   Atom        0.003811     -0.008610      0.004799
     6   Atom       -0.010382      0.023770     -0.013387
     7   Atom        0.002365     -0.000388     -0.001977
     8   Atom       -0.000123     -0.000972      0.001095
     9   Atom        0.000703     -0.000679     -0.000024
    10   Atom       -0.000108     -0.000972      0.001080
    11   Atom       -0.070771     -0.013723      0.084494
    12   Atom        0.019141      0.002547     -0.021689
    13   Atom        0.020469      0.001994     -0.022463
    14   Atom       -0.053132      0.038010      0.015123
    15   Atom       -0.050790      0.036810      0.013980
    16   Atom        0.003204     -0.022305      0.019101
    17   Atom        0.001338     -0.000487     -0.000852
    18   Atom        0.001388     -0.000483     -0.000905
    19   Atom       -0.002557      0.003330     -0.000773
    20   Atom       -0.002906      0.003378     -0.000473
    21   Atom        0.000707     -0.000683     -0.000024
    22   Atom       -0.478053     -0.475439      0.953493
    23   Atom       -0.006202      0.011704     -0.005502
    24   Atom        0.018814     -0.031509      0.012695
    25   Atom       -0.000219     -0.021596      0.021815
    26   Atom        0.006678      0.014107     -0.020785
    27   Atom        0.008160      0.017710     -0.025870
    28   Atom       -0.034211     -0.051031      0.085242
    29   Atom        0.000807     -0.000486     -0.000321
    30   Atom        0.003848     -0.003627     -0.000221
    31   Atom        0.000700      0.000818     -0.001518
    32   Atom       -0.002824      0.006340     -0.003516
    33   Atom       -0.008623     -0.008825      0.017448
    34   Atom        0.056765     -0.028821     -0.027944
    35   Atom        0.016395      0.012456     -0.028851
    36   Atom        0.005005     -0.000570     -0.004435
    37   Atom       -0.005716      0.011308     -0.005592
    38   Atom        0.009017     -0.022404      0.013387
    39   Atom        0.000156     -0.001581      0.001424
    40   Atom       -0.000325     -0.001115      0.001440
    41   Atom       -0.000297     -0.000177      0.000474
    42   Atom       -0.000850      0.000307      0.000543
    43   Atom        0.033272     -0.040030      0.006758
    44   Atom        0.002358     -0.003739      0.001382
    45   Atom        0.011823      0.008815     -0.020639
    46   Atom        0.001907     -0.001657     -0.000249
 --------------------------------------------------------
                        XY            XZ            YZ
 --------------------------------------------------------
     1   Atom        0.000627     -0.000037     -0.003585
     2   Atom        0.001526      0.000369      0.011106
     3   Atom        0.009662     -0.000859      0.001127
     4   Atom       -0.001766     -0.000351     -0.003521
     5   Atom       -0.000237      0.000135      0.002928
     6   Atom       -0.007595      0.000758      0.001538
     7   Atom       -0.000076     -0.000101      0.000392
     8   Atom       -0.000010     -0.000077     -0.001198
     9   Atom       -0.000090     -0.000057     -0.000093
    10   Atom       -0.000107      0.000064     -0.001204
    11   Atom        0.004369      0.007105      0.100778
    12   Atom       -0.004368     -0.007061     -0.021381
    13   Atom        0.001507      0.002699     -0.022900
    14   Atom       -0.013122     -0.007452      0.078944
    15   Atom        0.021410      0.014851      0.078550
    16   Atom        0.002188      0.005454      0.001272
    17   Atom        0.000306     -0.000211     -0.002036
    18   Atom       -0.000591     -0.000034     -0.001941
    19   Atom        0.001332     -0.001968     -0.005204
    20   Atom       -0.001522      0.001609     -0.005141
    21   Atom       -0.000002      0.000011     -0.000098
    22   Atom       -0.001354      0.037239     -0.072297
    23   Atom       -0.015315      0.015783      0.009783
    24   Atom        0.032949     -0.061708     -0.034427
    25   Atom        0.055952     -0.078390     -0.060699
    26   Atom       -0.010396      0.021931      0.017539
    27   Atom       -0.013337      0.027256      0.017248
    28   Atom        0.028920     -0.084621     -0.061819
    29   Atom        0.002392      0.003451      0.003549
    30   Atom        0.000942      0.005911      0.000030
    31   Atom       -0.001721      0.001295      0.000480
    32   Atom       -0.007768     -0.003943     -0.001637
    33   Atom        0.004803      0.020319     -0.009219
    34   Atom       -0.031150      0.032558     -0.014176
    35   Atom       -0.050919      0.021551     -0.016240
    36   Atom        0.007539     -0.004353      0.007676
    37   Atom        0.003672     -0.011450      0.002965
    38   Atom       -0.034550      0.060919     -0.038317
    39   Atom       -0.000902     -0.004424      0.002669
    40   Atom       -0.000664     -0.004261      0.002454
    41   Atom        0.001057     -0.001617      0.000525
    42   Atom        0.000854     -0.001279      0.001022
    43   Atom       -0.072767      0.103682     -0.066016
    44   Atom        0.001191     -0.004971     -0.001922
    45   Atom       -0.006824      0.018564      0.013251
    46   Atom        0.000215      0.001716     -0.000130
 --------------------------------------------------------


 ---------------------------------------------------------------------------------
              Anisotropic Spin Dipole Couplings in Principal Axis System
 ---------------------------------------------------------------------------------

       Atom             a.u.   MegaHertz   Gauss  10(-4) cm-1        Axes

              Baa    -0.0102    -1.372    -0.490    -0.458 -0.0362  0.9645  0.2615
     1 C(13)  Bbb     0.0039     0.530     0.189     0.177  0.0862 -0.2577  0.9624
              Bcc     0.0063     0.842     0.301     0.281  0.9956  0.0573 -0.0739
 
              Baa    -0.0156    -2.093    -0.747    -0.698  0.0177 -0.2575  0.9661
     2 C(13)  Bbb    -0.0136    -1.822    -0.650    -0.608  0.9992 -0.0310 -0.0265
              Bcc     0.0292     3.915     1.397     1.306  0.0367  0.9658  0.2568
 
              Baa    -0.0140    -1.873    -0.668    -0.625  0.4912 -0.1560  0.8570
     3 C(13)  Bbb    -0.0114    -1.530    -0.546    -0.510  0.8290 -0.2182 -0.5149
              Bcc     0.0254     3.403     1.214     1.135  0.2673  0.9634  0.0222
 
              Baa    -0.0103    -1.377    -0.491    -0.459  0.1091  0.9601  0.2576
     4 C(13)  Bbb     0.0040     0.530     0.189     0.177 -0.0504 -0.2535  0.9660
              Bcc     0.0063     0.846     0.302     0.282  0.9927 -0.1184  0.0208
 
              Baa    -0.0092    -1.238    -0.442    -0.413  0.0199  0.9787 -0.2045
     5 C(13)  Bbb     0.0038     0.511     0.183     0.171  0.9984 -0.0301 -0.0471
              Bcc     0.0054     0.727     0.259     0.242  0.0522  0.2032  0.9777
 
              Baa    -0.0140    -1.878    -0.670    -0.626 -0.4517 -0.1268  0.8831
     6 C(13)  Bbb    -0.0114    -1.534    -0.547    -0.512  0.8679  0.1668  0.4678
              Bcc     0.0254     3.412     1.218     1.138 -0.2066  0.9778  0.0347
 
              Baa    -0.0021    -1.105    -0.394    -0.368  0.0183 -0.2263  0.9739
     7 H(1)   Bbb    -0.0003    -0.160    -0.057    -0.053  0.0364  0.9736  0.2255
              Bcc     0.0024     1.264     0.451     0.422  0.9992 -0.0313 -0.0260
 
              Baa    -0.0015    -0.812    -0.290    -0.271  0.0296  0.9086  0.4167
     8 H(1)   Bbb    -0.0001    -0.066    -0.024    -0.022  0.9989 -0.0424  0.0214
              Bcc     0.0016     0.878     0.313     0.293 -0.0371 -0.4156  0.9088
 
              Baa    -0.0007    -0.373    -0.133    -0.124  0.0692  0.9875  0.1419
     9 H(1)   Bbb    -0.0000    -0.007    -0.003    -0.002  0.0603 -0.1462  0.9874
              Bcc     0.0007     0.380     0.136     0.127  0.9958 -0.0598 -0.0697
 
              Baa    -0.0015    -0.817    -0.292    -0.273  0.0491  0.9075  0.4172
    10 H(1)   Bbb    -0.0001    -0.059    -0.021    -0.020  0.9971 -0.0200 -0.0739
              Bcc     0.0016     0.876     0.313     0.292  0.0587 -0.4196  0.9058
 
              Baa    -0.0767   -10.295    -3.674    -3.434  0.0109  0.8477 -0.5304
    11 C(13)  Bbb    -0.0711    -9.539    -3.404    -3.182  0.9992 -0.0294 -0.0266
              Bcc     0.1478    19.835     7.078     6.616  0.0381  0.5297  0.8473
 
              Baa    -0.0354    -4.752    -1.696    -1.585  0.1504  0.4983  0.8539
    12 C(13)  Bbb     0.0150     2.012     0.718     0.671  0.0396  0.8600 -0.5088
              Bcc     0.0204     2.739     0.977     0.914  0.9878 -0.1103 -0.1096
 
              Baa    -0.0364    -4.880    -1.741    -1.628 -0.0543  0.5134  0.8564
    13 C(13)  Bbb     0.0157     2.110     0.753     0.704  0.0193  0.8581 -0.5132
              Bcc     0.0206     2.769     0.988     0.924  0.9983  0.0113  0.0565
 
              Baa    -0.0569    -7.630    -2.723    -2.545  0.7761  0.4634 -0.4278
    14 C(13)  Bbb    -0.0508    -6.822    -2.434    -2.276  0.6240 -0.4655  0.6276
              Bcc     0.1077    14.452     5.157     4.821 -0.0917  0.7540  0.6504
 
              Baa    -0.0573    -7.686    -2.742    -2.564  0.7589 -0.5104  0.4045
    15 C(13)  Bbb    -0.0517    -6.937    -2.475    -2.314 -0.6312 -0.4238  0.6496
              Bcc     0.1090    14.623     5.218     4.878  0.1601  0.7483  0.6438
 
              Baa    -0.0225    -3.020    -1.078    -1.007 -0.0806  0.9966 -0.0199
    16 C(13)  Bbb     0.0016     0.219     0.078     0.073  0.9507  0.0708 -0.3020
              Bcc     0.0209     2.801     0.999     0.934  0.2995  0.0432  0.9531
 
              Baa    -0.0027    -1.448    -0.517    -0.483 -0.0125  0.6756  0.7372
    17 H(1)   Bbb     0.0010     0.527     0.188     0.176  0.7243 -0.5022  0.4725
              Bcc     0.0017     0.921     0.329     0.307  0.6894  0.5398 -0.4830
 
              Baa    -0.0027    -1.435    -0.512    -0.479  0.1036  0.6723  0.7330
    18 H(1)   Bbb     0.0009     0.492     0.175     0.164  0.6268  0.5280 -0.5729
              Bcc     0.0018     0.944     0.337     0.315  0.7722 -0.5188  0.3667
 
              Baa    -0.0047    -2.534    -0.904    -0.845  0.4421  0.4331  0.7855
    19 H(1)   Bbb    -0.0026    -1.397    -0.498    -0.466  0.8699 -0.4204 -0.2579
              Bcc     0.0074     3.931     1.403     1.311  0.2185  0.7973 -0.5626
 
              Baa    -0.0043    -2.272    -0.811    -0.758 -0.4366  0.4409  0.7842
    20 H(1)   Bbb    -0.0031    -1.676    -0.598    -0.559  0.8757  0.4080  0.2581
              Bcc     0.0074     3.948     1.409     1.317 -0.2062  0.7995 -0.5642
 
              Baa    -0.0007    -0.372    -0.133    -0.124 -0.0001  0.9897  0.1433
    21 H(1)   Bbb    -0.0000    -0.005    -0.002    -0.002 -0.0160 -0.1433  0.9896
              Bcc     0.0007     0.377     0.135     0.126  0.9999 -0.0022  0.0158
 
              Baa    -0.4796   -18.496    -6.600    -6.170 -0.6838  0.7277  0.0545
    22 N(14)  Bbb    -0.4785   -18.456    -6.585    -6.156  0.7292  0.6841  0.0156
              Bcc     0.9581    36.952    13.185    12.326  0.0259 -0.0504  0.9984
 
              Baa    -0.0294    -3.946    -1.408    -1.316  0.6811  0.3997 -0.6134
    23 C(13)  Bbb     0.0089     1.193     0.426     0.398  0.5532  0.2679  0.7888
              Bcc     0.0205     2.753     0.982     0.918 -0.4796  0.8766  0.0387
 
              Baa    -0.0504    -6.759    -2.412    -2.254  0.0709  0.8447  0.5306
    24 C(13)  Bbb    -0.0450    -6.043    -2.156    -2.016  0.7349 -0.4039  0.5447
              Bcc     0.0954    12.802     4.568     4.270  0.6744  0.3513 -0.6494
 
              Baa    -0.0695    -9.324    -3.327    -3.110  0.8085 -0.4117  0.4205
    25 C(13)  Bbb    -0.0643    -8.630    -3.079    -2.878  0.0757  0.7813  0.6195
              Bcc     0.1338    17.953     6.406     5.988 -0.5836 -0.4691  0.6629
 
              Baa    -0.0405    -5.439    -1.941    -1.814 -0.4569 -0.3495  0.8180
    26 C(13)  Bbb     0.0187     2.512     0.896     0.838  0.8271  0.1715  0.5353
              Bcc     0.0218     2.927     1.044     0.976 -0.3273  0.9211  0.2107
 
              Baa    -0.0481    -6.450    -2.301    -2.151 -0.4734 -0.3120  0.8238
    27 C(13)  Bbb     0.0208     2.793     0.997     0.932  0.5867  0.5859  0.5590
              Bcc     0.0273     3.657     1.305     1.220 -0.6570  0.7479 -0.0943
 
              Baa    -0.0793   -10.646    -3.799    -3.551  0.7363  0.4150  0.5345
    28 C(13)  Bbb    -0.0727    -9.751    -3.479    -3.253 -0.5202  0.8523  0.0549
              Bcc     0.1520    20.397     7.278     6.804 -0.4327 -0.3184  0.8434
 
              Baa    -0.0041    -2.211    -0.789    -0.737 -0.2578 -0.5808  0.7722
    29 H(1)   Bbb    -0.0022    -1.149    -0.410    -0.383  0.7534 -0.6212 -0.2157
              Bcc     0.0063     3.360     1.199     1.121  0.6050  0.5261  0.5977
 
              Baa    -0.0047    -2.509    -0.895    -0.837 -0.5402  0.4530  0.7092
    30 H(1)   Bbb    -0.0034    -1.822    -0.650    -0.608  0.2141  0.8890 -0.4047
              Bcc     0.0081     4.331     1.545     1.445  0.8139  0.0667  0.5772
 
              Baa    -0.0026    -1.373    -0.490    -0.458 -0.5024 -0.3658  0.7834
    31 H(1)   Bbb     0.0000     0.003     0.001     0.001  0.4716  0.6435  0.6029
              Bcc     0.0026     1.369     0.489     0.457  0.7247 -0.6723  0.1508
 
              Baa    -0.0100    -5.348    -1.908    -1.784  0.7342  0.4032  0.5463
    32 H(1)   Bbb    -0.0008    -0.413    -0.147    -0.138 -0.4552 -0.3046  0.8367
              Bcc     0.0108     5.761     2.056     1.922 -0.5037  0.8630  0.0401
 
              Baa    -0.0246    -3.306    -1.180    -1.103  0.7359 -0.4936 -0.4634
    33 C(13)  Bbb    -0.0048    -0.647    -0.231    -0.216  0.5062  0.8557 -0.1076
              Bcc     0.0295     3.954     1.411     1.319  0.4497 -0.1554  0.8796
 
              Baa    -0.0426    -5.712    -2.038    -1.905 -0.0108  0.7059  0.7082
    34 C(13)  Bbb    -0.0361    -4.840    -1.727    -1.614  0.4365  0.6405 -0.6318
              Bcc     0.0786    10.552     3.765     3.520  0.8996 -0.3023  0.3150
 
              Baa    -0.0394    -5.285    -1.886    -1.763 -0.6332 -0.4179  0.6514
    35 C(13)  Bbb    -0.0331    -4.441    -1.585    -1.481  0.3261  0.6192  0.7143
              Bcc     0.0725     9.725     3.470     3.244  0.7019 -0.6647  0.2558
 
              Baa    -0.0140    -1.872    -0.668    -0.625  0.4005 -0.6151  0.6791
    36 C(13)  Bbb     0.0036     0.487     0.174     0.163 -0.4611  0.5052  0.7295
              Bcc     0.0103     1.385     0.494     0.462  0.7918  0.6054  0.0813
 
              Baa    -0.0179    -2.397    -0.855    -0.799  0.7023 -0.1589  0.6939
    37 C(13)  Bbb     0.0058     0.773     0.276     0.258 -0.6923  0.0745  0.7178
              Bcc     0.0121     1.624     0.579     0.542  0.1658  0.9845  0.0577
 
              Baa    -0.0503    -6.743    -2.406    -2.249 -0.6083  0.2715  0.7458
    38 C(13)  Bbb    -0.0446    -5.984    -2.135    -1.996  0.4800  0.8742  0.0734
              Bcc     0.0948    12.727     4.541     4.245  0.6321 -0.4026  0.6621
 
              Baa    -0.0043    -2.272    -0.811    -0.758  0.5733 -0.4734  0.6687
    39 H(1)   Bbb    -0.0019    -1.011    -0.361    -0.337  0.5656  0.8192  0.0951
              Bcc     0.0062     3.282     1.171     1.095 -0.5928  0.3237  0.7374
 
              Baa    -0.0042    -2.252    -0.803    -0.751  0.6530 -0.3788  0.6559
    40 H(1)   Bbb    -0.0015    -0.796    -0.284    -0.266  0.5002  0.8659  0.0021
              Bcc     0.0057     3.048     1.087     1.017 -0.5687  0.3267  0.7549
 
              Baa    -0.0022    -1.189    -0.424    -0.397  0.7011 -0.4930  0.5152
    41 H(1)   Bbb     0.0004     0.235     0.084     0.078  0.2869  0.8565  0.4291
              Bcc     0.0018     0.954     0.340     0.318 -0.6528 -0.1530  0.7419
 
              Baa    -0.0022    -1.197    -0.427    -0.399  0.7381 -0.4489  0.5036
    42 H(1)   Bbb     0.0007     0.363     0.130     0.121  0.6208  0.7442 -0.2464
              Bcc     0.0016     0.833     0.297     0.278 -0.2641  0.4945  0.8280
 
              Baa    -0.0867     6.274     2.239     2.093 -0.0731  0.7746  0.6282
    43 O(17)  Bbb    -0.0837     6.057     2.161     2.020  0.7309  0.4701 -0.4947
              Bcc     0.1704   -12.330    -4.400    -4.113  0.6785 -0.4230  0.6005
 
              Baa    -0.0045    -2.375    -0.847    -0.792  0.1552  0.8914  0.4259
    44 H(1)   Bbb    -0.0028    -1.517    -0.541    -0.506  0.6775 -0.4098  0.6107
              Bcc     0.0073     3.892     1.389     1.298  0.7189  0.1938 -0.6675
 
              Baa    -0.0342     2.476     0.883     0.826 -0.3947 -0.3270  0.8587
    45 O(17)  Bbb     0.0139    -1.005    -0.359    -0.335 -0.0357  0.9393  0.3413
              Bcc     0.0203    -1.471    -0.525    -0.491  0.9181 -0.1041  0.3824
 
              Baa    -0.0017    -0.932    -0.333    -0.311 -0.2003  0.9294  0.3100
    46 H(1)   Bbb    -0.0011    -0.593    -0.212    -0.198 -0.4396 -0.3680  0.8193
              Bcc     0.0029     1.525     0.544     0.509  0.8755  0.0279  0.4823
 

 ---------------------------------------------------------------------------------

 No NMR shielding tensors so no spin-rotation constants.
 Leave Link  601 at Sun Jan 17 20:00:00 2021, MaxMem=  4026531840 cpu:               8.9 elap:               1.4
 (Enter /opt/ohpc/pub/libs/gaussian/g16-A.03/sandybridge/g16/l9999.exe)

 Test job not archived.
 1\1\GINC-CASCADEB002\SP\ULC-wHPBE\TZVP\C24H19N1O2(1+,2)\RDU230\17-Jan-
 2021\0\\#P LC-wHPBE/TZVP iop(3/107=0168400000, 3/108=0168400000) scf=(
 conver=6,fermi,ndamp=35,noincfock,novaracc,vshift=500,xqc)\\H19 C24 N1
  O2\\1,2\C,0,-6.538108,-0.217341,1.255514\C,0,-7.258661,0.087287,0.107
 878\C,0,-5.15139,-0.259049,1.219222\C,0,-6.580697,0.348691,-1.075777\C
 ,0,-4.458004,0.000662,0.035726\C,0,-5.193998,0.304569,-1.110911\H,0,-8
 .345644,0.121015,0.135956\H,0,-4.59391,-0.476283,2.12835\H,0,-7.136138
 ,0.581164,-1.982188\H,0,-4.671509,0.488761,-2.047704\C,0,-2.974479,-0.
 044963,-0.00277\C,0,-2.240322,0.918366,-0.694597\C,0,-2.265576,-1.0512
 97,0.654611\C,0,-0.856277,0.875925,-0.739808\C,0,-0.88157,-1.094369,0.
 628888\C,0,-0.155643,-0.133238,-0.077397\H,0,-2.762026,1.727417,-1.202
 285\H,0,-2.809037,-1.823891,1.195264\H,0,-0.306381,1.639189,-1.284917\
 H,0,-0.352632,-1.885069,1.15502\H,0,-7.059465,-0.416189,2.189743\N,0,1
 .257026,-0.160831,-0.103806\C,0,1.965402,-1.377887,-0.17457\C,0,3.1900
 04,-1.508547,0.478017\C,0,1.461496,-2.456008,-0.912094\C,0,3.903051,-2
 .696891,0.390217\C,0,2.178621,-3.638306,-0.97461\C,0,3.402953,-3.77505
 6,-0.332839\H,0,3.600761,-0.690157,1.062074\H,0,0.51484,-2.358097,-1.4
 35231\H,0,1.782807,-4.471654,-1.551437\H,0,3.963923,-4.706428,-0.39805
 5\C,0,1.972861,1.068372,-0.045814\C,0,2.971482,1.350948,-0.972341\C,0,
 1.683086,2.012203,0.939258\C,0,3.67678,2.543988,-0.910119\C,0,2.365608
 ,3.214996,0.992156\C,0,3.371443,3.4833,0.069272\H,0,3.205268,0.621566,
 -1.744392\H,0,0.904271,1.798314,1.667748\H,0,4.460878,2.747602,-1.6391
 97\H,0,2.139895,3.954598,1.756001\O,0,4.022986,4.680331,0.173244\H,0,4
 .695287,4.73835,-0.517835\O,0,5.097214,-2.751708,1.053752\H,0,5.479651
 ,-3.631493,0.941087\\Version=EM64L-G16RevA.03\State=2-A\HF=-1130.23538
 52\S2=0.765062\S2-1=0.\S2A=0.750205\RMSD=9.681e-07\Dipole=1.6938622,-0
 .5540043,-0.692576\Quadrupole=29.1329102,-2.1197465,-27.0131637,-3.015
 7407,-7.111742,-4.4152441\PG=C01 [X(C24H19N1O2)]\\@


 THE MORE ACCURATE THE CALCULATIONS BECOME, THE MORE THE CONCEPTS
 TEND TO VANISH INTO THIN AIR.
     -- R.S. MULLIKEN, J.C.P. 43,S2(1965)
 Job cpu time:       0 days  2 hours 59 minutes 45.9 seconds.
 Elapsed time:       0 days  0 hours 22 minutes 32.4 seconds.
 File lengths (MBytes):  RWF=    240 Int=      0 D2E=      0 Chk=     32 Scr=      8
 Normal termination of Gaussian 16 at Sun Jan 17 20:00:00 2021.
