 Entering Gaussian System, Link 0=g16
 Input=mol_bp_ma_half_tune_n1.gjf
 Output=mol_bp_ma_half_tune_n1.log
 Initial command:
 /opt/ohpc/pub/libs/gaussian/g16-A.03/sandybridge/g16/l1.exe "/mnt/gpfs2_4m/scratch/rdu230/ondemand/projects/init_structures/wtuning/mol_bp_ma_half/tuning_mol_bp_ma_half_ocycle0/Gau-38216.inp" -scrdir="/mnt/gpfs2_4m/scratch/rdu230/ondemand/projects/init_structures/wtuning/mol_bp_ma_half/tuning_mol_bp_ma_half_ocycle0/"
 Entering Link 1 = /opt/ohpc/pub/libs/gaussian/g16-A.03/sandybridge/g16/l1.exe PID=     38217.
  
 Copyright (c) 1988,1990,1992,1993,1995,1998,2003,2009,2016,
            Gaussian, Inc.  All Rights Reserved.
  
 This is part of the Gaussian(R) 16 program.  It is based on
 the Gaussian(R) 09 system (copyright 2009, Gaussian, Inc.),
 the Gaussian(R) 03 system (copyright 2003, Gaussian, Inc.),
 the Gaussian(R) 98 system (copyright 1998, Gaussian, Inc.),
 the Gaussian(R) 94 system (copyright 1995, Gaussian, Inc.),
 the Gaussian 92(TM) system (copyright 1992, Gaussian, Inc.),
 the Gaussian 90(TM) system (copyright 1990, Gaussian, Inc.),
 the Gaussian 88(TM) system (copyright 1988, Gaussian, Inc.),
 the Gaussian 86(TM) system (copyright 1986, Carnegie Mellon
 University), and the Gaussian 82(TM) system (copyright 1983,
 Carnegie Mellon University). Gaussian is a federally registered
 trademark of Gaussian, Inc.
  
 This software contains proprietary and confidential information,
 including trade secrets, belonging to Gaussian, Inc.
  
 This software is provided under written license and may be
 used, copied, transmitted, or stored only in accord with that
 written license.
  
 The following legend is applicable only to US Government
 contracts under FAR:
  
                    RESTRICTED RIGHTS LEGEND
  
 Use, reproduction and disclosure by the US Government is
 subject to restrictions as set forth in subparagraphs (a)
 and (c) of the Commercial Computer Software - Restricted
 Rights clause in FAR 52.227-19.
  
 Gaussian, Inc.
 340 Quinnipiac St., Bldg. 40, Wallingford CT 06492
  
  
 ---------------------------------------------------------------
 Warning -- This program may not be used in any manner that
 competes with the business of Gaussian, Inc. or will provide
 assistance to any competitor of Gaussian, Inc.  The licensee
 of this program is prohibited from giving any competitor of
 Gaussian, Inc. access to this program.  By using this program,
 the user acknowledges that Gaussian, Inc. is engaged in the
 business of creating and licensing software in the field of
 computational chemistry and represents and warrants to the
 licensee that it is not a competitor of Gaussian, Inc. and that
 it will not use this program in any manner prohibited above.
 ---------------------------------------------------------------
  

 Cite this work as:
 Gaussian 16, Revision A.03,
 M. J. Frisch, G. W. Trucks, H. B. Schlegel, G. E. Scuseria, 
 M. A. Robb, J. R. Cheeseman, G. Scalmani, V. Barone, 
 G. A. Petersson, H. Nakatsuji, X. Li, M. Caricato, A. V. Marenich, 
 J. Bloino, B. G. Janesko, R. Gomperts, B. Mennucci, H. P. Hratchian, 
 J. V. Ortiz, A. F. Izmaylov, J. L. Sonnenberg, D. Williams-Young, 
 F. Ding, F. Lipparini, F. Egidi, J. Goings, B. Peng, A. Petrone, 
 T. Henderson, D. Ranasinghe, V. G. Zakrzewski, J. Gao, N. Rega, 
 G. Zheng, W. Liang, M. Hada, M. Ehara, K. Toyota, R. Fukuda, 
 J. Hasegawa, M. Ishida, T. Nakajima, Y. Honda, O. Kitao, H. Nakai, 
 T. Vreven, K. Throssell, J. A. Montgomery, Jr., J. E. Peralta, 
 F. Ogliaro, M. J. Bearpark, J. J. Heyd, E. N. Brothers, K. N. Kudin, 
 V. N. Staroverov, T. A. Keith, R. Kobayashi, J. Normand, 
 K. Raghavachari, A. P. Rendell, J. C. Burant, S. S. Iyengar, 
 J. Tomasi, M. Cossi, J. M. Millam, M. Klene, C. Adamo, R. Cammi, 
 J. W. Ochterski, R. L. Martin, K. Morokuma, O. Farkas, 
 J. B. Foresman, and D. J. Fox, Gaussian, Inc., Wallingford CT, 2016.
 
 ******************************************
 Gaussian 16:  EM64L-G16RevA.03 25-Dec-2016
                17-Jan-2021 
 ******************************************
 %mem=30GB
 %nproc=8
 Will use up to    8 processors via shared memory.
 ----------------------------------------------------------------------
 #P LC-wHPBE/TZVP iop(3/107=0328100000, 3/108=0328100000) scf=(conver=6
 ,fermi,ndamp=35,noincfock,novaracc,vshift=500,xqc)
 ----------------------------------------------------------------------
 1/38=1,172=1/1;
 2/12=2,17=6,18=5,40=1/2;
 3/5=19,7=101,11=2,25=1,30=1,74=-71,107=328100000,108=328100000/1,2,3;
 4//1;
 5/5=100002,6=6,8=3,10=500,13=1,18=-1,22=13,38=1,93=35/2,8;
 6/7=2,8=2,9=2,10=2,28=1/1;
 99/5=1,9=1/99;
 Leave Link    1 at Sun Jan 17 18:15:04 2021, MaxMem=  4026531840 cpu:               1.9 elap:               0.3
 (Enter /opt/ohpc/pub/libs/gaussian/g16-A.03/sandybridge/g16/l101.exe)
 -------------
 H19 C24 N1 O2
 -------------
 Symbolic Z-matrix:
 Charge =  0 Multiplicity = 1
 C                    -6.53811  -0.21734   1.25551 
 C                    -7.25866   0.08729   0.10788 
 C                    -5.15139  -0.25905   1.21922 
 C                    -6.5807    0.34869  -1.07578 
 C                    -4.458     0.00066   0.03573 
 C                    -5.194     0.30457  -1.11091 
 H                    -8.34564   0.12102   0.13596 
 H                    -4.59391  -0.47628   2.12835 
 H                    -7.13614   0.58116  -1.98219 
 H                    -4.67151   0.48876  -2.0477 
 C                    -2.97448  -0.04496  -0.00277 
 C                    -2.24032   0.91837  -0.6946 
 C                    -2.26558  -1.0513    0.65461 
 C                    -0.85628   0.87593  -0.73981 
 C                    -0.88157  -1.09437   0.62889 
 C                    -0.15564  -0.13324  -0.0774 
 H                    -2.76203   1.72742  -1.20229 
 H                    -2.80904  -1.82389   1.19526 
 H                    -0.30638   1.63919  -1.28492 
 H                    -0.35263  -1.88507   1.15502 
 H                    -7.05947  -0.41619   2.18974 
 N                     1.25703  -0.16083  -0.10381 
 C                     1.9654   -1.37789  -0.17457 
 C                     3.19     -1.50855   0.47802 
 C                     1.4615   -2.45601  -0.91209 
 C                     3.90305  -2.69689   0.39022 
 C                     2.17862  -3.63831  -0.97461 
 C                     3.40295  -3.77506  -0.33284 
 H                     3.60076  -0.69016   1.06207 
 H                     0.51484  -2.3581   -1.43523 
 H                     1.78281  -4.47165  -1.55144 
 H                     3.96392  -4.70643  -0.39806 
 C                     1.97286   1.06837  -0.04581 
 C                     2.97148   1.35095  -0.97234 
 C                     1.68309   2.0122    0.93926 
 C                     3.67678   2.54399  -0.91012 
 C                     2.36561   3.215     0.99216 
 C                     3.37144   3.4833    0.06927 
 H                     3.20527   0.62157  -1.74439 
 H                     0.90427   1.79831   1.66775 
 H                     4.46088   2.7476   -1.6392 
 H                     2.1399    3.9546    1.756 
 O                     4.02299   4.68033   0.17324 
 H                     4.69529   4.73835  -0.51784 
 O                     5.09721  -2.75171   1.05375 
 H                     5.47965  -3.63149   0.94109 
 
 ITRead=  0  0  0  0  0  0  0  0  0  0  0  0  0  0  0  0  0  0  0  0
 ITRead=  0  0  0  0  0  0  0  0  0  0  0  0  0  0  0  0  0  0  0  0
 ITRead=  0  0  0  0  0  0
 MicOpt= -1 -1 -1 -1 -1 -1 -1 -1 -1 -1 -1 -1 -1 -1 -1 -1 -1 -1 -1 -1
 MicOpt= -1 -1 -1 -1 -1 -1 -1 -1 -1 -1 -1 -1 -1 -1 -1 -1 -1 -1 -1 -1
 MicOpt= -1 -1 -1 -1 -1 -1
 NAtoms=     46 NQM=       46 NQMF=       0 NMMI=      0 NMMIF=      0
                NMic=       0 NMicF=      0.
                    Isotopes and Nuclear Properties:
 (Nuclear quadrupole moments (NQMom) in fm**2, nuclear magnetic moments (NMagM)
  in nuclear magnetons)

  Atom         1           2           3           4           5           6           7           8           9          10
 IAtWgt=          12          12          12          12          12          12           1           1           1           1
 AtmWgt=  12.0000000  12.0000000  12.0000000  12.0000000  12.0000000  12.0000000   1.0078250   1.0078250   1.0078250   1.0078250
 NucSpn=           0           0           0           0           0           0           1           1           1           1
 AtZEff=  -0.0000000  -0.0000000  -0.0000000  -0.0000000  -0.0000000  -0.0000000  -0.0000000  -0.0000000  -0.0000000  -0.0000000
 NQMom=    0.0000000   0.0000000   0.0000000   0.0000000   0.0000000   0.0000000   0.0000000   0.0000000   0.0000000   0.0000000
 NMagM=    0.0000000   0.0000000   0.0000000   0.0000000   0.0000000   0.0000000   2.7928460   2.7928460   2.7928460   2.7928460
 AtZNuc=   6.0000000   6.0000000   6.0000000   6.0000000   6.0000000   6.0000000   1.0000000   1.0000000   1.0000000   1.0000000

  Atom        11          12          13          14          15          16          17          18          19          20
 IAtWgt=          12          12          12          12          12          12           1           1           1           1
 AtmWgt=  12.0000000  12.0000000  12.0000000  12.0000000  12.0000000  12.0000000   1.0078250   1.0078250   1.0078250   1.0078250
 NucSpn=           0           0           0           0           0           0           1           1           1           1
 AtZEff=  -0.0000000  -0.0000000  -0.0000000  -0.0000000  -0.0000000  -0.0000000  -0.0000000  -0.0000000  -0.0000000  -0.0000000
 NQMom=    0.0000000   0.0000000   0.0000000   0.0000000   0.0000000   0.0000000   0.0000000   0.0000000   0.0000000   0.0000000
 NMagM=    0.0000000   0.0000000   0.0000000   0.0000000   0.0000000   0.0000000   2.7928460   2.7928460   2.7928460   2.7928460
 AtZNuc=   6.0000000   6.0000000   6.0000000   6.0000000   6.0000000   6.0000000   1.0000000   1.0000000   1.0000000   1.0000000

  Atom        21          22          23          24          25          26          27          28          29          30
 IAtWgt=           1          14          12          12          12          12          12          12           1           1
 AtmWgt=   1.0078250  14.0030740  12.0000000  12.0000000  12.0000000  12.0000000  12.0000000  12.0000000   1.0078250   1.0078250
 NucSpn=           1           2           0           0           0           0           0           0           1           1
 AtZEff=  -0.0000000  -0.0000000  -0.0000000  -0.0000000  -0.0000000  -0.0000000  -0.0000000  -0.0000000  -0.0000000  -0.0000000
 NQMom=    0.0000000   2.0440000   0.0000000   0.0000000   0.0000000   0.0000000   0.0000000   0.0000000   0.0000000   0.0000000
 NMagM=    2.7928460   0.4037610   0.0000000   0.0000000   0.0000000   0.0000000   0.0000000   0.0000000   2.7928460   2.7928460
 AtZNuc=   1.0000000   7.0000000   6.0000000   6.0000000   6.0000000   6.0000000   6.0000000   6.0000000   1.0000000   1.0000000

  Atom        31          32          33          34          35          36          37          38          39          40
 IAtWgt=           1           1          12          12          12          12          12          12           1           1
 AtmWgt=   1.0078250   1.0078250  12.0000000  12.0000000  12.0000000  12.0000000  12.0000000  12.0000000   1.0078250   1.0078250
 NucSpn=           1           1           0           0           0           0           0           0           1           1
 AtZEff=  -0.0000000  -0.0000000  -0.0000000  -0.0000000  -0.0000000  -0.0000000  -0.0000000  -0.0000000  -0.0000000  -0.0000000
 NQMom=    0.0000000   0.0000000   0.0000000   0.0000000   0.0000000   0.0000000   0.0000000   0.0000000   0.0000000   0.0000000
 NMagM=    2.7928460   2.7928460   0.0000000   0.0000000   0.0000000   0.0000000   0.0000000   0.0000000   2.7928460   2.7928460
 AtZNuc=   1.0000000   1.0000000   6.0000000   6.0000000   6.0000000   6.0000000   6.0000000   6.0000000   1.0000000   1.0000000

  Atom        41          42          43          44          45          46
 IAtWgt=           1           1          16           1          16           1
 AtmWgt=   1.0078250   1.0078250  15.9949146   1.0078250  15.9949146   1.0078250
 NucSpn=           1           1           0           1           0           1
 AtZEff=  -0.0000000  -0.0000000  -0.0000000  -0.0000000  -0.0000000  -0.0000000
 NQMom=    0.0000000   0.0000000   0.0000000   0.0000000   0.0000000   0.0000000
 NMagM=    2.7928460   2.7928460   0.0000000   2.7928460   0.0000000   2.7928460
 AtZNuc=   1.0000000   1.0000000   8.0000000   1.0000000   8.0000000   1.0000000
 Leave Link  101 at Sun Jan 17 18:15:04 2021, MaxMem=  4026531840 cpu:               0.7 elap:               0.1
 (Enter /opt/ohpc/pub/libs/gaussian/g16-A.03/sandybridge/g16/l202.exe)
                          Input orientation:                          
 ---------------------------------------------------------------------
 Center     Atomic      Atomic             Coordinates (Angstroms)
 Number     Number       Type             X           Y           Z
 ---------------------------------------------------------------------
      1          6           0       -6.538108   -0.217341    1.255514
      2          6           0       -7.258661    0.087287    0.107878
      3          6           0       -5.151390   -0.259049    1.219222
      4          6           0       -6.580697    0.348691   -1.075777
      5          6           0       -4.458004    0.000662    0.035726
      6          6           0       -5.193998    0.304569   -1.110911
      7          1           0       -8.345644    0.121015    0.135956
      8          1           0       -4.593910   -0.476283    2.128350
      9          1           0       -7.136138    0.581164   -1.982188
     10          1           0       -4.671509    0.488761   -2.047704
     11          6           0       -2.974479   -0.044963   -0.002770
     12          6           0       -2.240322    0.918366   -0.694597
     13          6           0       -2.265576   -1.051297    0.654611
     14          6           0       -0.856277    0.875925   -0.739808
     15          6           0       -0.881570   -1.094369    0.628888
     16          6           0       -0.155643   -0.133238   -0.077397
     17          1           0       -2.762026    1.727417   -1.202285
     18          1           0       -2.809037   -1.823891    1.195264
     19          1           0       -0.306381    1.639189   -1.284917
     20          1           0       -0.352632   -1.885069    1.155020
     21          1           0       -7.059465   -0.416189    2.189743
     22          7           0        1.257026   -0.160831   -0.103806
     23          6           0        1.965402   -1.377887   -0.174570
     24          6           0        3.190004   -1.508547    0.478017
     25          6           0        1.461496   -2.456008   -0.912094
     26          6           0        3.903051   -2.696891    0.390217
     27          6           0        2.178621   -3.638306   -0.974610
     28          6           0        3.402953   -3.775056   -0.332839
     29          1           0        3.600761   -0.690157    1.062074
     30          1           0        0.514840   -2.358097   -1.435231
     31          1           0        1.782807   -4.471654   -1.551437
     32          1           0        3.963923   -4.706428   -0.398055
     33          6           0        1.972861    1.068372   -0.045814
     34          6           0        2.971482    1.350948   -0.972341
     35          6           0        1.683086    2.012203    0.939258
     36          6           0        3.676780    2.543988   -0.910119
     37          6           0        2.365608    3.214996    0.992156
     38          6           0        3.371443    3.483300    0.069272
     39          1           0        3.205268    0.621566   -1.744392
     40          1           0        0.904271    1.798314    1.667748
     41          1           0        4.460878    2.747602   -1.639197
     42          1           0        2.139895    3.954598    1.756001
     43          8           0        4.022986    4.680331    0.173244
     44          1           0        4.695287    4.738350   -0.517835
     45          8           0        5.097214   -2.751708    1.053752
     46          1           0        5.479651   -3.631493    0.941087
 ---------------------------------------------------------------------
                    Distance matrix (angstroms):
                    1          2          3          4          5
     1  C    0.000000
     2  C    1.388907   0.000000
     3  C    1.387820   2.407410   0.000000
     4  C    2.399401   1.388887   2.771153   0.000000
     5  C    2.421206   2.802925   1.396029   2.421237   0.000000
     6  C    2.771099   2.407383   2.397707   1.387846   1.396003
     7  H    2.152924   1.087869   3.394285   2.152945   3.890794
     8  H    2.146811   3.391285   1.088342   3.859318   2.150586
     9  H    3.387914   2.151117   3.859302   1.088182   3.403140
    10  H    3.859277   3.391323   3.385604   2.146919   2.150466
    11  C    3.783179   4.287651   2.505601   3.783004   1.484726
    12  C    4.854248   5.149600   3.677408   4.394165   2.508718
    13  C    4.394439   5.150358   3.045384   4.855356   2.509258
    14  C    6.120437   6.506231   4.855302   5.758458   3.786816
    15  C    5.758321   6.506539   4.390628   6.121140   3.787059
    16  C    6.520704   7.108855   5.162803   6.519995   4.305930
    17  H    4.907306   4.962487   3.939391   4.061913   2.718583
    18  H    4.060862   4.963282   2.817077   4.909497   2.718936
    19  H    6.981040   7.258269   5.774784   6.409069   4.654551
    20  H    6.407147   7.258094   5.067163   6.982473   4.654340
    21  H    1.088181   2.151123   2.146475   3.387902   3.403109
    22  N    7.912968   8.521930   6.544299   7.914180   5.719014
    23  C    8.700672   9.343974   7.337791   8.765218   6.573033
    24  C    9.844180  10.576308   8.466964  10.066291   7.808032
    25  C    8.585093   9.140560   7.286933   8.518803   6.478740
    26  C   10.766369  11.507179   9.413460  11.015157   8.792593
    27  C    9.625893  10.203632   8.364289   9.624554   7.635945
    28  C   10.677307  11.348213   9.378059  10.827304   8.728490
    29  H   10.151731  10.928950   8.764171  10.455224   8.153178
    30  H    7.846465   8.293878   6.599870   7.602799   5.697073
    31  H    9.757857  10.260868   8.573545   9.664894   7.840180
    32  H   11.540314  12.214011  10.270526  11.713349   9.657832
    33  C    8.705349   9.284780   7.356447   8.645352   6.519408
    34  C    9.892177  10.364340   8.565984   9.605173   7.618184
    35  C    8.524020   9.184298   7.207429   8.667050   6.525002
    36  C   10.800872  11.254136   9.504088  10.491073   8.575421
    37  C    9.546018  10.158300   8.284069   9.619170   7.603182
    38  C   10.644300  11.159458   9.379032  10.496761   8.569138
    39  H   10.229202  10.640027   8.910231   9.812574   7.891773
    40  H    7.721516   8.484944   6.411314   8.102659   5.886344
    41  H   11.753635  12.144017  10.469298  11.313204   9.481429
    42  H    9.641748  10.295886   8.438352   9.852424   7.881956
    43  O   11.691673  12.180964  10.471901  11.522207   9.687384
    44  H   12.405354  12.842148  11.178033  12.113142  10.321572
    45  O   11.909846  12.713073  10.548678  12.268699   9.995705
    46  H   12.497273  13.296171  11.156602  12.859300  10.619285
                    6          7          8          9         10
     6  C    0.000000
     7  H    3.394295   0.000000
     8  H    3.385653   4.289744   0.000000
     9  H    2.146517   2.482172   4.947488   0.000000
    10  H    1.088349   4.289857   4.286812   2.467231   0.000000
    11  C    2.505277   5.375519   2.711137   4.650757   2.710448
    12  C    3.045368   6.212934   3.931088   5.073520   2.815338
    13  C    3.678464   6.213738   2.814904   5.774081   3.932277
    14  C    4.390898   7.578091   4.901499   6.408358   4.051726
    15  C    4.856023   7.578426   4.051158   6.981744   4.902457
    16  C    5.161865   8.196724   4.968019   7.270895   4.966089
    17  H    2.819102   5.962232   4.393771   4.588573   2.427988
    18  H    3.941678   5.963121   2.423318   5.882541   4.397045
    19  H    5.069545   8.303823   5.874395   6.946307   4.578173
    20  H    5.776485   8.303680   4.573892   7.870218   5.877517
    21  H    3.859246   2.482113   2.467051   4.290175   4.947446
    22  N    6.545729   9.609797   6.270206   8.632733   6.272817
    23  C    7.413798  10.424049   7.010057   9.483849   7.144340
    24  C    8.723736  11.655199   8.023620  10.818905   8.495404
    25  C    7.208045  10.194089   7.059147   9.180895   6.897465
    26  C    9.696311  12.571228   8.952684  11.757451   9.466516
    27  C    8.361839  11.230583   8.092832  10.275401   8.068983
    28  C    9.547581  12.386633   8.993841  11.522562   9.290739
    29  H    9.113678  12.009675   8.266518  11.232310   8.915774
    30  H    6.307599   9.333960   6.506893   8.214370   5.947936
    31  H    8.466533  11.248352   8.376535  10.259829   8.155378
    32  H   10.463545  13.233095   9.874885  12.396752  10.211857
    33  C    7.285719  10.363497   7.087696   9.325276   6.963560
    34  C    8.233418  11.437587   8.377841  10.187067   7.766279
    35  C    7.376550  10.237056   6.856178   9.400076   7.184963
    36  C    9.151285  12.308686   9.314432  11.041794   8.672484
    37  C    8.369057  11.181982   7.959357  10.298882   8.135977
    38  C    9.212163  12.190141   9.130441  11.092346   8.839566
    39  H    8.429084  11.713660   8.776707  10.344219   7.883733
    40  H    6.865938   9.524739   5.967909   8.913566   6.827066
    41  H    9.973170  13.193071  10.323615  11.802622   9.416461
    42  H    8.679164  11.281287   8.069416  10.554568   8.536710
    43  O   10.283440  13.182252  10.230543  12.082016   9.904348
    44  H   10.853944  13.849661  10.976515  12.625733  10.398864
    45  O   10.951513  13.776985  10.012502  13.037633  10.749308
    46  H   11.559847  14.348113  10.622692  13.618008  11.355854
                   11         12         13         14         15
    11  C    0.000000
    12  C    1.394853   0.000000
    13  C    1.395493   2.387587   0.000000
    14  C    2.424467   1.385433   2.764907   0.000000
    15  C    2.424977   2.765668   1.384915   2.399172   0.000000
    16  C    2.821205   2.415097   2.414640   1.395739   1.396274
    17  H    2.150652   1.088341   3.378724   2.137944   3.853801
    18  H    2.151102   3.378607   1.088374   3.853152   2.137314
    19  H    3.405733   2.146670   3.852133   1.087245   3.386123
    20  H    3.405958   3.852753   2.145912   3.386314   1.087105
    21  H    4.651025   5.772746   5.073595   6.980786   6.408009
    22  N    4.234297   3.707444   3.711718   2.438321   2.445798
    23  C    5.119436   4.819888   4.323815   3.655275   2.971730
    24  C    6.354061   6.062456   5.477556   4.851927   4.095366
    25  C    5.130096   5.013697   4.280052   4.062454   3.117474
    26  C    7.381570   7.210266   6.389823   6.057489   5.051499
    27  C    6.356967   6.353639   5.394244   5.444632   4.290407
    28  C    7.395551   7.348852   6.366015   6.319675   5.144720
    29  H    6.692081   6.308050   5.891550   5.056143   4.521319
    30  H    4.424690   4.344498   3.715626   3.580848   2.794201
    31  H    6.680249   6.780270   5.740635   6.018314   4.822735
    32  H    8.368209   8.379672   7.298955   7.383345   6.130284
    33  C    5.071246   4.265481   4.790401   2.919364   3.644235
    34  C    6.184100   5.237096   5.987030   3.864124   4.836271
    35  C    5.178056   4.388518   5.005795   3.249424   4.040369
    36  C    7.194803   6.140130   7.119414   4.833223   6.031976
    37  C    6.335120   5.416109   6.305796   4.341831   5.408027
    38  C    7.261168   6.217257   7.258180   5.032557   6.273463
    39  H    6.454981   5.553792   6.203533   4.191663   5.027836
    40  H    4.607928   4.030316   4.381171   3.121964   3.554725
    41  H    8.109306   7.010311   8.058435   5.708258   6.960366
    42  H    6.726558   5.866041   6.758714   4.968333   5.990968
    43  O    8.445348   7.357619   8.522282   6.254149   7.590088
    44  H    9.053766   7.919987   9.129527   6.766643   8.150885
    45  O    8.578749   8.388421   7.567125   7.198655   6.218773
    46  H    9.231813   9.109043   8.168722   7.955263   6.855625
                   16         17         18         19         20
    16  C    0.000000
    17  H    3.394207   0.000000
    18  H    3.393888   4.285118   0.000000
    19  H    2.149959   2.458618   4.940396   0.000000
    20  H    2.150946   4.940862   2.457496   4.286703   0.000000
    21  H    7.272052   5.879531   4.586584   7.867781   6.943333
    22  N    1.413185   4.574376   4.581072   2.660702   2.673694
    23  C    2.461184   5.748712   4.987046   3.936574   2.719986
    24  C    3.659688   6.980082   6.049990   5.024031   3.626344
    25  C    2.950783   5.951756   4.803955   4.476050   2.808913
    26  C    4.823274   8.156826   6.816330   6.271123   4.399411
    27  C    4.305727   7.297452   5.733863   5.841531   3.743849
    28  C    5.098205   8.309038   6.688121   6.631716   4.459842
    29  H    3.964735   7.173357   6.510653   5.118591   4.131074
    30  H    2.691330   5.242475   4.272357   4.083539   2.772303
    31  H    4.975162   7.694537   5.969929   6.463601   4.309922
    32  H    6.163417   9.342352   7.531313   7.699927   5.385606
    33  C    2.444462   4.918427   5.724684   2.656342   3.946230
    34  C    3.575282   5.750454   6.942083   3.305325   5.103646
    35  C    3.002903   4.942300   5.912726   3.007336   4.402207
    36  C    4.748519   6.496951   8.097952   4.101793   6.333838
    37  C    4.325658   5.772443   7.225551   3.848085   5.781524
    38  C    5.053830   6.505338   8.223896   4.331393   6.623214
    39  H    3.826790   6.093060   7.126970   3.684882   5.229576
    40  H    2.810666   4.656592   5.208864   3.195189   3.925558
    41  H    5.661336   7.307668   9.043472   4.907224   7.241489
    42  H    5.034009   6.143340   7.628715   4.537903   6.377741
    43  O    6.379201   7.526498   9.488201   5.488005   7.950748
    44  H    6.888968   8.071289  10.114969   5.933793   8.494093
    45  O    5.977323   9.323085   7.961763   7.344943   5.519252
    46  H    6.710562  10.061670   8.487307   8.137159   6.091904
                   21         22         23         24         25
    21  H    0.000000
    22  N    8.630736   0.000000
    23  C    9.378863   1.409975   0.000000
    24  C   10.448678   2.427192   1.393769   0.000000
    25  C    9.294570   2.441920   1.400074   2.412018   0.000000
    26  C   11.340928   3.698257   2.411066   1.388635   2.777630
    27  C   10.282869   3.701415   2.407285   2.769277   1.384198
    28  C   11.274201   4.209523   2.799647   2.416588   2.417577
    29  H   10.723204   2.670685   2.162559   1.086097   3.404706
    30  H    8.618674   2.674231   2.157361   3.396874   1.086009
    31  H   10.422524   4.577693   3.391238   3.857316   2.138885
    32  H   12.108589   5.298710   3.888858   3.404834   3.404522
    33  C    9.422555   1.423630   2.449656   2.897645   3.665132
    34  C   10.664963   2.445238   3.015821   3.213721   4.095925
    35  C    9.159312   2.447772   3.579529   3.857360   4.841644
    36  C   11.560223   3.717714   4.341768   4.311254   5.468770
    37  C   10.171122   3.718373   4.755627   4.822429   6.050113
    38  C   11.336060   4.216682   5.066315   5.011839   6.315565
    39  H   11.041698   2.664454   2.828325   3.078428   3.633858
    40  H    8.282366   2.664787   3.822092   4.192298   5.006530
    41  H   12.545464   4.591413   5.039067   4.920622   6.050002
    42  H   10.194123   4.601641   5.673883   5.708058   6.976735
    43  O   12.363717   5.582485   6.407545   6.252116   7.659408
    44  H   13.117715   5.999586   6.706598   6.502409   7.897571
    45  O   12.431008   4.774896   3.633787   2.348270   4.143722
    46  H   13.004874   5.564877   4.321270   3.156551   4.578386
                   26         27         28         29         30
    26  C    0.000000
    27  C    2.392211   0.000000
    28  C    1.391168   1.389086   0.000000
    29  H    2.137698   3.855145   3.391388   0.000000
    30  H    3.863550   2.149250   3.400623   4.305980   0.000000
    31  H    3.378644   1.088057   2.143619   4.943189   2.467462
    32  H    2.159471   2.158843   1.089217   4.288857   4.299601
    33  C    4.253582   4.801856   5.058294   2.640057   3.974543
    34  C    4.371428   5.051860   5.183729   2.949737   4.472848
    35  C    5.235003   5.986376   6.169971   3.315918   5.109062
    36  C    5.404524   6.361556   6.351264   3.788802   5.856965
    37  C    6.138116   7.132383   7.189751   4.096427   6.354283
    38  C    6.211310   7.295875   7.269554   4.296043   6.674251
    39  H    4.006946   4.448941   4.621888   3.123025   4.026459
    40  H    5.552624   6.177610   6.427147   3.718923   5.201527
    41  H    5.837139   6.813970   6.735788   4.455879   6.456081
    42  H    7.015439   8.069072   8.105931   4.918273   7.257746
    43  O    7.381386   8.597614   8.493181   5.459893   8.027064
    44  H    7.532264   8.758460   8.612922   5.758714   8.287178
    45  O    1.367227   3.663126   2.416691   2.547437   5.229543
    46  H    1.913794   3.816640   2.440527   3.492323   5.649582
                   31         32         33         34         35
    31  H    0.000000
    32  H    2.478442   0.000000
    33  C    5.744120   6.118555   0.000000
    34  C    5.970845   6.164945   1.391239   0.000000
    35  C    6.946503   7.220154   1.394688   2.398215   0.000000
    36  C    7.295043   7.274146   2.414085   1.387322   2.770885
    37  C    8.117519   8.199772   2.416532   2.775069   1.383960
    38  C    8.272349   8.224419   2.793055   2.406627   2.402405
    39  H    5.291646   5.547585   2.145607   1.087528   3.384211
    40  H    7.102639   7.479350   2.147323   3.382834   1.087658
    41  H    7.700482   7.572976   3.398369   2.147938   3.860747
    42  H    9.059160   9.109358   3.406573   3.861914   2.156071
    43  O    9.578714   9.404314   4.158996   3.674618   3.630539
    44  H    9.714682   9.473810   4.593816   3.827868   4.316057
    45  O    4.553078   2.685707   5.056050   5.045352   5.862101
    46  H    4.537092   2.290462   5.946451   5.897189   6.801854
                   36         37         38         39         40
    36  C    0.000000
    37  C    2.405842   0.000000
    38  C    1.390951   1.391189   0.000000
    39  H    2.148032   3.862590   3.392125   0.000000
    40  H    3.858527   2.144509   3.388398   4.280423   0.000000
    41  H    1.089873   3.395973   2.155687   2.471366   4.948382
    42  H    3.385267   1.086930   2.141001   4.949432   2.486788
    43  O    2.420226   2.358967   1.366822   4.562846   4.501772
    44  H    2.450810   3.166715   1.916353   4.546703   5.271849
    45  O    5.823986   6.562547   6.543914   4.773683   6.217754
    46  H    6.694316   7.521588   7.471605   5.520247   7.137573
                   41         42         43         44         45
    41  H    0.000000
    42  H    4.286160   0.000000
    43  O    2.685542   2.564730   0.000000
    44  H    2.296841   3.509220   0.965891   0.000000
    45  O    6.156241   7.362977   7.560718   7.663707   0.000000
    46  H    6.956193   8.328675   8.473363   8.532172   0.965905
                   46
    46  H    0.000000
 Stoichiometry    C24H19NO2
 Framework group  C1[X(C24H19NO2)]
 Deg. of freedom   132
 Full point group                 C1      NOp   1
 Largest Abelian subgroup         C1      NOp   1
 Largest concise Abelian subgroup C1      NOp   1
                         Standard orientation:                         
 ---------------------------------------------------------------------
 Center     Atomic      Atomic             Coordinates (Angstroms)
 Number     Number       Type             X           Y           Z
 ---------------------------------------------------------------------
      1          6           0       -6.538108   -0.217341    1.255514
      2          6           0       -7.258661    0.087287    0.107878
      3          6           0       -5.151390   -0.259049    1.219222
      4          6           0       -6.580697    0.348691   -1.075777
      5          6           0       -4.458004    0.000662    0.035726
      6          6           0       -5.193998    0.304569   -1.110911
      7          1           0       -8.345644    0.121015    0.135956
      8          1           0       -4.593910   -0.476283    2.128350
      9          1           0       -7.136138    0.581164   -1.982188
     10          1           0       -4.671509    0.488761   -2.047704
     11          6           0       -2.974479   -0.044963   -0.002770
     12          6           0       -2.240322    0.918366   -0.694597
     13          6           0       -2.265576   -1.051297    0.654611
     14          6           0       -0.856277    0.875925   -0.739808
     15          6           0       -0.881570   -1.094369    0.628888
     16          6           0       -0.155643   -0.133238   -0.077397
     17          1           0       -2.762026    1.727417   -1.202285
     18          1           0       -2.809037   -1.823891    1.195264
     19          1           0       -0.306381    1.639189   -1.284917
     20          1           0       -0.352632   -1.885069    1.155020
     21          1           0       -7.059465   -0.416189    2.189743
     22          7           0        1.257026   -0.160831   -0.103806
     23          6           0        1.965402   -1.377887   -0.174570
     24          6           0        3.190004   -1.508547    0.478017
     25          6           0        1.461496   -2.456008   -0.912094
     26          6           0        3.903051   -2.696891    0.390217
     27          6           0        2.178621   -3.638306   -0.974610
     28          6           0        3.402953   -3.775056   -0.332839
     29          1           0        3.600761   -0.690157    1.062074
     30          1           0        0.514840   -2.358097   -1.435231
     31          1           0        1.782807   -4.471654   -1.551437
     32          1           0        3.963923   -4.706428   -0.398055
     33          6           0        1.972861    1.068372   -0.045814
     34          6           0        2.971482    1.350948   -0.972341
     35          6           0        1.683086    2.012203    0.939258
     36          6           0        3.676780    2.543988   -0.910119
     37          6           0        2.365608    3.214996    0.992156
     38          6           0        3.371443    3.483300    0.069272
     39          1           0        3.205268    0.621566   -1.744392
     40          1           0        0.904271    1.798314    1.667748
     41          1           0        4.460878    2.747602   -1.639197
     42          1           0        2.139895    3.954598    1.756001
     43          8           0        4.022986    4.680331    0.173244
     44          1           0        4.695287    4.738350   -0.517835
     45          8           0        5.097214   -2.751708    1.053752
     46          1           0        5.479651   -3.631493    0.941087
 ---------------------------------------------------------------------
 Rotational constants (GHZ):           0.2747871           0.0974680           0.0767524
 Leave Link  202 at Sun Jan 17 18:15:04 2021, MaxMem=  4026531840 cpu:               0.3 elap:               0.1
 (Enter /opt/ohpc/pub/libs/gaussian/g16-A.03/sandybridge/g16/l301.exe)
 Standard basis: TZVP (5D, 7F)
 Ernie: Thresh=  0.10000D-02 Tol=  0.10000D-05 Strict=F.
 There are   654 symmetry adapted cartesian basis functions of A   symmetry.
 There are   627 symmetry adapted basis functions of A   symmetry.
   627 basis functions,  1097 primitive gaussians,   654 cartesian basis functions
    93 alpha electrons       93 beta electrons
       nuclear repulsion energy      2186.7759231597 Hartrees.
 IExCor=33909 DFT=T Ex+Corr=LC-wHPBE ExCW=0 ScaHFX=  1.000000
 ScaDFX=  1.000000  1.000000  1.000000  1.000000 ScalE2=  1.000000  1.000000
 IRadAn=      5 IRanWt=     -1 IRanGd=            0 ICorTp=0 IEmpDi=  4
 HFx  wShort=  0.000000 wLong=  0.328100 cFull=  0.000000 cShort=  0.000000 cLong=  1.000000
 DFx  wShort=  0.000000 wLong=  0.328100 cFull=  0.000000 cShort=  1.000000 cLong=  0.000000
 NAtoms=   46 NActive=   46 NUniq=   46 SFac= 1.00D+00 NAtFMM=   60 NAOKFM=F Big=F
 Integral buffers will be    131072 words long.
 Raffenetti 2 integral format.
 Two-electron integral symmetry is turned on.
 Leave Link  301 at Sun Jan 17 18:15:04 2021, MaxMem=  4026531840 cpu:               0.5 elap:               0.1
 (Enter /opt/ohpc/pub/libs/gaussian/g16-A.03/sandybridge/g16/l302.exe)
 NPDir=0 NMtPBC=     1 NCelOv=     1 NCel=       1 NClECP=     1 NCelD=      1
         NCelK=      1 NCelE2=     1 NClLst=     1 CellRange=     0.0.
 One-electron integrals computed using PRISM.
 One-electron integral symmetry used in STVInt
 NBasis=   627 RedAO= T EigKep=  6.83D-06  NBF=   627
 NBsUse=   627 1.00D-06 EigRej= -1.00D+00 NBFU=   627
 Precomputing XC quadrature grid using
 IXCGrd= 4 IRadAn=           5 IRanWt=          -1 IRanGd=           0 AccXCQ= 0.00D+00.
 Generated NRdTot=       0 NPtTot=           0 NUsed=           0 NTot=          32
 NSgBfM=   623   621   621   623   623 MxSgAt=    46 MxSgA2=    46.
 Leave Link  302 at Sun Jan 17 18:15:05 2021, MaxMem=  4026531840 cpu:               9.3 elap:               1.2
 (Enter /opt/ohpc/pub/libs/gaussian/g16-A.03/sandybridge/g16/l303.exe)
 DipDrv:  MaxL=1.
 Leave Link  303 at Sun Jan 17 18:15:05 2021, MaxMem=  4026531840 cpu:               0.8 elap:               0.1
 (Enter /opt/ohpc/pub/libs/gaussian/g16-A.03/sandybridge/g16/l401.exe)
 ExpMin= 9.52D-02 ExpMax= 2.70D+04 ExpMxC= 9.22D+02 IAcc=3 IRadAn=         5 AccDes= 0.00D+00
 Harris functional with IExCor=33909 and IRadAn=       5 diagonalized for initial guess.
 HarFok:  IExCor=33909 AccDes= 0.00D+00 IRadAn=         5 IDoV= 1 UseB2=F ITyADJ=14
 ICtDFT=  3500011 ScaDFX=  1.000000  1.000000  1.000000  1.000000
 FoFCou: FMM=F IPFlag=           0 FMFlag=      100000 FMFlg1=           0
         NFxFlg=           0 DoJE=T BraDBF=F KetDBF=T FulRan=T
         wScrn=  0.000000 ICntrl=       500 IOpCl=  0 I1Cent=   200000004 NGrid=           0
         NMat0=    1 NMatS0=      1 NMatT0=    0 NMatD0=    1 NMtDS0=    0 NMtDT0=    0
 Petite list used in FoFCou.
 Harris En= -1099.64890273889    
 JPrj=0 DoOrth=F DoCkMO=F.
 Leave Link  401 at Sun Jan 17 18:15:12 2021, MaxMem=  4026531840 cpu:              55.3 elap:               7.0
 (Enter /opt/ohpc/pub/libs/gaussian/g16-A.03/sandybridge/g16/l502.exe)
 Integral symmetry usage will be decided dynamically.
 Closed shell SCF:
 Using DIIS extrapolation, IDIIS=    10.
 NGot=  4026531840 LenX=  4025664800 LenY=  4025236430
 Requested convergence on RMS density matrix=1.00D-06 within  32 cycles.
 Requested convergence on MAX density matrix=1.00D-04.
 Requested convergence on             energy=1.00D-04.
 Virtual orbitals will be shifted by   0.500 hartree.
 No special actions if energy rises.
 Dynamic level shift is on during FON iterations.

 Cycle   1  Pass 1  IDiag  1:
 FoFJK:  IHMeth= 1 ICntrl=       0 DoSepK=T KAlg= 0 I1Cent=           0 FoldK=F
 IRaf=         1 NMat=       1 IRICut=       1 DoRegI=T DoRafI=F ISym2E= 0 IDoP0=0 IntGTp=1.
 FoFCou: FMM=F IPFlag=           0 FMFlag=      100000 FMFlg1=           0
         NFxFlg=           0 DoJE=T BraDBF=F KetDBF=F FulRan=T
         wScrn=  0.000000 ICntrl=       500 IOpCl=  0 I1Cent=           0 NGrid=           0
         NMat0=    1 NMatS0=      1 NMatT0=    0 NMatD0=    1 NMtDS0=    0 NMtDT0=    0
 Symmetry not used in FoFCou.
 E= -1130.33183240584    
 DIIS: error= 1.75D-02 at cycle   1 NSaved=   1.
 NSaved= 1 IEnMin= 1 EnMin= -1130.33183240584     IErMin= 1 ErrMin= 1.75D-02
 ErrMax= 1.75D-02  0.00D+00 EMaxC= 1.00D+00 BMatC= 3.66D-01 BMatP= 3.66D-01
 IDIUse=1 WtCom= 1.00D+00 WtEn= 0.00D+00
 Coeff-Com:  0.100D+01
 Coeff:      0.100D+01
 Gap=     0.338 Goal=   None    Shift=    0.500
 T= 1173. Gap= 0.797 NK=0 IS=   94 IE=  627 IFin=   93
          NO(<0.9)=   0  NV(>0.1)=   0     93.00e < EF      0.00e >EF  Err=0.0D+00
 GapD=    0.338 DampG=1.000 DampE=0.500 DampFc=0.5000 IDamp=-1.
 Damping current iteration by 5.00D-01
 RMSDP=2.28D-03 MaxDP=1.50D-01              OVMax= 6.99D-02

 Cycle   2  Pass 1  IDiag  1:
 E= -1130.53295512822     Delta-E=       -0.201122722382 Rises=F Damp=T
 DIIS: error= 8.20D-03 at cycle   2 NSaved=   2.
 NSaved= 2 IEnMin= 2 EnMin= -1130.53295512822     IErMin= 2 ErrMin= 8.20D-03
 ErrMax= 8.20D-03  0.00D+00 EMaxC= 1.00D+00 BMatC= 6.89D-02 BMatP= 3.66D-01
 IDIUse=1 WtCom= 1.00D+00 WtEn= 0.00D+00
 Coeff-Com: -0.629D+00 0.163D+01
 Coeff:     -0.629D+00 0.163D+01
 Gap=     0.312 Goal=   None    Shift=    0.500
 T= 1056. Gap= 0.794 NK=0 IS=   94 IE=  627 IFin=   93
          NO(<0.9)=   0  NV(>0.1)=   0     93.00e < EF      0.00e >EF  Err=0.0D+00
 GapD=    0.312 DampG=1.000 DampE=1.000 DampFc=1.0000 IDamp=-1.
 RMSDP=1.52D-03 MaxDP=9.78D-02 DE=-2.01D-01 OVMax= 1.53D-02

 Cycle   3  Pass 1  IDiag  1:
 E= -1130.66848728966     Delta-E=       -0.135532161444 Rises=F Damp=F
 DIIS: error= 2.24D-03 at cycle   3 NSaved=   3.
 NSaved= 3 IEnMin= 3 EnMin= -1130.66848728966     IErMin= 3 ErrMin= 2.24D-03
 ErrMax= 2.24D-03  0.00D+00 EMaxC= 1.00D+00 BMatC= 2.08D-03 BMatP= 6.89D-02
 IDIUse=1 WtCom= 1.00D+00 WtEn= 0.00D+00
 Coeff-Com:  0.473D-02 0.809D-01 0.914D+00
 Coeff:      0.473D-02 0.809D-01 0.914D+00
 Gap=     0.303 Goal=   None    Shift=    0.500
 T=  795. Gap= 0.802 NK=0 IS=   94 IE=  627 IFin=   93
          NO(<0.9)=   0  NV(>0.1)=   0     93.00e < EF      0.00e >EF  Err=0.0D+00
 GapD=    0.303 DampG=1.000 DampE=1.000 DampFc=1.0000 IDamp=-1.
 RMSDP=2.51D-04 MaxDP=9.42D-03 DE=-1.36D-01 OVMax= 1.32D-02

 Cycle   4  Pass 1  IDiag  1:
 E= -1130.67093500098     Delta-E=       -0.002447711322 Rises=F Damp=F
 DIIS: error= 1.21D-03 at cycle   4 NSaved=   4.
 NSaved= 4 IEnMin= 4 EnMin= -1130.67093500098     IErMin= 4 ErrMin= 1.21D-03
 ErrMax= 1.21D-03  0.00D+00 EMaxC= 1.00D+00 BMatC= 3.73D-04 BMatP= 2.08D-03
 IDIUse=1 WtCom= 1.00D+00 WtEn= 0.00D+00
 Coeff-Com:  0.638D-01-0.118D+00 0.222D-01 0.103D+01
 Coeff:      0.638D-01-0.118D+00 0.222D-01 0.103D+01
 Gap=     0.302 Goal=   None    Shift=    0.500
 T=  269. Gap= 0.802 NK=0 IS=   94 IE=  627 IFin=   93
          NO(<0.9)=   0  NV(>0.1)=   0     93.00e < EF      0.00e >EF  Err=0.0D+00
 GapD=    0.302 DampG=1.000 DampE=1.000 DampFc=1.0000 IDamp=-1.
 RMSDP=1.16D-04 MaxDP=4.83D-03 DE=-2.45D-03 OVMax= 9.56D-03

 Cycle   5  Pass 1  IDiag  1:
 E= -1130.67166339608     Delta-E=       -0.000728395098 Rises=F Damp=F
 DIIS: error= 9.49D-04 at cycle   5 NSaved=   5.
 NSaved= 5 IEnMin= 5 EnMin= -1130.67166339608     IErMin= 5 ErrMin= 9.49D-04
 ErrMax= 9.49D-04  0.00D+00 EMaxC= 1.00D+00 BMatC= 1.02D-04 BMatP= 3.73D-04
 IDIUse=1 WtCom= 1.00D+00 WtEn= 0.00D+00
 Coeff-Com:  0.925D-02-0.303D-01-0.116D+00-0.216D+00 0.135D+01
 Coeff:      0.925D-02-0.303D-01-0.116D+00-0.216D+00 0.135D+01
 Gap=     0.303 Goal=   None    Shift=    0.500
 RMSDP=7.70D-05 MaxDP=3.16D-03 DE=-7.28D-04 OVMax= 7.46D-03

 Cycle   6  Pass 1  IDiag  1:
 E= -1130.67199226921     Delta-E=       -0.000328873130 Rises=F Damp=F
 DIIS: error= 7.76D-04 at cycle   6 NSaved=   6.
 NSaved= 6 IEnMin= 6 EnMin= -1130.67199226921     IErMin= 6 ErrMin= 7.76D-04
 ErrMax= 7.76D-04  0.00D+00 EMaxC= 1.00D+00 BMatC= 3.76D-05 BMatP= 1.02D-04
 IDIUse=1 WtCom= 1.00D+00 WtEn= 0.00D+00
 Coeff-Com: -0.175D-01 0.265D-01-0.516D-01-0.345D+00 0.116D+00 0.127D+01
 Coeff:     -0.175D-01 0.265D-01-0.516D-01-0.345D+00 0.116D+00 0.127D+01
 Gap=     0.304 Goal=   None    Shift=    0.500
 RMSDP=4.37D-05 MaxDP=1.53D-03 DE=-3.29D-04 OVMax= 6.25D-03

 Cycle   7  Pass 1  IDiag  1:
 E= -1130.67214918542     Delta-E=       -0.000156916204 Rises=F Damp=F
 DIIS: error= 4.98D-04 at cycle   7 NSaved=   7.
 NSaved= 7 IEnMin= 7 EnMin= -1130.67214918542     IErMin= 7 ErrMin= 4.98D-04
 ErrMax= 4.98D-04  0.00D+00 EMaxC= 1.00D+00 BMatC= 1.53D-05 BMatP= 3.76D-05
 IDIUse=1 WtCom= 1.00D+00 WtEn= 0.00D+00
 Coeff-Com: -0.902D-02 0.178D-01 0.197D-01-0.127D-01-0.421D+00-0.422D+00
 Coeff-Com:  0.183D+01
 Coeff:     -0.902D-02 0.178D-01 0.197D-01-0.127D-01-0.421D+00-0.422D+00
 Coeff:      0.183D+01
 Gap=     0.304 Goal=   None    Shift=    0.500
 RMSDP=3.14D-05 MaxDP=1.23D-03 DE=-1.57D-04 OVMax= 4.81D-03

 Cycle   8  Pass 1  IDiag  1:
 E= -1130.67222527223     Delta-E=       -0.000076086816 Rises=F Damp=F
 DIIS: error= 3.36D-04 at cycle   8 NSaved=   8.
 NSaved= 8 IEnMin= 8 EnMin= -1130.67222527223     IErMin= 8 ErrMin= 3.36D-04
 ErrMax= 3.36D-04  0.00D+00 EMaxC= 1.00D+00 BMatC= 6.71D-06 BMatP= 1.53D-05
 IDIUse=1 WtCom= 1.00D+00 WtEn= 0.00D+00
 Coeff-Com:  0.930D-03 0.213D-03 0.187D-01 0.935D-01-0.162D+00-0.767D+00
 Coeff-Com:  0.434D+00 0.138D+01
 Coeff:      0.930D-03 0.213D-03 0.187D-01 0.935D-01-0.162D+00-0.767D+00
 Coeff:      0.434D+00 0.138D+01
 Gap=     0.304 Goal=   None    Shift=    0.500
 RMSDP=1.92D-05 MaxDP=6.70D-04 DE=-7.61D-05 OVMax= 3.38D-03

 Cycle   9  Pass 1  IDiag  1:
 E= -1130.67225828040     Delta-E=       -0.000033008165 Rises=F Damp=F
 DIIS: error= 2.12D-04 at cycle   9 NSaved=   9.
 NSaved= 9 IEnMin= 9 EnMin= -1130.67225828040     IErMin= 9 ErrMin= 2.12D-04
 ErrMax= 2.12D-04  0.00D+00 EMaxC= 1.00D+00 BMatC= 2.72D-06 BMatP= 6.71D-06
 IDIUse=1 WtCom= 1.00D+00 WtEn= 0.00D+00
 Coeff-Com:  0.237D-02-0.459D-02-0.116D-01 0.119D-01 0.211D+00-0.172D+00
 Coeff-Com: -0.606D+00-0.551D+00 0.212D+01
 Coeff:      0.237D-02-0.459D-02-0.116D-01 0.119D-01 0.211D+00-0.172D+00
 Coeff:     -0.606D+00-0.551D+00 0.212D+01
 Gap=     0.304 Goal=   None    Shift=    0.500
 RMSDP=1.24D-05 MaxDP=4.72D-04 DE=-3.30D-05 OVMax= 2.41D-03

 Cycle  10  Pass 1  IDiag  1:
 E= -1130.67227250203     Delta-E=       -0.000014221637 Rises=F Damp=F
 DIIS: error= 1.26D-04 at cycle  10 NSaved=  10.
 NSaved=10 IEnMin=10 EnMin= -1130.67227250203     IErMin=10 ErrMin= 1.26D-04
 ErrMax= 1.26D-04  0.00D+00 EMaxC= 1.00D+00 BMatC= 1.25D-06 BMatP= 2.72D-06
 IDIUse=1 WtCom= 1.00D+00 WtEn= 0.00D+00
 Coeff-Com:  0.298D-04-0.660D-03-0.125D-01-0.137D-01 0.167D+00-0.102D-01
 Coeff-Com: -0.353D+00-0.601D+00 0.568D+00 0.126D+01
 Coeff:      0.298D-04-0.660D-03-0.125D-01-0.137D-01 0.167D+00-0.102D-01
 Coeff:     -0.353D+00-0.601D+00 0.568D+00 0.126D+01
 Gap=     0.304 Goal=   None    Shift=    0.500
 RMSDP=7.16D-06 MaxDP=2.24D-04 DE=-1.42D-05 OVMax= 1.53D-03

 Cycle  11  Pass 1  IDiag  1:
 E= -1130.67227808887     Delta-E=       -0.000005586836 Rises=F Damp=F
 DIIS: error= 7.46D-05 at cycle  11 NSaved=  11.
 NSaved=11 IEnMin=11 EnMin= -1130.67227808887     IErMin=11 ErrMin= 7.46D-05
 ErrMax= 7.46D-05  0.00D+00 EMaxC= 1.00D+00 BMatC= 4.98D-07 BMatP= 1.25D-06
 IDIUse=1 WtCom= 1.00D+00 WtEn= 0.00D+00
 Coeff-Com: -0.161D-02 0.274D-02-0.774D-03-0.949D-02-0.178D-01 0.318D-01
 Coeff-Com:  0.162D+00-0.570D-01-0.630D+00-0.724D+00 0.224D+01
 Coeff:     -0.161D-02 0.274D-02-0.774D-03-0.949D-02-0.178D-01 0.318D-01
 Coeff:      0.162D+00-0.570D-01-0.630D+00-0.724D+00 0.224D+01
 Gap=     0.304 Goal=   None    Shift=    0.500
 RMSDP=4.70D-06 MaxDP=1.50D-04 DE=-5.59D-06 OVMax= 1.03D-03

 Cycle  12  Pass 1  IDiag  1:
 E= -1130.67228032740     Delta-E=       -0.000002238534 Rises=F Damp=F
 DIIS: error= 4.96D-05 at cycle  12 NSaved=  12.
 NSaved=12 IEnMin=12 EnMin= -1130.67228032740     IErMin=12 ErrMin= 4.96D-05
 ErrMax= 4.96D-05  0.00D+00 EMaxC= 1.00D+00 BMatC= 2.29D-07 BMatP= 4.98D-07
 IDIUse=1 WtCom= 1.00D+00 WtEn= 0.00D+00
 Coeff-Com: -0.527D-03 0.980D-03 0.272D-02 0.108D-03-0.355D-01-0.112D-01
 Coeff-Com:  0.141D+00 0.105D+00-0.162D+00-0.116D+01 0.590D+00 0.153D+01
 Coeff:     -0.527D-03 0.980D-03 0.272D-02 0.108D-03-0.355D-01-0.112D-01
 Coeff:      0.141D+00 0.105D+00-0.162D+00-0.116D+01 0.590D+00 0.153D+01
 Gap=     0.304 Goal=   None    Shift=    0.500
 RMSDP=2.81D-06 MaxDP=9.88D-05 DE=-2.24D-06 OVMax= 6.55D-04

 Cycle  13  Pass 1  IDiag  1:
 E= -1130.67228121288     Delta-E=       -0.000000885471 Rises=F Damp=F
 DIIS: error= 3.26D-05 at cycle  13 NSaved=  13.
 NSaved=13 IEnMin=13 EnMin= -1130.67228121288     IErMin=13 ErrMin= 3.26D-05
 ErrMax= 3.26D-05  0.00D+00 EMaxC= 1.00D+00 BMatC= 9.58D-08 BMatP= 2.29D-07
 IDIUse=1 WtCom= 1.00D+00 WtEn= 0.00D+00
 Coeff-Com:  0.216D-03-0.353D-03 0.114D-02 0.203D-02-0.382D-02-0.219D-01
 Coeff-Com:  0.132D-01 0.448D-01 0.206D+00-0.537D+00-0.143D+00-0.465D+00
 Coeff-Com:  0.190D+01
 Coeff:      0.216D-03-0.353D-03 0.114D-02 0.203D-02-0.382D-02-0.219D-01
 Coeff:      0.132D-01 0.448D-01 0.206D+00-0.537D+00-0.143D+00-0.465D+00
 Coeff:      0.190D+01
 Gap=     0.304 Goal=   None    Shift=    0.500
 RMSDP=1.71D-06 MaxDP=6.37D-05 DE=-8.85D-07 OVMax= 4.17D-04

 Cycle  14  Pass 1  IDiag  1:
 E= -1130.67228156081     Delta-E=       -0.000000347937 Rises=F Damp=F
 DIIS: error= 2.15D-05 at cycle  14 NSaved=  14.
 NSaved=14 IEnMin=14 EnMin= -1130.67228156081     IErMin=14 ErrMin= 2.15D-05
 ErrMax= 2.15D-05  0.00D+00 EMaxC= 1.00D+00 BMatC= 3.96D-08 BMatP= 9.58D-08
 IDIUse=1 WtCom= 1.00D+00 WtEn= 0.00D+00
 Coeff-Com:  0.201D-03-0.367D-03-0.912D-03 0.284D-03 0.143D-01-0.756D-02
 Coeff-Com: -0.423D-01-0.300D-01 0.173D+00 0.108D+00-0.139D+00-0.120D+01
 Coeff-Com:  0.490D+00 0.164D+01
 Coeff:      0.201D-03-0.367D-03-0.912D-03 0.284D-03 0.143D-01-0.756D-02
 Coeff:     -0.423D-01-0.300D-01 0.173D+00 0.108D+00-0.139D+00-0.120D+01
 Coeff:      0.490D+00 0.164D+01
 Gap=     0.304 Goal=   None    Shift=    0.500
 RMSDP=1.03D-06 MaxDP=3.97D-05 DE=-3.48D-07 OVMax= 2.68D-04

 Cycle  15  Pass 1  IDiag  1:
 E= -1130.67228169964     Delta-E=       -0.000000138826 Rises=F Damp=F
 DIIS: error= 1.40D-05 at cycle  15 NSaved=  15.
 NSaved=15 IEnMin=15 EnMin= -1130.67228169964     IErMin=15 ErrMin= 1.40D-05
 ErrMax= 1.40D-05  0.00D+00 EMaxC= 1.00D+00 BMatC= 1.52D-08 BMatP= 3.96D-08
 IDIUse=1 WtCom= 1.00D+00 WtEn= 0.00D+00
 Coeff-Com:  0.306D-04-0.657D-04-0.848D-03-0.262D-03 0.786D-02 0.182D-02
 Coeff-Com: -0.230D-01-0.259D-01 0.353D-01 0.184D+00-0.155D-01-0.619D+00
 Coeff-Com: -0.218D+00 0.204D+00 0.147D+01
 Coeff:      0.306D-04-0.657D-04-0.848D-03-0.262D-03 0.786D-02 0.182D-02
 Coeff:     -0.230D-01-0.259D-01 0.353D-01 0.184D+00-0.155D-01-0.619D+00
 Coeff:     -0.218D+00 0.204D+00 0.147D+01
 Gap=     0.304 Goal=   None    Shift=    0.500
 RMSDP=6.16D-07 MaxDP=2.41D-05 DE=-1.39D-07 OVMax= 1.71D-04

 SCF Done:  E(RLC-wHPBE) =  -1130.67228170     A.U. after   15 cycles
            NFock= 15  Conv=0.62D-06     -V/T= 2.0050
 KE= 1.125003009567D+03 PE=-7.004792830627D+03 EE= 2.562341616201D+03
 Leave Link  502 at Sun Jan 17 18:27:26 2021, MaxMem=  4026531840 cpu:            5852.5 elap:             733.5
 (Enter /opt/ohpc/pub/libs/gaussian/g16-A.03/sandybridge/g16/l508.exe)
 QCSCF skips out because SCF is already converged.
 Leave Link  508 at Sun Jan 17 18:27:26 2021, MaxMem=  4026531840 cpu:               0.1 elap:               0.0
 (Enter /opt/ohpc/pub/libs/gaussian/g16-A.03/sandybridge/g16/l601.exe)
 Copying SCF densities to generalized density rwf, IOpCl= 0 IROHF=0.

 **********************************************************************

            Population analysis using the SCF density.

 **********************************************************************

 Orbital symmetries:
       Occupied  (A) (A) (A) (A) (A) (A) (A) (A) (A) (A) (A) (A)
                 (A) (A) (A) (A) (A) (A) (A) (A) (A) (A) (A) (A)
                 (A) (A) (A) (A) (A) (A) (A) (A) (A) (A) (A) (A)
                 (A) (A) (A) (A) (A) (A) (A) (A) (A) (A) (A) (A)
                 (A) (A) (A) (A) (A) (A) (A) (A) (A) (A) (A) (A)
                 (A) (A) (A) (A) (A) (A) (A) (A) (A) (A) (A) (A)
                 (A) (A) (A) (A) (A) (A) (A) (A) (A) (A) (A) (A)
                 (A) (A) (A) (A) (A) (A) (A) (A) (A)
       Virtual   (A) (A) (A) (A) (A) (A) (A) (A) (A) (A) (A) (A)
                 (A) (A) (A) (A) (A) (A) (A) (A) (A) (A) (A) (A)
                 (A) (A) (A) (A) (A) (A) (A) (A) (A) (A) (A) (A)
                 (A) (A) (A) (A) (A) (A) (A) (A) (A) (A) (A) (A)
                 (A) (A) (A) (A) (A) (A) (A) (A) (A) (A) (A) (A)
                 (A) (A) (A) (A) (A) (A) (A) (A) (A) (A) (A) (A)
                 (A) (A) (A) (A) (A) (A) (A) (A) (A) (A) (A) (A)
                 (A) (A) (A) (A) (A) (A) (A) (A) (A) (A) (A) (A)
                 (A) (A) (A) (A) (A) (A) (A) (A) (A) (A) (A) (A)
                 (A) (A) (A) (A) (A) (A) (A) (A) (A) (A) (A) (A)
                 (A) (A) (A) (A) (A) (A) (A) (A) (A) (A) (A) (A)
                 (A) (A) (A) (A) (A) (A) (A) (A) (A) (A) (A) (A)
                 (A) (A) (A) (A) (A) (A) (A) (A) (A) (A) (A) (A)
                 (A) (A) (A) (A) (A) (A) (A) (A) (A) (A) (A) (A)
                 (A) (A) (A) (A) (A) (A) (A) (A) (A) (A) (A) (A)
                 (A) (A) (A) (A) (A) (A) (A) (A) (A) (A) (A) (A)
                 (A) (A) (A) (A) (A) (A) (A) (A) (A) (A) (A) (A)
                 (A) (A) (A) (A) (A) (A) (A) (A) (A) (A) (A) (A)
                 (A) (A) (A) (A) (A) (A) (A) (A) (A) (A) (A) (A)
                 (A) (A) (A) (A) (A) (A) (A) (A) (A) (A) (A) (A)
                 (A) (A) (A) (A) (A) (A) (A) (A) (A) (A) (A) (A)
                 (A) (A) (A) (A) (A) (A) (A) (A) (A) (A) (A) (A)
                 (A) (A) (A) (A) (A) (A) (A) (A) (A) (A) (A) (A)
                 (A) (A) (A) (A) (A) (A) (A) (A) (A) (A) (A) (A)
                 (A) (A) (A) (A) (A) (A) (A) (A) (A) (A) (A) (A)
                 (A) (A) (A) (A) (A) (A) (A) (A) (A) (A) (A) (A)
                 (A) (A) (A) (A) (A) (A) (A) (A) (A) (A) (A) (A)
                 (A) (A) (A) (A) (A) (A) (A) (A) (A) (A) (A) (A)
                 (A) (A) (A) (A) (A) (A) (A) (A) (A) (A) (A) (A)
                 (A) (A) (A) (A) (A) (A) (A) (A) (A) (A) (A) (A)
                 (A) (A) (A) (A) (A) (A) (A) (A) (A) (A) (A) (A)
                 (A) (A) (A) (A) (A) (A) (A) (A) (A) (A) (A) (A)
                 (A) (A) (A) (A) (A) (A) (A) (A) (A) (A) (A) (A)
                 (A) (A) (A) (A) (A) (A) (A) (A) (A) (A) (A) (A)
                 (A) (A) (A) (A) (A) (A) (A) (A) (A) (A) (A) (A)
                 (A) (A) (A) (A) (A) (A) (A) (A) (A) (A) (A) (A)
                 (A) (A) (A) (A) (A) (A) (A) (A) (A) (A) (A) (A)
                 (A) (A) (A) (A) (A) (A) (A) (A) (A) (A) (A) (A)
                 (A) (A) (A) (A) (A) (A) (A) (A) (A) (A) (A) (A)
                 (A) (A) (A) (A) (A) (A) (A) (A) (A) (A) (A) (A)
                 (A) (A) (A) (A) (A) (A) (A) (A) (A) (A) (A) (A)
                 (A) (A) (A) (A) (A) (A) (A) (A) (A) (A) (A) (A)
                 (A) (A) (A) (A) (A) (A) (A) (A) (A) (A) (A) (A)
                 (A) (A) (A) (A) (A) (A) (A) (A) (A) (A) (A) (A)
                 (A) (A) (A) (A) (A) (A)
 The electronic state is 1-A.
 Alpha  occ. eigenvalues --  -18.96259 -18.95969 -14.19751 -10.13614 -10.13436
 Alpha  occ. eigenvalues --  -10.11747 -10.11369 -10.10865 -10.08199 -10.07884
 Alpha  occ. eigenvalues --  -10.07839 -10.07795 -10.07691 -10.07661 -10.07232
 Alpha  occ. eigenvalues --  -10.07217 -10.07185 -10.07112 -10.07108 -10.06994
 Alpha  occ. eigenvalues --  -10.06992 -10.06968 -10.06903 -10.06893 -10.06754
 Alpha  occ. eigenvalues --  -10.06230 -10.06197  -1.16416  -1.16136  -1.07958
 Alpha  occ. eigenvalues --   -0.98750  -0.97725  -0.96997  -0.95415  -0.89482
 Alpha  occ. eigenvalues --   -0.87501  -0.87131  -0.86391  -0.86170  -0.85635
 Alpha  occ. eigenvalues --   -0.84590  -0.81632  -0.75591  -0.75021  -0.73659
 Alpha  occ. eigenvalues --   -0.72943  -0.71858  -0.70825  -0.70410  -0.68888
 Alpha  occ. eigenvalues --   -0.66622  -0.65746  -0.64873  -0.63358  -0.60880
 Alpha  occ. eigenvalues --   -0.59705  -0.59317  -0.58337  -0.57422  -0.56829
 Alpha  occ. eigenvalues --   -0.55364  -0.54922  -0.54554  -0.53996  -0.53725
 Alpha  occ. eigenvalues --   -0.53305  -0.52977  -0.52725  -0.52570  -0.52061
 Alpha  occ. eigenvalues --   -0.51315  -0.50222  -0.49554  -0.49016  -0.48068
 Alpha  occ. eigenvalues --   -0.47824  -0.47017  -0.46343  -0.45534  -0.45145
 Alpha  occ. eigenvalues --   -0.44510  -0.44311  -0.43666  -0.43155  -0.40947
 Alpha  occ. eigenvalues --   -0.37384  -0.36165  -0.35300  -0.35155  -0.34470
 Alpha  occ. eigenvalues --   -0.32681  -0.32102  -0.26824
 Alpha virt. eigenvalues --    0.03563   0.04704   0.05765   0.06512   0.07024
 Alpha virt. eigenvalues --    0.07875   0.08310   0.10873   0.11118   0.11424
 Alpha virt. eigenvalues --    0.13041   0.13669   0.14231   0.14631   0.15307
 Alpha virt. eigenvalues --    0.16064   0.16401   0.16846   0.17327   0.17941
 Alpha virt. eigenvalues --    0.18600   0.18960   0.19237   0.19832   0.20179
 Alpha virt. eigenvalues --    0.20985   0.21074   0.22794   0.23034   0.23479
 Alpha virt. eigenvalues --    0.23926   0.24486   0.24584   0.25042   0.25126
 Alpha virt. eigenvalues --    0.26528   0.27144   0.27984   0.28452   0.28899
 Alpha virt. eigenvalues --    0.29056   0.29513   0.29707   0.29826   0.30295
 Alpha virt. eigenvalues --    0.30625   0.31156   0.31312   0.31611   0.32128
 Alpha virt. eigenvalues --    0.32229   0.32522   0.32844   0.33102   0.33447
 Alpha virt. eigenvalues --    0.33619   0.33772   0.34095   0.35248   0.35672
 Alpha virt. eigenvalues --    0.36018   0.36464   0.36661   0.37195   0.37445
 Alpha virt. eigenvalues --    0.37888   0.38232   0.38429   0.38798   0.39388
 Alpha virt. eigenvalues --    0.40020   0.40490   0.40933   0.41352   0.41858
 Alpha virt. eigenvalues --    0.42362   0.42963   0.43132   0.43334   0.43717
 Alpha virt. eigenvalues --    0.44208   0.44571   0.44823   0.45058   0.45422
 Alpha virt. eigenvalues --    0.45719   0.46214   0.46776   0.46956   0.47013
 Alpha virt. eigenvalues --    0.47494   0.47874   0.48173   0.48395   0.48461
 Alpha virt. eigenvalues --    0.48912   0.49197   0.49378   0.50046   0.50590
 Alpha virt. eigenvalues --    0.50695   0.51298   0.51628   0.51741   0.51879
 Alpha virt. eigenvalues --    0.52252   0.52554   0.52806   0.53362   0.53875
 Alpha virt. eigenvalues --    0.54106   0.54289   0.54676   0.54967   0.55437
 Alpha virt. eigenvalues --    0.56123   0.56900   0.57220   0.57392   0.57606
 Alpha virt. eigenvalues --    0.58323   0.58782   0.58996   0.59158   0.59455
 Alpha virt. eigenvalues --    0.60128   0.60361   0.60600   0.61281   0.61888
 Alpha virt. eigenvalues --    0.62006   0.62995   0.63696   0.64083   0.64140
 Alpha virt. eigenvalues --    0.64544   0.65287   0.66081   0.66849   0.67597
 Alpha virt. eigenvalues --    0.67876   0.68276   0.69263   0.69473   0.70127
 Alpha virt. eigenvalues --    0.72146   0.72448   0.72666   0.73594   0.75014
 Alpha virt. eigenvalues --    0.75460   0.75588   0.75826   0.76789   0.77485
 Alpha virt. eigenvalues --    0.77941   0.78250   0.79307   0.79925   0.80313
 Alpha virt. eigenvalues --    0.80446   0.80818   0.81123   0.81613   0.81896
 Alpha virt. eigenvalues --    0.82348   0.83259   0.84213   0.84483   0.85204
 Alpha virt. eigenvalues --    0.85592   0.86550   0.87243   0.88506   0.89121
 Alpha virt. eigenvalues --    0.89963   0.91493   0.91946   0.92503   0.94291
 Alpha virt. eigenvalues --    0.95528   0.96733   0.96959   0.98914   0.99613
 Alpha virt. eigenvalues --    1.01429   1.02869   1.04821   1.20941   1.24849
 Alpha virt. eigenvalues --    1.26168   1.29597   1.31016   1.31289   1.32523
 Alpha virt. eigenvalues --    1.32875   1.33302   1.33920   1.33974   1.34248
 Alpha virt. eigenvalues --    1.34595   1.34967   1.35453   1.35773   1.36103
 Alpha virt. eigenvalues --    1.36498   1.37476   1.37905   1.38577   1.38853
 Alpha virt. eigenvalues --    1.38993   1.39677   1.39965   1.40422   1.40710
 Alpha virt. eigenvalues --    1.41048   1.41185   1.41589   1.41807   1.42408
 Alpha virt. eigenvalues --    1.43344   1.44175   1.44499   1.45056   1.45534
 Alpha virt. eigenvalues --    1.45732   1.47915   1.48241   1.50415   1.50932
 Alpha virt. eigenvalues --    1.51087   1.51426   1.51801   1.51890   1.52136
 Alpha virt. eigenvalues --    1.52577   1.53153   1.53799   1.53845   1.54046
 Alpha virt. eigenvalues --    1.54085   1.54276   1.54465   1.55102   1.55526
 Alpha virt. eigenvalues --    1.55717   1.56634   1.56760   1.56828   1.57166
 Alpha virt. eigenvalues --    1.57350   1.57822   1.58325   1.58730   1.59062
 Alpha virt. eigenvalues --    1.60029   1.60123   1.60952   1.61751   1.61900
 Alpha virt. eigenvalues --    1.62064   1.62524   1.62778   1.63165   1.63397
 Alpha virt. eigenvalues --    1.63430   1.64074   1.64324   1.64389   1.64710
 Alpha virt. eigenvalues --    1.65029   1.65787   1.66084   1.66652   1.67447
 Alpha virt. eigenvalues --    1.67548   1.68069   1.68511   1.69223   1.69610
 Alpha virt. eigenvalues --    1.70830   1.72062   1.72826   1.74226   1.75446
 Alpha virt. eigenvalues --    1.76214   1.76766   1.76886   1.77776   1.78945
 Alpha virt. eigenvalues --    1.81287   1.83046   1.84433   1.84757   1.85453
 Alpha virt. eigenvalues --    1.85869   1.86380   1.86665   1.87099   1.87613
 Alpha virt. eigenvalues --    1.87962   1.88424   1.88739   1.89063   1.89901
 Alpha virt. eigenvalues --    1.90080   1.90179   1.91193   1.91540   1.92424
 Alpha virt. eigenvalues --    1.93156   1.93583   1.95492   1.96072   1.96975
 Alpha virt. eigenvalues --    1.97216   1.97585   1.97899   1.98620   1.98933
 Alpha virt. eigenvalues --    1.99232   1.99567   2.00094   2.00293   2.00684
 Alpha virt. eigenvalues --    2.01424   2.02178   2.02444   2.02793   2.02860
 Alpha virt. eigenvalues --    2.03187   2.03674   2.04320   2.04743   2.05435
 Alpha virt. eigenvalues --    2.06982   2.07283   2.08414   2.08844   2.09308
 Alpha virt. eigenvalues --    2.09628   2.10489   2.10728   2.11195   2.11721
 Alpha virt. eigenvalues --    2.12938   2.14426   2.14764   2.16401   2.18220
 Alpha virt. eigenvalues --    2.19393   2.20354   2.21442   2.22757   2.26228
 Alpha virt. eigenvalues --    2.27985   2.28722   2.30108   2.30596   2.31926
 Alpha virt. eigenvalues --    2.33248   2.34205   2.34623   2.35727   2.36048
 Alpha virt. eigenvalues --    2.37489   2.38479   2.38578   2.39080   2.39727
 Alpha virt. eigenvalues --    2.40315   2.40628   2.40916   2.41348   2.41465
 Alpha virt. eigenvalues --    2.42145   2.42373   2.43145   2.43456   2.43774
 Alpha virt. eigenvalues --    2.44007   2.44395   2.45255   2.45680   2.46239
 Alpha virt. eigenvalues --    2.46436   2.46521   2.46995   2.47779   2.47920
 Alpha virt. eigenvalues --    2.48298   2.48876   2.50001   2.54563   2.55501
 Alpha virt. eigenvalues --    2.56780   2.57781   2.58938   2.59083   2.59819
 Alpha virt. eigenvalues --    2.60975   2.61382   2.62191   2.63300   2.65037
 Alpha virt. eigenvalues --    2.65246   2.65501   2.67049   2.68827   2.69333
 Alpha virt. eigenvalues --    2.69763   2.70102   2.70752   2.71814   2.72708
 Alpha virt. eigenvalues --    2.73353   2.73901   2.74042   2.74405   2.74888
 Alpha virt. eigenvalues --    2.75718   2.76586   2.77226   2.78206   2.79018
 Alpha virt. eigenvalues --    2.79330   2.81060   2.81966   2.83501   2.85043
 Alpha virt. eigenvalues --    2.86048   2.87279   2.87352   2.88224   2.89926
 Alpha virt. eigenvalues --    2.90238   2.91225   2.92331   2.94105   2.94911
 Alpha virt. eigenvalues --    2.96562   2.97165   3.01802   3.02216   3.02860
 Alpha virt. eigenvalues --    3.03660   3.05101   3.05948   3.07091   3.07681
 Alpha virt. eigenvalues --    3.07899   3.08367   3.09695   3.10923   3.11648
 Alpha virt. eigenvalues --    3.11964   3.12506   3.12872   3.13564   3.15412
 Alpha virt. eigenvalues --    3.16695   3.17244   3.18673   3.18813   3.20278
 Alpha virt. eigenvalues --    3.21552   3.22182   3.23187   3.24642   3.25233
 Alpha virt. eigenvalues --    3.25478   3.26759   3.27759   3.28192   3.29148
 Alpha virt. eigenvalues --    3.29753   3.31358   3.32002   3.32903   3.34331
 Alpha virt. eigenvalues --    3.35523   3.36983   3.37715   3.38519   3.40621
 Alpha virt. eigenvalues --    3.42450   3.44558   3.45448   3.47801   3.48391
 Alpha virt. eigenvalues --    3.49278   3.49405   3.55111   3.62146   3.63275
 Alpha virt. eigenvalues --    3.64426   3.66001   3.66550   3.67126   3.80269
 Alpha virt. eigenvalues --    3.88613   3.92323   3.99457   4.14767   4.15559
 Alpha virt. eigenvalues --    4.39855   4.40367  21.16929  21.32275  21.34645
 Alpha virt. eigenvalues --   21.41478  21.70976  21.76882  21.78813  21.81907
 Alpha virt. eigenvalues --   21.83704  21.84884  21.90998  21.94144  21.99769
 Alpha virt. eigenvalues --   22.02478  22.04582  22.05194  22.06989  22.08353
 Alpha virt. eigenvalues --   22.11459  22.12870  22.16853  22.18380  22.23205
 Alpha virt. eigenvalues --   22.26529  32.14343  43.32681  43.34411
          Condensed to atoms (all electrons):
               1          2          3          4          5          6
     1  C    4.948589   0.508659   0.443584  -0.035007  -0.041008  -0.088499
     2  C    0.508659   4.934942  -0.048454   0.507700  -0.050275  -0.047243
     3  C    0.443584  -0.048454   5.110708  -0.087354   0.479271  -0.044252
     4  C   -0.035007   0.507700  -0.087354   4.951859  -0.040089   0.440143
     5  C   -0.041008  -0.050275   0.479271  -0.040089   5.278191   0.477211
     6  C   -0.088499  -0.047243  -0.044252   0.440143   0.477211   5.111152
     7  H   -0.045816   0.411508   0.013855  -0.045876  -0.003308   0.013875
     8  H   -0.025633   0.007168   0.394106  -0.000993  -0.036366   0.011483
     9  H    0.009698  -0.044701  -0.000040   0.406823   0.011183  -0.039795
    10  H   -0.001071   0.007245   0.011692  -0.025859  -0.036074   0.393944
    11  C    0.020811   0.004077  -0.087952   0.018940   0.168271  -0.084074
    12  C   -0.000331   0.000125   0.021693   0.002402  -0.123770  -0.010355
    13  C    0.001838   0.000093  -0.012067   0.000202  -0.127002   0.022282
    14  C    0.000203  -0.000026  -0.000661  -0.000311   0.039148   0.001525
    15  C   -0.000099  -0.000030   0.002430   0.000166   0.041208  -0.000922
    16  C   -0.000069   0.000015   0.000014  -0.000035  -0.013426   0.000687
    17  H   -0.000042   0.000075  -0.000233   0.000553  -0.015914   0.001979
    18  H    0.000351   0.000068   0.001620   0.000008  -0.015564  -0.000185
    19  H   -0.000000   0.000000   0.000008  -0.000004  -0.000740  -0.000048
    20  H   -0.000002   0.000000  -0.000026  -0.000000  -0.000552   0.000003
    21  H    0.406654  -0.044672  -0.039497   0.009704   0.011135  -0.000075
    22  N   -0.000000   0.000000   0.000010  -0.000000  -0.000272   0.000006
    23  C   -0.000000   0.000000  -0.000012   0.000000  -0.000058   0.000009
    24  C    0.000000   0.000000  -0.000000  -0.000000  -0.000001   0.000000
    25  C   -0.000000   0.000000   0.000005   0.000000  -0.000006  -0.000010
    26  C   -0.000000   0.000000  -0.000000   0.000000  -0.000000   0.000000
    27  C   -0.000000  -0.000000   0.000000   0.000000   0.000002  -0.000000
    28  C    0.000000  -0.000000   0.000000  -0.000000   0.000000   0.000000
    29  H   -0.000000   0.000000  -0.000000   0.000000  -0.000000   0.000000
    30  H   -0.000000  -0.000000   0.000001   0.000000  -0.000031   0.000000
    31  H   -0.000000   0.000000  -0.000000  -0.000000  -0.000000  -0.000000
    32  H    0.000000  -0.000000   0.000000  -0.000000  -0.000000   0.000000
    33  C    0.000000   0.000000   0.000003  -0.000001  -0.000092  -0.000009
    34  C   -0.000000   0.000000   0.000000   0.000000  -0.000001   0.000000
    35  C    0.000000   0.000000  -0.000007  -0.000000  -0.000056   0.000005
    36  C   -0.000000  -0.000000  -0.000000   0.000000   0.000000   0.000000
    37  C    0.000000  -0.000000  -0.000000   0.000000   0.000005  -0.000000
    38  C    0.000000   0.000000   0.000000   0.000000  -0.000001   0.000000
    39  H    0.000000   0.000000   0.000000  -0.000000  -0.000000  -0.000000
    40  H    0.000000   0.000000   0.000002  -0.000000  -0.000061   0.000001
    41  H   -0.000000   0.000000  -0.000000  -0.000000  -0.000000  -0.000000
    42  H    0.000000   0.000000  -0.000000  -0.000000  -0.000000  -0.000000
    43  O    0.000000   0.000000  -0.000000  -0.000000   0.000000  -0.000000
    44  H   -0.000000   0.000000  -0.000000  -0.000000  -0.000000  -0.000000
    45  O   -0.000000  -0.000000  -0.000000  -0.000000   0.000000  -0.000000
    46  H   -0.000000   0.000000  -0.000000  -0.000000  -0.000000   0.000000
               7          8          9         10         11         12
     1  C   -0.045816  -0.025633   0.009698  -0.001071   0.020811  -0.000331
     2  C    0.411508   0.007168  -0.044701   0.007245   0.004077   0.000125
     3  C    0.013855   0.394106  -0.000040   0.011692  -0.087952   0.021693
     4  C   -0.045876  -0.000993   0.406823  -0.025859   0.018940   0.002402
     5  C   -0.003308  -0.036366   0.011183  -0.036074   0.168271  -0.123770
     6  C    0.013875   0.011483  -0.039795   0.393944  -0.084074  -0.010355
     7  H    0.543020  -0.000160  -0.005740  -0.000160  -0.000157  -0.000005
     8  H   -0.000160   0.516157   0.000026  -0.000147  -0.014835  -0.000161
     9  H   -0.005740   0.000026   0.546225  -0.004481  -0.001203  -0.000015
    10  H   -0.000160  -0.000147  -0.004481   0.516429  -0.014492   0.003064
    11  C   -0.000157  -0.014835  -0.001203  -0.014492   5.355433   0.429443
    12  C   -0.000005  -0.000161  -0.000015   0.003064   0.429443   5.326190
    13  C   -0.000005   0.003081   0.000013  -0.000247   0.449017   0.001958
    14  C    0.000000  -0.000090  -0.000009   0.000788  -0.029611   0.270582
    15  C    0.000000   0.001053  -0.000001  -0.000064  -0.041377  -0.139364
    16  C   -0.000000   0.000047  -0.000000   0.000057  -0.103931   0.006161
    17  H   -0.000002  -0.000010   0.000004  -0.000102  -0.051730   0.392971
    18  H   -0.000002  -0.000066  -0.000000  -0.000013  -0.052062   0.012775
    19  H    0.000000  -0.000000  -0.000000  -0.000003   0.008748  -0.034242
    20  H    0.000000  -0.000004   0.000000   0.000000   0.008142   0.000665
    21  H   -0.005735  -0.004460  -0.000181   0.000026  -0.001189   0.000013
    22  N   -0.000000  -0.000002  -0.000000  -0.000001   0.002946   0.019975
    23  C   -0.000000   0.000000  -0.000000   0.000000   0.000129  -0.001775
    24  C    0.000000  -0.000000  -0.000000   0.000000   0.000079  -0.000427
    25  C    0.000000   0.000000   0.000000  -0.000001  -0.000720   0.002700
    26  C    0.000000  -0.000000  -0.000000   0.000000   0.000016  -0.000072
    27  C    0.000000   0.000000   0.000000  -0.000000  -0.000107   0.000098
    28  C   -0.000000   0.000000   0.000000   0.000000   0.000010  -0.000004
    29  H   -0.000000   0.000000  -0.000000   0.000000   0.000000   0.000006
    30  H    0.000000   0.000000   0.000000   0.000000   0.000234   0.000597
    31  H   -0.000000  -0.000000  -0.000000  -0.000000  -0.000004   0.000002
    32  H   -0.000000   0.000000   0.000000   0.000000  -0.000000   0.000000
    33  C   -0.000000   0.000000  -0.000000  -0.000000   0.001897  -0.007451
    34  C    0.000000   0.000000  -0.000000  -0.000000   0.000241   0.001869
    35  C    0.000000  -0.000002  -0.000000   0.000001  -0.002312  -0.006592
    36  C   -0.000000  -0.000000   0.000000  -0.000000   0.000056   0.000013
    37  C    0.000000  -0.000000   0.000000   0.000000  -0.000068  -0.000321
    38  C   -0.000000   0.000000  -0.000000   0.000000  -0.000021  -0.000079
    39  H   -0.000000   0.000000  -0.000000   0.000000  -0.000006  -0.000020
    40  H   -0.000000   0.000001  -0.000000   0.000000   0.000174  -0.002067
    41  H   -0.000000  -0.000000  -0.000000   0.000000  -0.000000  -0.000003
    42  H   -0.000000  -0.000000   0.000000   0.000000   0.000002   0.000010
    43  O    0.000000   0.000000   0.000000  -0.000000   0.000000   0.000000
    44  H    0.000000  -0.000000  -0.000000  -0.000000  -0.000000   0.000000
    45  O    0.000000  -0.000000   0.000000  -0.000000  -0.000000   0.000000
    46  H    0.000000  -0.000000  -0.000000   0.000000   0.000000  -0.000000
              13         14         15         16         17         18
     1  C    0.001838   0.000203  -0.000099  -0.000069  -0.000042   0.000351
     2  C    0.000093  -0.000026  -0.000030   0.000015   0.000075   0.000068
     3  C   -0.012067  -0.000661   0.002430   0.000014  -0.000233   0.001620
     4  C    0.000202  -0.000311   0.000166  -0.000035   0.000553   0.000008
     5  C   -0.127002   0.039148   0.041208  -0.013426  -0.015914  -0.015564
     6  C    0.022282   0.001525  -0.000922   0.000687   0.001979  -0.000185
     7  H   -0.000005   0.000000   0.000000  -0.000000  -0.000002  -0.000002
     8  H    0.003081  -0.000090   0.001053   0.000047  -0.000010  -0.000066
     9  H    0.000013  -0.000009  -0.000001  -0.000000   0.000004  -0.000000
    10  H   -0.000247   0.000788  -0.000064   0.000057  -0.000102  -0.000013
    11  C    0.449017  -0.029611  -0.041377  -0.103931  -0.051730  -0.052062
    12  C    0.001958   0.270582  -0.139364   0.006161   0.392971   0.012775
    13  C    5.297284  -0.143688   0.288073  -0.009490   0.012672   0.394729
    14  C   -0.143688   5.340930  -0.075473   0.361594  -0.015123  -0.001296
    15  C    0.288073  -0.075473   5.363251   0.380141  -0.001122  -0.016482
    16  C   -0.009490   0.361594   0.380141   5.403235   0.012618   0.012256
    17  H    0.012672  -0.015123  -0.001122   0.012618   0.521349  -0.000093
    18  H    0.394729  -0.001296  -0.016482   0.012256  -0.000093   0.523174
    19  H    0.000839   0.394765   0.007222  -0.029734  -0.004231   0.000010
    20  H   -0.020905   0.006681   0.390044  -0.032362   0.000004  -0.004141
    21  H   -0.000013  -0.000001  -0.000008  -0.000000  -0.000000   0.000003
    22  N    0.020720  -0.011704  -0.004170   0.143216  -0.000402  -0.000452
    23  C    0.001425  -0.014106   0.017442  -0.051154   0.000057   0.000068
    24  C    0.001494  -0.013359   0.025496  -0.012076   0.000002  -0.000015
    25  C   -0.009436   0.027293  -0.081676   0.028635  -0.000034  -0.000095
    26  C    0.000059  -0.000524   0.002973  -0.003802   0.000000  -0.000002
    27  C   -0.000637   0.000763  -0.008490   0.001657  -0.000001   0.000008
    28  C   -0.000187   0.000389  -0.001370   0.003445  -0.000000  -0.000002
    29  H   -0.000027  -0.000132  -0.000017  -0.000461  -0.000000  -0.000000
    30  H   -0.002170  -0.000760  -0.000772   0.000395   0.000005   0.000008
    31  H    0.000023  -0.000031  -0.000057  -0.000088   0.000000  -0.000000
    32  H   -0.000001   0.000001  -0.000013   0.000021  -0.000000   0.000000
    33  C   -0.004850   0.037326  -0.011036  -0.063491  -0.000030   0.000037
    34  C   -0.000886   0.016851  -0.011829  -0.022102  -0.000056  -0.000001
    35  C    0.005708  -0.068290   0.014687   0.027857   0.000076  -0.000011
    36  C   -0.000090   0.002863   0.000107  -0.001978  -0.000007   0.000000
    37  C    0.000202  -0.004509   0.001227  -0.000033   0.000029  -0.000001
    38  C    0.000022  -0.002127   0.000037   0.001589  -0.000001   0.000000
    39  H    0.000013   0.000832  -0.000437  -0.001567  -0.000000   0.000000
    40  H    0.000725   0.000644  -0.002278  -0.001313  -0.000018   0.000003
    41  H    0.000000  -0.000038   0.000002  -0.000008   0.000000  -0.000000
    42  H   -0.000003   0.000155  -0.000027  -0.000179  -0.000000   0.000000
    43  O   -0.000000   0.000009   0.000000  -0.000008  -0.000000  -0.000000
    44  H    0.000000  -0.000000   0.000000  -0.000001   0.000000   0.000000
    45  O    0.000001  -0.000001   0.000015  -0.000003   0.000000  -0.000000
    46  H    0.000000  -0.000000   0.000003  -0.000007   0.000000  -0.000000
              19         20         21         22         23         24
     1  C   -0.000000  -0.000002   0.406654  -0.000000  -0.000000   0.000000
     2  C    0.000000   0.000000  -0.044672   0.000000   0.000000   0.000000
     3  C    0.000008  -0.000026  -0.039497   0.000010  -0.000012  -0.000000
     4  C   -0.000004  -0.000000   0.009704  -0.000000   0.000000  -0.000000
     5  C   -0.000740  -0.000552   0.011135  -0.000272  -0.000058  -0.000001
     6  C   -0.000048   0.000003  -0.000075   0.000006   0.000009   0.000000
     7  H    0.000000   0.000000  -0.005735  -0.000000  -0.000000   0.000000
     8  H   -0.000000  -0.000004  -0.004460  -0.000002   0.000000  -0.000000
     9  H   -0.000000   0.000000  -0.000181  -0.000000  -0.000000  -0.000000
    10  H   -0.000003   0.000000   0.000026  -0.000001   0.000000   0.000000
    11  C    0.008748   0.008142  -0.001189   0.002946   0.000129   0.000079
    12  C   -0.034242   0.000665   0.000013   0.019975  -0.001775  -0.000427
    13  C    0.000839  -0.020905  -0.000013   0.020720   0.001425   0.001494
    14  C    0.394765   0.006681  -0.000001  -0.011704  -0.014106  -0.013359
    15  C    0.007222   0.390044  -0.000008  -0.004170   0.017442   0.025496
    16  C   -0.029734  -0.032362  -0.000000   0.143216  -0.051154  -0.012076
    17  H   -0.004231   0.000004  -0.000000  -0.000402   0.000057   0.000002
    18  H    0.000010  -0.004141   0.000003  -0.000452   0.000068  -0.000015
    19  H    0.497277  -0.000189   0.000000  -0.007271  -0.001228  -0.000258
    20  H   -0.000189   0.480676  -0.000000  -0.002065  -0.000810  -0.000733
    21  H    0.000000  -0.000000   0.545950  -0.000000  -0.000000   0.000000
    22  N   -0.007271  -0.002065  -0.000000   6.627607   0.168525  -0.030927
    23  C   -0.001228  -0.000810  -0.000000   0.168525   5.257597   0.292362
    24  C   -0.000258  -0.000733   0.000000  -0.030927   0.292362   6.039794
    25  C    0.000288  -0.000950  -0.000000   0.003215   0.425461  -0.207649
    26  C    0.000010   0.000385  -0.000000   0.023011   0.008974   0.156162
    27  C   -0.000009  -0.001848   0.000000   0.010117  -0.063416   0.046699
    28  C    0.000004   0.000772   0.000000   0.006150  -0.015039  -0.383141
    29  H   -0.000010   0.000005  -0.000000  -0.011276  -0.009719   0.368267
    30  H   -0.000043   0.000887  -0.000000  -0.003945  -0.022442   0.006376
    31  H   -0.000000  -0.000040  -0.000000  -0.000537   0.010333   0.002662
    32  H    0.000000   0.000003  -0.000000  -0.000038  -0.002035   0.016872
    33  C    0.006534  -0.001479  -0.000000   0.063950  -0.056621   0.067609
    34  C   -0.005208  -0.000401  -0.000000  -0.006060   0.035851  -0.098619
    35  C    0.001622   0.000768   0.000000   0.005448  -0.023510   0.017584
    36  C    0.001932   0.000020   0.000000   0.027786  -0.006590  -0.000672
    37  C   -0.002091   0.000017   0.000000   0.017418  -0.003200   0.003235
    38  C    0.000339  -0.000003  -0.000000   0.002847   0.001869  -0.003244
    39  H    0.000149  -0.000008  -0.000000  -0.004897  -0.001709   0.001986
    40  H    0.001009  -0.000019  -0.000000  -0.006299  -0.001121   0.000465
    41  H    0.000013  -0.000000  -0.000000  -0.000637  -0.000027   0.000167
    42  H   -0.000000   0.000000  -0.000000  -0.000483  -0.000001  -0.000025
    43  O   -0.000006  -0.000000   0.000000  -0.000006   0.000008   0.000003
    44  H   -0.000001  -0.000000  -0.000000  -0.000002   0.000000  -0.000002
    45  O   -0.000000   0.000002   0.000000  -0.000017   0.010183  -0.102186
    46  H   -0.000000  -0.000000  -0.000000   0.000016  -0.003141   0.024516
              25         26         27         28         29         30
     1  C   -0.000000  -0.000000  -0.000000   0.000000  -0.000000  -0.000000
     2  C    0.000000   0.000000  -0.000000  -0.000000   0.000000  -0.000000
     3  C    0.000005  -0.000000   0.000000   0.000000  -0.000000   0.000001
     4  C    0.000000   0.000000   0.000000  -0.000000   0.000000   0.000000
     5  C   -0.000006  -0.000000   0.000002   0.000000  -0.000000  -0.000031
     6  C   -0.000010   0.000000  -0.000000   0.000000   0.000000   0.000000
     7  H    0.000000   0.000000   0.000000  -0.000000  -0.000000   0.000000
     8  H    0.000000  -0.000000   0.000000   0.000000   0.000000   0.000000
     9  H    0.000000  -0.000000   0.000000   0.000000  -0.000000   0.000000
    10  H   -0.000001   0.000000  -0.000000   0.000000   0.000000   0.000000
    11  C   -0.000720   0.000016  -0.000107   0.000010   0.000000   0.000234
    12  C    0.002700  -0.000072   0.000098  -0.000004   0.000006   0.000597
    13  C   -0.009436   0.000059  -0.000637  -0.000187  -0.000027  -0.002170
    14  C    0.027293  -0.000524   0.000763   0.000389  -0.000132  -0.000760
    15  C   -0.081676   0.002973  -0.008490  -0.001370  -0.000017  -0.000772
    16  C    0.028635  -0.003802   0.001657   0.003445  -0.000461   0.000395
    17  H   -0.000034   0.000000  -0.000001  -0.000000  -0.000000   0.000005
    18  H   -0.000095  -0.000002   0.000008  -0.000002  -0.000000   0.000008
    19  H    0.000288   0.000010  -0.000009   0.000004  -0.000010  -0.000043
    20  H   -0.000950   0.000385  -0.001848   0.000772   0.000005   0.000887
    21  H   -0.000000  -0.000000   0.000000   0.000000  -0.000000  -0.000000
    22  N    0.003215   0.023011   0.010117   0.006150  -0.011276  -0.003945
    23  C    0.425461   0.008974  -0.063416  -0.015039  -0.009719  -0.022442
    24  C   -0.207649   0.156162   0.046699  -0.383141   0.368267   0.006376
    25  C    5.289219  -0.069227   0.427852   0.004435   0.009759   0.381836
    26  C   -0.069227   5.095290   0.023123   0.410175  -0.028212   0.000657
    27  C    0.427852   0.023123   5.059987   0.235920  -0.002140  -0.019834
    28  C    0.004435   0.410175   0.235920   5.710445   0.010582   0.007114
    29  H    0.009759  -0.028212  -0.002140   0.010582   0.473378  -0.000159
    30  H    0.381836   0.000657  -0.019834   0.007114  -0.000159   0.476653
    31  H   -0.032602   0.009052   0.399546  -0.047144   0.000015  -0.004554
    32  H    0.011738  -0.058702  -0.005683   0.378475  -0.000149  -0.000180
    33  C   -0.011368  -0.015429  -0.003267  -0.000493   0.006213  -0.001051
    34  C    0.021397  -0.007371   0.001895   0.001273   0.004629   0.000522
    35  C   -0.010210   0.001736  -0.000302  -0.000056  -0.005293  -0.000358
    36  C    0.001202   0.000926   0.000042   0.000085  -0.003282  -0.000006
    37  C   -0.000093   0.000112  -0.000061   0.000037   0.001041   0.000013
    38  C    0.000057  -0.000218   0.000023  -0.000017   0.000421  -0.000004
    39  H   -0.000913  -0.003426   0.000655  -0.000192   0.000815  -0.000024
    40  H   -0.000313  -0.000070   0.000015  -0.000010   0.000062  -0.000010
    41  H   -0.000033   0.000010  -0.000002   0.000001   0.000001   0.000000
    42  H    0.000003  -0.000003   0.000000   0.000000   0.000015   0.000000
    43  O    0.000000   0.000000  -0.000000   0.000000  -0.000003   0.000000
    44  H   -0.000000   0.000000   0.000000  -0.000000   0.000001  -0.000000
    45  O   -0.001531   0.414020   0.015112  -0.102771   0.003119   0.000002
    46  H   -0.000250  -0.030141   0.005620  -0.035216  -0.000400   0.000000
              31         32         33         34         35         36
     1  C   -0.000000   0.000000   0.000000  -0.000000   0.000000  -0.000000
     2  C    0.000000  -0.000000   0.000000   0.000000   0.000000  -0.000000
     3  C   -0.000000   0.000000   0.000003   0.000000  -0.000007  -0.000000
     4  C   -0.000000  -0.000000  -0.000001   0.000000  -0.000000   0.000000
     5  C   -0.000000  -0.000000  -0.000092  -0.000001  -0.000056   0.000000
     6  C   -0.000000   0.000000  -0.000009   0.000000   0.000005   0.000000
     7  H   -0.000000  -0.000000  -0.000000   0.000000   0.000000  -0.000000
     8  H   -0.000000   0.000000   0.000000   0.000000  -0.000002  -0.000000
     9  H   -0.000000   0.000000  -0.000000  -0.000000  -0.000000   0.000000
    10  H   -0.000000   0.000000  -0.000000  -0.000000   0.000001  -0.000000
    11  C   -0.000004  -0.000000   0.001897   0.000241  -0.002312   0.000056
    12  C    0.000002   0.000000  -0.007451   0.001869  -0.006592   0.000013
    13  C    0.000023  -0.000001  -0.004850  -0.000886   0.005708  -0.000090
    14  C   -0.000031   0.000001   0.037326   0.016851  -0.068290   0.002863
    15  C   -0.000057  -0.000013  -0.011036  -0.011829   0.014687   0.000107
    16  C   -0.000088   0.000021  -0.063491  -0.022102   0.027857  -0.001978
    17  H    0.000000  -0.000000  -0.000030  -0.000056   0.000076  -0.000007
    18  H   -0.000000   0.000000   0.000037  -0.000001  -0.000011   0.000000
    19  H   -0.000000   0.000000   0.006534  -0.005208   0.001622   0.001932
    20  H   -0.000040   0.000003  -0.001479  -0.000401   0.000768   0.000020
    21  H   -0.000000  -0.000000  -0.000000  -0.000000   0.000000   0.000000
    22  N   -0.000537  -0.000038   0.063950  -0.006060   0.005448   0.027786
    23  C    0.010333  -0.002035  -0.056621   0.035851  -0.023510  -0.006590
    24  C    0.002662   0.016872   0.067609  -0.098619   0.017584  -0.000672
    25  C   -0.032602   0.011738  -0.011368   0.021397  -0.010210   0.001202
    26  C    0.009052  -0.058702  -0.015429  -0.007371   0.001736   0.000926
    27  C    0.399546  -0.005683  -0.003267   0.001895  -0.000302   0.000042
    28  C   -0.047144   0.378475  -0.000493   0.001273  -0.000056   0.000085
    29  H    0.000015  -0.000149   0.006213   0.004629  -0.005293  -0.003282
    30  H   -0.004554  -0.000180  -0.001051   0.000522  -0.000358  -0.000006
    31  H    0.545486  -0.004559   0.000044  -0.000025  -0.000001  -0.000001
    32  H   -0.004559   0.547213   0.000027  -0.000007   0.000001  -0.000001
    33  C    0.000044   0.000027   5.602215   0.318604   0.406283   0.061611
    34  C   -0.000025  -0.000007   0.318604   5.508903  -0.142955  -0.095918
    35  C   -0.000001   0.000001   0.406283  -0.142955   5.108108  -0.050683
    36  C   -0.000001  -0.000001   0.061611  -0.095918  -0.050683   6.028363
    37  C    0.000000  -0.000000  -0.014701  -0.015836   0.369942  -0.188015
    38  C   -0.000000   0.000000  -0.128763   0.093369  -0.029408   0.217738
    39  H    0.000002   0.000003  -0.016570   0.391814   0.009269  -0.037098
    40  H   -0.000000   0.000000  -0.032499   0.014116   0.416710  -0.003078
    41  H    0.000000  -0.000000   0.009420   0.020637   0.003565   0.371278
    42  H   -0.000000  -0.000000   0.012837  -0.002219  -0.030771   0.012673
    43  O   -0.000000   0.000000  -0.001230   0.019165   0.004310  -0.105905
    44  H    0.000000  -0.000000  -0.000550   0.006927  -0.001775  -0.039165
    45  O   -0.000047  -0.004612  -0.000433   0.000580  -0.000011   0.000001
    46  H   -0.000009   0.001438   0.000002  -0.000030   0.000003  -0.000000
              37         38         39         40         41         42
     1  C    0.000000   0.000000   0.000000   0.000000  -0.000000   0.000000
     2  C   -0.000000   0.000000   0.000000   0.000000   0.000000   0.000000
     3  C   -0.000000   0.000000   0.000000   0.000002  -0.000000  -0.000000
     4  C    0.000000   0.000000  -0.000000  -0.000000  -0.000000  -0.000000
     5  C    0.000005  -0.000001  -0.000000  -0.000061  -0.000000  -0.000000
     6  C   -0.000000   0.000000  -0.000000   0.000001  -0.000000  -0.000000
     7  H    0.000000  -0.000000  -0.000000  -0.000000  -0.000000  -0.000000
     8  H   -0.000000   0.000000   0.000000   0.000001  -0.000000  -0.000000
     9  H    0.000000  -0.000000  -0.000000  -0.000000  -0.000000   0.000000
    10  H    0.000000   0.000000   0.000000   0.000000   0.000000   0.000000
    11  C   -0.000068  -0.000021  -0.000006   0.000174  -0.000000   0.000002
    12  C   -0.000321  -0.000079  -0.000020  -0.002067  -0.000003   0.000010
    13  C    0.000202   0.000022   0.000013   0.000725   0.000000  -0.000003
    14  C   -0.004509  -0.002127   0.000832   0.000644  -0.000038   0.000155
    15  C    0.001227   0.000037  -0.000437  -0.002278   0.000002  -0.000027
    16  C   -0.000033   0.001589  -0.001567  -0.001313  -0.000008  -0.000179
    17  H    0.000029  -0.000001  -0.000000  -0.000018   0.000000  -0.000000
    18  H   -0.000001   0.000000   0.000000   0.000003  -0.000000   0.000000
    19  H   -0.002091   0.000339   0.000149   0.001009   0.000013  -0.000000
    20  H    0.000017  -0.000003  -0.000008  -0.000019  -0.000000   0.000000
    21  H    0.000000  -0.000000  -0.000000  -0.000000  -0.000000  -0.000000
    22  N    0.017418   0.002847  -0.004897  -0.006299  -0.000637  -0.000483
    23  C   -0.003200   0.001869  -0.001709  -0.001121  -0.000027  -0.000001
    24  C    0.003235  -0.003244   0.001986   0.000465   0.000167  -0.000025
    25  C   -0.000093   0.000057  -0.000913  -0.000313  -0.000033   0.000003
    26  C    0.000112  -0.000218  -0.003426  -0.000070   0.000010  -0.000003
    27  C   -0.000061   0.000023   0.000655   0.000015  -0.000002   0.000000
    28  C    0.000037  -0.000017  -0.000192  -0.000010   0.000001   0.000000
    29  H    0.001041   0.000421   0.000815   0.000062   0.000001   0.000015
    30  H    0.000013  -0.000004  -0.000024  -0.000010   0.000000   0.000000
    31  H    0.000000  -0.000000   0.000002  -0.000000   0.000000  -0.000000
    32  H   -0.000000   0.000000   0.000003   0.000000  -0.000000  -0.000000
    33  C   -0.014701  -0.128763  -0.016570  -0.032499   0.009420   0.012837
    34  C   -0.015836   0.093369   0.391814   0.014116   0.020637  -0.002219
    35  C    0.369942  -0.029408   0.009269   0.416710   0.003565  -0.030771
    36  C   -0.188015   0.217738  -0.037098  -0.003078   0.371278   0.012673
    37  C    5.317942   0.446413  -0.000188  -0.056746   0.002861   0.405418
    38  C    0.446413   5.007120   0.006969   0.013651  -0.067491  -0.054230
    39  H   -0.000188   0.006969   0.498369  -0.000150  -0.003838   0.000020
    40  H   -0.056746   0.013651  -0.000150   0.506842   0.000022  -0.005717
    41  H    0.002861  -0.067491  -0.003838   0.000022   0.541147  -0.000196
    42  H    0.405418  -0.054230   0.000020  -0.005717  -0.000196   0.520228
    43  O   -0.077198   0.397599  -0.000028  -0.000084  -0.005359   0.002269
    44  H    0.019227  -0.024003  -0.000022   0.000020   0.000323  -0.000406
    45  O   -0.000001   0.000009   0.000013  -0.000001  -0.000002   0.000000
    46  H   -0.000000  -0.000000   0.000001  -0.000000   0.000000  -0.000000
              43         44         45         46
     1  C    0.000000  -0.000000  -0.000000  -0.000000
     2  C    0.000000   0.000000  -0.000000   0.000000
     3  C   -0.000000  -0.000000  -0.000000  -0.000000
     4  C   -0.000000  -0.000000  -0.000000  -0.000000
     5  C    0.000000  -0.000000   0.000000  -0.000000
     6  C   -0.000000  -0.000000  -0.000000   0.000000
     7  H    0.000000   0.000000   0.000000   0.000000
     8  H    0.000000  -0.000000  -0.000000  -0.000000
     9  H    0.000000  -0.000000   0.000000  -0.000000
    10  H   -0.000000  -0.000000  -0.000000   0.000000
    11  C    0.000000  -0.000000  -0.000000   0.000000
    12  C    0.000000   0.000000   0.000000  -0.000000
    13  C   -0.000000   0.000000   0.000001   0.000000
    14  C    0.000009  -0.000000  -0.000001  -0.000000
    15  C    0.000000   0.000000   0.000015   0.000003
    16  C   -0.000008  -0.000001  -0.000003  -0.000007
    17  H   -0.000000   0.000000   0.000000   0.000000
    18  H   -0.000000   0.000000  -0.000000  -0.000000
    19  H   -0.000006  -0.000001  -0.000000  -0.000000
    20  H   -0.000000  -0.000000   0.000002  -0.000000
    21  H    0.000000  -0.000000   0.000000  -0.000000
    22  N   -0.000006  -0.000002  -0.000017   0.000016
    23  C    0.000008   0.000000   0.010183  -0.003141
    24  C    0.000003  -0.000002  -0.102186   0.024516
    25  C    0.000000  -0.000000  -0.001531  -0.000250
    26  C    0.000000   0.000000   0.414020  -0.030141
    27  C   -0.000000   0.000000   0.015112   0.005620
    28  C    0.000000  -0.000000  -0.102771  -0.035216
    29  H   -0.000003   0.000001   0.003119  -0.000400
    30  H    0.000000  -0.000000   0.000002   0.000000
    31  H   -0.000000   0.000000  -0.000047  -0.000009
    32  H    0.000000  -0.000000  -0.004612   0.001438
    33  C   -0.001230  -0.000550  -0.000433   0.000002
    34  C    0.019165   0.006927   0.000580  -0.000030
    35  C    0.004310  -0.001775  -0.000011   0.000003
    36  C   -0.105905  -0.039165   0.000001  -0.000000
    37  C   -0.077198   0.019227  -0.000001  -0.000000
    38  C    0.397599  -0.024003   0.000009  -0.000000
    39  H   -0.000028  -0.000022   0.000013   0.000001
    40  H   -0.000084   0.000020  -0.000001  -0.000000
    41  H   -0.005359   0.000323  -0.000002   0.000000
    42  H    0.002269  -0.000406   0.000000  -0.000000
    43  O    7.705481   0.310553   0.000000  -0.000000
    44  H    0.310553   0.457479   0.000000   0.000000
    45  O    0.000000   0.000000   7.705175   0.308946
    46  H   -0.000000   0.000000   0.308946   0.457093
 Mulliken charges:
               1
     1  C   -0.102812
     2  C   -0.146274
     3  C   -0.158448
     4  C   -0.102971
     5  C   -0.000960
     6  C   -0.158839
     7  H    0.124708
     8  H    0.149806
     9  H    0.122195
    10  H    0.149468
    11  C    0.017187
    12  C   -0.166259
    13  C   -0.170767
    14  C   -0.121473
    15  C   -0.138459
    16  C   -0.036321
    17  H    0.146759
    18  H    0.145364
    19  H    0.164552
    20  H    0.177464
    21  H    0.122347
    22  N   -0.051496
    23  C    0.047419
    24  C   -0.218495
    25  C   -0.207979
    26  C    0.070508
    27  C   -0.123337
    28  C   -0.183672
    29  H    0.182952
    30  H    0.181042
    31  H    0.122532
    32  H    0.120189
    33  C   -0.223201
    34  C   -0.049121
    35  C   -0.021079
    36  C   -0.194206
    37  C   -0.222078
    38  C    0.119538
    39  H    0.160185
    40  H    0.157393
    41  H    0.128184
    42  H    0.140631
    43  O   -0.249570
    44  H    0.271396
    45  O   -0.245560
    46  H    0.271558
 Sum of Mulliken charges =  -0.00000
 Mulliken charges with hydrogens summed into heavy atoms:
               1
     1  C    0.019535
     2  C   -0.021566
     3  C   -0.008642
     4  C    0.019224
     5  C   -0.000960
     6  C   -0.009371
    11  C    0.017187
    12  C   -0.019500
    13  C   -0.025403
    14  C    0.043079
    15  C    0.039005
    16  C   -0.036321
    22  N   -0.051496
    23  C    0.047419
    24  C   -0.035543
    25  C   -0.026937
    26  C    0.070508
    27  C   -0.000806
    28  C   -0.063483
    33  C   -0.223201
    34  C    0.111064
    35  C    0.136314
    36  C   -0.066022
    37  C   -0.081447
    38  C    0.119538
    43  O    0.021826
    45  O    0.025998
 Electronic spatial extent (au):  <R**2>=          13385.7769
 Charge=             -0.0000 electrons
 Dipole moment (field-independent basis, Debye):
    X=              1.1270    Y=             -1.1682    Z=             -1.5427  Tot=              2.2393
 Quadrupole moment (field-independent basis, Debye-Ang):
   XX=           -137.5202   YY=           -145.8876   ZZ=           -151.4458
   XY=             -4.0420   XZ=             -9.0998   YZ=             -6.8708
 Traceless Quadrupole moment (field-independent basis, Debye-Ang):
   XX=              7.4310   YY=             -0.9364   ZZ=             -6.4946
   XY=             -4.0420   XZ=             -9.0998   YZ=             -6.8708
 Octapole moment (field-independent basis, Debye-Ang**2):
  XXX=             47.0833  YYY=            -75.7883  ZZZ=              5.3589  XYY=            110.4794
  XXY=             -7.2230  XXZ=            -41.3731  XZZ=            -10.5765  YZZ=             13.6288
  YYZ=            -24.5073  XYZ=            -17.0714
 Hexadecapole moment (field-independent basis, Debye-Ang**3):
 XXXX=         -11852.6976 YYYY=          -4107.4110 ZZZZ=           -784.7881 XXXY=            -72.8989
 XXXZ=           -199.4215 YYYX=           -275.9314 YYYZ=           -102.7434 ZZZX=              2.0830
 ZZZY=            -15.7867 XXYY=          -2500.0989 XXZZ=          -2218.9082 YYZZ=           -818.6483
 XXYZ=           -279.7522 YYXZ=           -101.7448 ZZXY=             49.4918
 N-N= 2.186775923160D+03 E-N=-7.004793312195D+03  KE= 1.125003009567D+03
 No NMR shielding tensors so no spin-rotation constants.
 Leave Link  601 at Sun Jan 17 18:27:27 2021, MaxMem=  4026531840 cpu:               3.8 elap:               0.6
 (Enter /opt/ohpc/pub/libs/gaussian/g16-A.03/sandybridge/g16/l9999.exe)

 Test job not archived.
 1\1\GINC-CASCADEB002\SP\RLC-wHPBE\TZVP\C24H19N1O2\RDU230\17-Jan-2021\0
 \\#P LC-wHPBE/TZVP iop(3/107=0328100000, 3/108=0328100000) scf=(conver
 =6,fermi,ndamp=35,noincfock,novaracc,vshift=500,xqc)\\H19 C24 N1 O2\\0
 ,1\C,0,-6.538108,-0.217341,1.255514\C,0,-7.258661,0.087287,0.107878\C,
 0,-5.15139,-0.259049,1.219222\C,0,-6.580697,0.348691,-1.075777\C,0,-4.
 458004,0.000662,0.035726\C,0,-5.193998,0.304569,-1.110911\H,0,-8.34564
 4,0.121015,0.135956\H,0,-4.59391,-0.476283,2.12835\H,0,-7.136138,0.581
 164,-1.982188\H,0,-4.671509,0.488761,-2.047704\C,0,-2.974479,-0.044963
 ,-0.00277\C,0,-2.240322,0.918366,-0.694597\C,0,-2.265576,-1.051297,0.6
 54611\C,0,-0.856277,0.875925,-0.739808\C,0,-0.88157,-1.094369,0.628888
 \C,0,-0.155643,-0.133238,-0.077397\H,0,-2.762026,1.727417,-1.202285\H,
 0,-2.809037,-1.823891,1.195264\H,0,-0.306381,1.639189,-1.284917\H,0,-0
 .352632,-1.885069,1.15502\H,0,-7.059465,-0.416189,2.189743\N,0,1.25702
 6,-0.160831,-0.103806\C,0,1.965402,-1.377887,-0.17457\C,0,3.190004,-1.
 508547,0.478017\C,0,1.461496,-2.456008,-0.912094\C,0,3.903051,-2.69689
 1,0.390217\C,0,2.178621,-3.638306,-0.97461\C,0,3.402953,-3.775056,-0.3
 32839\H,0,3.600761,-0.690157,1.062074\H,0,0.51484,-2.358097,-1.435231\
 H,0,1.782807,-4.471654,-1.551437\H,0,3.963923,-4.706428,-0.398055\C,0,
 1.972861,1.068372,-0.045814\C,0,2.971482,1.350948,-0.972341\C,0,1.6830
 86,2.012203,0.939258\C,0,3.67678,2.543988,-0.910119\C,0,2.365608,3.214
 996,0.992156\C,0,3.371443,3.4833,0.069272\H,0,3.205268,0.621566,-1.744
 392\H,0,0.904271,1.798314,1.667748\H,0,4.460878,2.747602,-1.639197\H,0
 ,2.139895,3.954598,1.756001\O,0,4.022986,4.680331,0.173244\H,0,4.69528
 7,4.73835,-0.517835\O,0,5.097214,-2.751708,1.053752\H,0,5.479651,-3.63
 1493,0.941087\\Version=EM64L-G16RevA.03\State=1-A\HF=-1130.6722817\RMS
 D=6.155e-07\Dipole=0.443381,-0.4595991,-0.6069513\Quadrupole=5.5247596
 ,-0.6961863,-4.8285732,-3.005142,-6.7654839,-5.1082419\PG=C01 [X(C24H1
 9N1O2)]\\@


 If fifty million people say a stupid thing,
 it is still a stupid thing.
                   -- Anatole France
 Job cpu time:       0 days  1 hours 38 minutes 46.0 seconds.
 Elapsed time:       0 days  0 hours 12 minutes 23.2 seconds.
 File lengths (MBytes):  RWF=    176 Int=      0 D2E=      0 Chk=     28 Scr=      8
 Normal termination of Gaussian 16 at Sun Jan 17 18:27:27 2021.
