 Entering Gaussian System, Link 0=g16
 Input=mol_bp_ma_half_tune_n3.gjf
 Output=mol_bp_ma_half_tune_n3.log
 Initial command:
 /opt/ohpc/pub/libs/gaussian/g16-A.03/sandybridge/g16/l1.exe "/mnt/gpfs2_4m/scratch/rdu230/ondemand/projects/init_structures/wtuning/mol_bp_ma_half/tuning_mol_bp_ma_half_ocycle0/Gau-51471.inp" -scrdir="/mnt/gpfs2_4m/scratch/rdu230/ondemand/projects/init_structures/wtuning/mol_bp_ma_half/tuning_mol_bp_ma_half_ocycle0/"
 Entering Link 1 = /opt/ohpc/pub/libs/gaussian/g16-A.03/sandybridge/g16/l1.exe PID=     51472.
  
 Copyright (c) 1988,1990,1992,1993,1995,1998,2003,2009,2016,
            Gaussian, Inc.  All Rights Reserved.
  
 This is part of the Gaussian(R) 16 program.  It is based on
 the Gaussian(R) 09 system (copyright 2009, Gaussian, Inc.),
 the Gaussian(R) 03 system (copyright 2003, Gaussian, Inc.),
 the Gaussian(R) 98 system (copyright 1998, Gaussian, Inc.),
 the Gaussian(R) 94 system (copyright 1995, Gaussian, Inc.),
 the Gaussian 92(TM) system (copyright 1992, Gaussian, Inc.),
 the Gaussian 90(TM) system (copyright 1990, Gaussian, Inc.),
 the Gaussian 88(TM) system (copyright 1988, Gaussian, Inc.),
 the Gaussian 86(TM) system (copyright 1986, Carnegie Mellon
 University), and the Gaussian 82(TM) system (copyright 1983,
 Carnegie Mellon University). Gaussian is a federally registered
 trademark of Gaussian, Inc.
  
 This software contains proprietary and confidential information,
 including trade secrets, belonging to Gaussian, Inc.
  
 This software is provided under written license and may be
 used, copied, transmitted, or stored only in accord with that
 written license.
  
 The following legend is applicable only to US Government
 contracts under FAR:
  
                    RESTRICTED RIGHTS LEGEND
  
 Use, reproduction and disclosure by the US Government is
 subject to restrictions as set forth in subparagraphs (a)
 and (c) of the Commercial Computer Software - Restricted
 Rights clause in FAR 52.227-19.
  
 Gaussian, Inc.
 340 Quinnipiac St., Bldg. 40, Wallingford CT 06492
  
  
 ---------------------------------------------------------------
 Warning -- This program may not be used in any manner that
 competes with the business of Gaussian, Inc. or will provide
 assistance to any competitor of Gaussian, Inc.  The licensee
 of this program is prohibited from giving any competitor of
 Gaussian, Inc. access to this program.  By using this program,
 the user acknowledges that Gaussian, Inc. is engaged in the
 business of creating and licensing software in the field of
 computational chemistry and represents and warrants to the
 licensee that it is not a competitor of Gaussian, Inc. and that
 it will not use this program in any manner prohibited above.
 ---------------------------------------------------------------
  

 Cite this work as:
 Gaussian 16, Revision A.03,
 M. J. Frisch, G. W. Trucks, H. B. Schlegel, G. E. Scuseria, 
 M. A. Robb, J. R. Cheeseman, G. Scalmani, V. Barone, 
 G. A. Petersson, H. Nakatsuji, X. Li, M. Caricato, A. V. Marenich, 
 J. Bloino, B. G. Janesko, R. Gomperts, B. Mennucci, H. P. Hratchian, 
 J. V. Ortiz, A. F. Izmaylov, J. L. Sonnenberg, D. Williams-Young, 
 F. Ding, F. Lipparini, F. Egidi, J. Goings, B. Peng, A. Petrone, 
 T. Henderson, D. Ranasinghe, V. G. Zakrzewski, J. Gao, N. Rega, 
 G. Zheng, W. Liang, M. Hada, M. Ehara, K. Toyota, R. Fukuda, 
 J. Hasegawa, M. Ishida, T. Nakajima, Y. Honda, O. Kitao, H. Nakai, 
 T. Vreven, K. Throssell, J. A. Montgomery, Jr., J. E. Peralta, 
 F. Ogliaro, M. J. Bearpark, J. J. Heyd, E. N. Brothers, K. N. Kudin, 
 V. N. Staroverov, T. A. Keith, R. Kobayashi, J. Normand, 
 K. Raghavachari, A. P. Rendell, J. C. Burant, S. S. Iyengar, 
 J. Tomasi, M. Cossi, J. M. Millam, M. Klene, C. Adamo, R. Cammi, 
 J. W. Ochterski, R. L. Martin, K. Morokuma, O. Farkas, 
 J. B. Foresman, and D. J. Fox, Gaussian, Inc., Wallingford CT, 2016.
 
 ******************************************
 Gaussian 16:  EM64L-G16RevA.03 25-Dec-2016
                17-Jan-2021 
 ******************************************
 %mem=30GB
 %nproc=8
 Will use up to    8 processors via shared memory.
 ----------------------------------------------------------------------
 #P LC-wHPBE/TZVP iop(3/107=0168400000, 3/108=0168400000) scf=(conver=6
 ,fermi,ndamp=35,noincfock,novaracc,vshift=500,xqc)
 ----------------------------------------------------------------------
 1/38=1,172=1/1;
 2/12=2,17=6,18=5,40=1/2;
 3/5=19,7=101,11=2,25=1,30=1,74=-71,107=168400000,108=168400000/1,2,3;
 4//1;
 5/5=100002,6=6,8=3,10=500,13=1,18=-1,22=13,38=1,93=35/2,8;
 6/7=2,8=2,9=2,10=2,28=1/1;
 99/5=1,9=1/99;
 Leave Link    1 at Sun Jan 17 19:26:33 2021, MaxMem=  4026531840 cpu:               0.9 elap:               0.1
 (Enter /opt/ohpc/pub/libs/gaussian/g16-A.03/sandybridge/g16/l101.exe)
 -------------
 H19 C24 N1 O2
 -------------
 Symbolic Z-matrix:
 Charge =  0 Multiplicity = 1
 C                    -6.53811  -0.21734   1.25551 
 C                    -7.25866   0.08729   0.10788 
 C                    -5.15139  -0.25905   1.21922 
 C                    -6.5807    0.34869  -1.07578 
 C                    -4.458     0.00066   0.03573 
 C                    -5.194     0.30457  -1.11091 
 H                    -8.34564   0.12102   0.13596 
 H                    -4.59391  -0.47628   2.12835 
 H                    -7.13614   0.58116  -1.98219 
 H                    -4.67151   0.48876  -2.0477 
 C                    -2.97448  -0.04496  -0.00277 
 C                    -2.24032   0.91837  -0.6946 
 C                    -2.26558  -1.0513    0.65461 
 C                    -0.85628   0.87593  -0.73981 
 C                    -0.88157  -1.09437   0.62889 
 C                    -0.15564  -0.13324  -0.0774 
 H                    -2.76203   1.72742  -1.20229 
 H                    -2.80904  -1.82389   1.19526 
 H                    -0.30638   1.63919  -1.28492 
 H                    -0.35263  -1.88507   1.15502 
 H                    -7.05947  -0.41619   2.18974 
 N                     1.25703  -0.16083  -0.10381 
 C                     1.9654   -1.37789  -0.17457 
 C                     3.19     -1.50855   0.47802 
 C                     1.4615   -2.45601  -0.91209 
 C                     3.90305  -2.69689   0.39022 
 C                     2.17862  -3.63831  -0.97461 
 C                     3.40295  -3.77506  -0.33284 
 H                     3.60076  -0.69016   1.06207 
 H                     0.51484  -2.3581   -1.43523 
 H                     1.78281  -4.47165  -1.55144 
 H                     3.96392  -4.70643  -0.39806 
 C                     1.97286   1.06837  -0.04581 
 C                     2.97148   1.35095  -0.97234 
 C                     1.68309   2.0122    0.93926 
 C                     3.67678   2.54399  -0.91012 
 C                     2.36561   3.215     0.99216 
 C                     3.37144   3.4833    0.06927 
 H                     3.20527   0.62157  -1.74439 
 H                     0.90427   1.79831   1.66775 
 H                     4.46088   2.7476   -1.6392 
 H                     2.1399    3.9546    1.756 
 O                     4.02299   4.68033   0.17324 
 H                     4.69529   4.73835  -0.51784 
 O                     5.09721  -2.75171   1.05375 
 H                     5.47965  -3.63149   0.94109 
 
 ITRead=  0  0  0  0  0  0  0  0  0  0  0  0  0  0  0  0  0  0  0  0
 ITRead=  0  0  0  0  0  0  0  0  0  0  0  0  0  0  0  0  0  0  0  0
 ITRead=  0  0  0  0  0  0
 MicOpt= -1 -1 -1 -1 -1 -1 -1 -1 -1 -1 -1 -1 -1 -1 -1 -1 -1 -1 -1 -1
 MicOpt= -1 -1 -1 -1 -1 -1 -1 -1 -1 -1 -1 -1 -1 -1 -1 -1 -1 -1 -1 -1
 MicOpt= -1 -1 -1 -1 -1 -1
 NAtoms=     46 NQM=       46 NQMF=       0 NMMI=      0 NMMIF=      0
                NMic=       0 NMicF=      0.
                    Isotopes and Nuclear Properties:
 (Nuclear quadrupole moments (NQMom) in fm**2, nuclear magnetic moments (NMagM)
  in nuclear magnetons)

  Atom         1           2           3           4           5           6           7           8           9          10
 IAtWgt=          12          12          12          12          12          12           1           1           1           1
 AtmWgt=  12.0000000  12.0000000  12.0000000  12.0000000  12.0000000  12.0000000   1.0078250   1.0078250   1.0078250   1.0078250
 NucSpn=           0           0           0           0           0           0           1           1           1           1
 AtZEff=  -0.0000000  -0.0000000  -0.0000000  -0.0000000  -0.0000000  -0.0000000  -0.0000000  -0.0000000  -0.0000000  -0.0000000
 NQMom=    0.0000000   0.0000000   0.0000000   0.0000000   0.0000000   0.0000000   0.0000000   0.0000000   0.0000000   0.0000000
 NMagM=    0.0000000   0.0000000   0.0000000   0.0000000   0.0000000   0.0000000   2.7928460   2.7928460   2.7928460   2.7928460
 AtZNuc=   6.0000000   6.0000000   6.0000000   6.0000000   6.0000000   6.0000000   1.0000000   1.0000000   1.0000000   1.0000000

  Atom        11          12          13          14          15          16          17          18          19          20
 IAtWgt=          12          12          12          12          12          12           1           1           1           1
 AtmWgt=  12.0000000  12.0000000  12.0000000  12.0000000  12.0000000  12.0000000   1.0078250   1.0078250   1.0078250   1.0078250
 NucSpn=           0           0           0           0           0           0           1           1           1           1
 AtZEff=  -0.0000000  -0.0000000  -0.0000000  -0.0000000  -0.0000000  -0.0000000  -0.0000000  -0.0000000  -0.0000000  -0.0000000
 NQMom=    0.0000000   0.0000000   0.0000000   0.0000000   0.0000000   0.0000000   0.0000000   0.0000000   0.0000000   0.0000000
 NMagM=    0.0000000   0.0000000   0.0000000   0.0000000   0.0000000   0.0000000   2.7928460   2.7928460   2.7928460   2.7928460
 AtZNuc=   6.0000000   6.0000000   6.0000000   6.0000000   6.0000000   6.0000000   1.0000000   1.0000000   1.0000000   1.0000000

  Atom        21          22          23          24          25          26          27          28          29          30
 IAtWgt=           1          14          12          12          12          12          12          12           1           1
 AtmWgt=   1.0078250  14.0030740  12.0000000  12.0000000  12.0000000  12.0000000  12.0000000  12.0000000   1.0078250   1.0078250
 NucSpn=           1           2           0           0           0           0           0           0           1           1
 AtZEff=  -0.0000000  -0.0000000  -0.0000000  -0.0000000  -0.0000000  -0.0000000  -0.0000000  -0.0000000  -0.0000000  -0.0000000
 NQMom=    0.0000000   2.0440000   0.0000000   0.0000000   0.0000000   0.0000000   0.0000000   0.0000000   0.0000000   0.0000000
 NMagM=    2.7928460   0.4037610   0.0000000   0.0000000   0.0000000   0.0000000   0.0000000   0.0000000   2.7928460   2.7928460
 AtZNuc=   1.0000000   7.0000000   6.0000000   6.0000000   6.0000000   6.0000000   6.0000000   6.0000000   1.0000000   1.0000000

  Atom        31          32          33          34          35          36          37          38          39          40
 IAtWgt=           1           1          12          12          12          12          12          12           1           1
 AtmWgt=   1.0078250   1.0078250  12.0000000  12.0000000  12.0000000  12.0000000  12.0000000  12.0000000   1.0078250   1.0078250
 NucSpn=           1           1           0           0           0           0           0           0           1           1
 AtZEff=  -0.0000000  -0.0000000  -0.0000000  -0.0000000  -0.0000000  -0.0000000  -0.0000000  -0.0000000  -0.0000000  -0.0000000
 NQMom=    0.0000000   0.0000000   0.0000000   0.0000000   0.0000000   0.0000000   0.0000000   0.0000000   0.0000000   0.0000000
 NMagM=    2.7928460   2.7928460   0.0000000   0.0000000   0.0000000   0.0000000   0.0000000   0.0000000   2.7928460   2.7928460
 AtZNuc=   1.0000000   1.0000000   6.0000000   6.0000000   6.0000000   6.0000000   6.0000000   6.0000000   1.0000000   1.0000000

  Atom        41          42          43          44          45          46
 IAtWgt=           1           1          16           1          16           1
 AtmWgt=   1.0078250   1.0078250  15.9949146   1.0078250  15.9949146   1.0078250
 NucSpn=           1           1           0           1           0           1
 AtZEff=  -0.0000000  -0.0000000  -0.0000000  -0.0000000  -0.0000000  -0.0000000
 NQMom=    0.0000000   0.0000000   0.0000000   0.0000000   0.0000000   0.0000000
 NMagM=    2.7928460   2.7928460   0.0000000   2.7928460   0.0000000   2.7928460
 AtZNuc=   1.0000000   1.0000000   8.0000000   1.0000000   8.0000000   1.0000000
 Leave Link  101 at Sun Jan 17 19:26:34 2021, MaxMem=  4026531840 cpu:               0.7 elap:               0.1
 (Enter /opt/ohpc/pub/libs/gaussian/g16-A.03/sandybridge/g16/l202.exe)
                          Input orientation:                          
 ---------------------------------------------------------------------
 Center     Atomic      Atomic             Coordinates (Angstroms)
 Number     Number       Type             X           Y           Z
 ---------------------------------------------------------------------
      1          6           0       -6.538108   -0.217341    1.255514
      2          6           0       -7.258661    0.087287    0.107878
      3          6           0       -5.151390   -0.259049    1.219222
      4          6           0       -6.580697    0.348691   -1.075777
      5          6           0       -4.458004    0.000662    0.035726
      6          6           0       -5.193998    0.304569   -1.110911
      7          1           0       -8.345644    0.121015    0.135956
      8          1           0       -4.593910   -0.476283    2.128350
      9          1           0       -7.136138    0.581164   -1.982188
     10          1           0       -4.671509    0.488761   -2.047704
     11          6           0       -2.974479   -0.044963   -0.002770
     12          6           0       -2.240322    0.918366   -0.694597
     13          6           0       -2.265576   -1.051297    0.654611
     14          6           0       -0.856277    0.875925   -0.739808
     15          6           0       -0.881570   -1.094369    0.628888
     16          6           0       -0.155643   -0.133238   -0.077397
     17          1           0       -2.762026    1.727417   -1.202285
     18          1           0       -2.809037   -1.823891    1.195264
     19          1           0       -0.306381    1.639189   -1.284917
     20          1           0       -0.352632   -1.885069    1.155020
     21          1           0       -7.059465   -0.416189    2.189743
     22          7           0        1.257026   -0.160831   -0.103806
     23          6           0        1.965402   -1.377887   -0.174570
     24          6           0        3.190004   -1.508547    0.478017
     25          6           0        1.461496   -2.456008   -0.912094
     26          6           0        3.903051   -2.696891    0.390217
     27          6           0        2.178621   -3.638306   -0.974610
     28          6           0        3.402953   -3.775056   -0.332839
     29          1           0        3.600761   -0.690157    1.062074
     30          1           0        0.514840   -2.358097   -1.435231
     31          1           0        1.782807   -4.471654   -1.551437
     32          1           0        3.963923   -4.706428   -0.398055
     33          6           0        1.972861    1.068372   -0.045814
     34          6           0        2.971482    1.350948   -0.972341
     35          6           0        1.683086    2.012203    0.939258
     36          6           0        3.676780    2.543988   -0.910119
     37          6           0        2.365608    3.214996    0.992156
     38          6           0        3.371443    3.483300    0.069272
     39          1           0        3.205268    0.621566   -1.744392
     40          1           0        0.904271    1.798314    1.667748
     41          1           0        4.460878    2.747602   -1.639197
     42          1           0        2.139895    3.954598    1.756001
     43          8           0        4.022986    4.680331    0.173244
     44          1           0        4.695287    4.738350   -0.517835
     45          8           0        5.097214   -2.751708    1.053752
     46          1           0        5.479651   -3.631493    0.941087
 ---------------------------------------------------------------------
                    Distance matrix (angstroms):
                    1          2          3          4          5
     1  C    0.000000
     2  C    1.388907   0.000000
     3  C    1.387820   2.407410   0.000000
     4  C    2.399401   1.388887   2.771153   0.000000
     5  C    2.421206   2.802925   1.396029   2.421237   0.000000
     6  C    2.771099   2.407383   2.397707   1.387846   1.396003
     7  H    2.152924   1.087869   3.394285   2.152945   3.890794
     8  H    2.146811   3.391285   1.088342   3.859318   2.150586
     9  H    3.387914   2.151117   3.859302   1.088182   3.403140
    10  H    3.859277   3.391323   3.385604   2.146919   2.150466
    11  C    3.783179   4.287651   2.505601   3.783004   1.484726
    12  C    4.854248   5.149600   3.677408   4.394165   2.508718
    13  C    4.394439   5.150358   3.045384   4.855356   2.509258
    14  C    6.120437   6.506231   4.855302   5.758458   3.786816
    15  C    5.758321   6.506539   4.390628   6.121140   3.787059
    16  C    6.520704   7.108855   5.162803   6.519995   4.305930
    17  H    4.907306   4.962487   3.939391   4.061913   2.718583
    18  H    4.060862   4.963282   2.817077   4.909497   2.718936
    19  H    6.981040   7.258269   5.774784   6.409069   4.654551
    20  H    6.407147   7.258094   5.067163   6.982473   4.654340
    21  H    1.088181   2.151123   2.146475   3.387902   3.403109
    22  N    7.912968   8.521930   6.544299   7.914180   5.719014
    23  C    8.700672   9.343974   7.337791   8.765218   6.573033
    24  C    9.844180  10.576308   8.466964  10.066291   7.808032
    25  C    8.585093   9.140560   7.286933   8.518803   6.478740
    26  C   10.766369  11.507179   9.413460  11.015157   8.792593
    27  C    9.625893  10.203632   8.364289   9.624554   7.635945
    28  C   10.677307  11.348213   9.378059  10.827304   8.728490
    29  H   10.151731  10.928950   8.764171  10.455224   8.153178
    30  H    7.846465   8.293878   6.599870   7.602799   5.697073
    31  H    9.757857  10.260868   8.573545   9.664894   7.840180
    32  H   11.540314  12.214011  10.270526  11.713349   9.657832
    33  C    8.705349   9.284780   7.356447   8.645352   6.519408
    34  C    9.892177  10.364340   8.565984   9.605173   7.618184
    35  C    8.524020   9.184298   7.207429   8.667050   6.525002
    36  C   10.800872  11.254136   9.504088  10.491073   8.575421
    37  C    9.546018  10.158300   8.284069   9.619170   7.603182
    38  C   10.644300  11.159458   9.379032  10.496761   8.569138
    39  H   10.229202  10.640027   8.910231   9.812574   7.891773
    40  H    7.721516   8.484944   6.411314   8.102659   5.886344
    41  H   11.753635  12.144017  10.469298  11.313204   9.481429
    42  H    9.641748  10.295886   8.438352   9.852424   7.881956
    43  O   11.691673  12.180964  10.471901  11.522207   9.687384
    44  H   12.405354  12.842148  11.178033  12.113142  10.321572
    45  O   11.909846  12.713073  10.548678  12.268699   9.995705
    46  H   12.497273  13.296171  11.156602  12.859300  10.619285
                    6          7          8          9         10
     6  C    0.000000
     7  H    3.394295   0.000000
     8  H    3.385653   4.289744   0.000000
     9  H    2.146517   2.482172   4.947488   0.000000
    10  H    1.088349   4.289857   4.286812   2.467231   0.000000
    11  C    2.505277   5.375519   2.711137   4.650757   2.710448
    12  C    3.045368   6.212934   3.931088   5.073520   2.815338
    13  C    3.678464   6.213738   2.814904   5.774081   3.932277
    14  C    4.390898   7.578091   4.901499   6.408358   4.051726
    15  C    4.856023   7.578426   4.051158   6.981744   4.902457
    16  C    5.161865   8.196724   4.968019   7.270895   4.966089
    17  H    2.819102   5.962232   4.393771   4.588573   2.427988
    18  H    3.941678   5.963121   2.423318   5.882541   4.397045
    19  H    5.069545   8.303823   5.874395   6.946307   4.578173
    20  H    5.776485   8.303680   4.573892   7.870218   5.877517
    21  H    3.859246   2.482113   2.467051   4.290175   4.947446
    22  N    6.545729   9.609797   6.270206   8.632733   6.272817
    23  C    7.413798  10.424049   7.010057   9.483849   7.144340
    24  C    8.723736  11.655199   8.023620  10.818905   8.495404
    25  C    7.208045  10.194089   7.059147   9.180895   6.897465
    26  C    9.696311  12.571228   8.952684  11.757451   9.466516
    27  C    8.361839  11.230583   8.092832  10.275401   8.068983
    28  C    9.547581  12.386633   8.993841  11.522562   9.290739
    29  H    9.113678  12.009675   8.266518  11.232310   8.915774
    30  H    6.307599   9.333960   6.506893   8.214370   5.947936
    31  H    8.466533  11.248352   8.376535  10.259829   8.155378
    32  H   10.463545  13.233095   9.874885  12.396752  10.211857
    33  C    7.285719  10.363497   7.087696   9.325276   6.963560
    34  C    8.233418  11.437587   8.377841  10.187067   7.766279
    35  C    7.376550  10.237056   6.856178   9.400076   7.184963
    36  C    9.151285  12.308686   9.314432  11.041794   8.672484
    37  C    8.369057  11.181982   7.959357  10.298882   8.135977
    38  C    9.212163  12.190141   9.130441  11.092346   8.839566
    39  H    8.429084  11.713660   8.776707  10.344219   7.883733
    40  H    6.865938   9.524739   5.967909   8.913566   6.827066
    41  H    9.973170  13.193071  10.323615  11.802622   9.416461
    42  H    8.679164  11.281287   8.069416  10.554568   8.536710
    43  O   10.283440  13.182252  10.230543  12.082016   9.904348
    44  H   10.853944  13.849661  10.976515  12.625733  10.398864
    45  O   10.951513  13.776985  10.012502  13.037633  10.749308
    46  H   11.559847  14.348113  10.622692  13.618008  11.355854
                   11         12         13         14         15
    11  C    0.000000
    12  C    1.394853   0.000000
    13  C    1.395493   2.387587   0.000000
    14  C    2.424467   1.385433   2.764907   0.000000
    15  C    2.424977   2.765668   1.384915   2.399172   0.000000
    16  C    2.821205   2.415097   2.414640   1.395739   1.396274
    17  H    2.150652   1.088341   3.378724   2.137944   3.853801
    18  H    2.151102   3.378607   1.088374   3.853152   2.137314
    19  H    3.405733   2.146670   3.852133   1.087245   3.386123
    20  H    3.405958   3.852753   2.145912   3.386314   1.087105
    21  H    4.651025   5.772746   5.073595   6.980786   6.408009
    22  N    4.234297   3.707444   3.711718   2.438321   2.445798
    23  C    5.119436   4.819888   4.323815   3.655275   2.971730
    24  C    6.354061   6.062456   5.477556   4.851927   4.095366
    25  C    5.130096   5.013697   4.280052   4.062454   3.117474
    26  C    7.381570   7.210266   6.389823   6.057489   5.051499
    27  C    6.356967   6.353639   5.394244   5.444632   4.290407
    28  C    7.395551   7.348852   6.366015   6.319675   5.144720
    29  H    6.692081   6.308050   5.891550   5.056143   4.521319
    30  H    4.424690   4.344498   3.715626   3.580848   2.794201
    31  H    6.680249   6.780270   5.740635   6.018314   4.822735
    32  H    8.368209   8.379672   7.298955   7.383345   6.130284
    33  C    5.071246   4.265481   4.790401   2.919364   3.644235
    34  C    6.184100   5.237096   5.987030   3.864124   4.836271
    35  C    5.178056   4.388518   5.005795   3.249424   4.040369
    36  C    7.194803   6.140130   7.119414   4.833223   6.031976
    37  C    6.335120   5.416109   6.305796   4.341831   5.408027
    38  C    7.261168   6.217257   7.258180   5.032557   6.273463
    39  H    6.454981   5.553792   6.203533   4.191663   5.027836
    40  H    4.607928   4.030316   4.381171   3.121964   3.554725
    41  H    8.109306   7.010311   8.058435   5.708258   6.960366
    42  H    6.726558   5.866041   6.758714   4.968333   5.990968
    43  O    8.445348   7.357619   8.522282   6.254149   7.590088
    44  H    9.053766   7.919987   9.129527   6.766643   8.150885
    45  O    8.578749   8.388421   7.567125   7.198655   6.218773
    46  H    9.231813   9.109043   8.168722   7.955263   6.855625
                   16         17         18         19         20
    16  C    0.000000
    17  H    3.394207   0.000000
    18  H    3.393888   4.285118   0.000000
    19  H    2.149959   2.458618   4.940396   0.000000
    20  H    2.150946   4.940862   2.457496   4.286703   0.000000
    21  H    7.272052   5.879531   4.586584   7.867781   6.943333
    22  N    1.413185   4.574376   4.581072   2.660702   2.673694
    23  C    2.461184   5.748712   4.987046   3.936574   2.719986
    24  C    3.659688   6.980082   6.049990   5.024031   3.626344
    25  C    2.950783   5.951756   4.803955   4.476050   2.808913
    26  C    4.823274   8.156826   6.816330   6.271123   4.399411
    27  C    4.305727   7.297452   5.733863   5.841531   3.743849
    28  C    5.098205   8.309038   6.688121   6.631716   4.459842
    29  H    3.964735   7.173357   6.510653   5.118591   4.131074
    30  H    2.691330   5.242475   4.272357   4.083539   2.772303
    31  H    4.975162   7.694537   5.969929   6.463601   4.309922
    32  H    6.163417   9.342352   7.531313   7.699927   5.385606
    33  C    2.444462   4.918427   5.724684   2.656342   3.946230
    34  C    3.575282   5.750454   6.942083   3.305325   5.103646
    35  C    3.002903   4.942300   5.912726   3.007336   4.402207
    36  C    4.748519   6.496951   8.097952   4.101793   6.333838
    37  C    4.325658   5.772443   7.225551   3.848085   5.781524
    38  C    5.053830   6.505338   8.223896   4.331393   6.623214
    39  H    3.826790   6.093060   7.126970   3.684882   5.229576
    40  H    2.810666   4.656592   5.208864   3.195189   3.925558
    41  H    5.661336   7.307668   9.043472   4.907224   7.241489
    42  H    5.034009   6.143340   7.628715   4.537903   6.377741
    43  O    6.379201   7.526498   9.488201   5.488005   7.950748
    44  H    6.888968   8.071289  10.114969   5.933793   8.494093
    45  O    5.977323   9.323085   7.961763   7.344943   5.519252
    46  H    6.710562  10.061670   8.487307   8.137159   6.091904
                   21         22         23         24         25
    21  H    0.000000
    22  N    8.630736   0.000000
    23  C    9.378863   1.409975   0.000000
    24  C   10.448678   2.427192   1.393769   0.000000
    25  C    9.294570   2.441920   1.400074   2.412018   0.000000
    26  C   11.340928   3.698257   2.411066   1.388635   2.777630
    27  C   10.282869   3.701415   2.407285   2.769277   1.384198
    28  C   11.274201   4.209523   2.799647   2.416588   2.417577
    29  H   10.723204   2.670685   2.162559   1.086097   3.404706
    30  H    8.618674   2.674231   2.157361   3.396874   1.086009
    31  H   10.422524   4.577693   3.391238   3.857316   2.138885
    32  H   12.108589   5.298710   3.888858   3.404834   3.404522
    33  C    9.422555   1.423630   2.449656   2.897645   3.665132
    34  C   10.664963   2.445238   3.015821   3.213721   4.095925
    35  C    9.159312   2.447772   3.579529   3.857360   4.841644
    36  C   11.560223   3.717714   4.341768   4.311254   5.468770
    37  C   10.171122   3.718373   4.755627   4.822429   6.050113
    38  C   11.336060   4.216682   5.066315   5.011839   6.315565
    39  H   11.041698   2.664454   2.828325   3.078428   3.633858
    40  H    8.282366   2.664787   3.822092   4.192298   5.006530
    41  H   12.545464   4.591413   5.039067   4.920622   6.050002
    42  H   10.194123   4.601641   5.673883   5.708058   6.976735
    43  O   12.363717   5.582485   6.407545   6.252116   7.659408
    44  H   13.117715   5.999586   6.706598   6.502409   7.897571
    45  O   12.431008   4.774896   3.633787   2.348270   4.143722
    46  H   13.004874   5.564877   4.321270   3.156551   4.578386
                   26         27         28         29         30
    26  C    0.000000
    27  C    2.392211   0.000000
    28  C    1.391168   1.389086   0.000000
    29  H    2.137698   3.855145   3.391388   0.000000
    30  H    3.863550   2.149250   3.400623   4.305980   0.000000
    31  H    3.378644   1.088057   2.143619   4.943189   2.467462
    32  H    2.159471   2.158843   1.089217   4.288857   4.299601
    33  C    4.253582   4.801856   5.058294   2.640057   3.974543
    34  C    4.371428   5.051860   5.183729   2.949737   4.472848
    35  C    5.235003   5.986376   6.169971   3.315918   5.109062
    36  C    5.404524   6.361556   6.351264   3.788802   5.856965
    37  C    6.138116   7.132383   7.189751   4.096427   6.354283
    38  C    6.211310   7.295875   7.269554   4.296043   6.674251
    39  H    4.006946   4.448941   4.621888   3.123025   4.026459
    40  H    5.552624   6.177610   6.427147   3.718923   5.201527
    41  H    5.837139   6.813970   6.735788   4.455879   6.456081
    42  H    7.015439   8.069072   8.105931   4.918273   7.257746
    43  O    7.381386   8.597614   8.493181   5.459893   8.027064
    44  H    7.532264   8.758460   8.612922   5.758714   8.287178
    45  O    1.367227   3.663126   2.416691   2.547437   5.229543
    46  H    1.913794   3.816640   2.440527   3.492323   5.649582
                   31         32         33         34         35
    31  H    0.000000
    32  H    2.478442   0.000000
    33  C    5.744120   6.118555   0.000000
    34  C    5.970845   6.164945   1.391239   0.000000
    35  C    6.946503   7.220154   1.394688   2.398215   0.000000
    36  C    7.295043   7.274146   2.414085   1.387322   2.770885
    37  C    8.117519   8.199772   2.416532   2.775069   1.383960
    38  C    8.272349   8.224419   2.793055   2.406627   2.402405
    39  H    5.291646   5.547585   2.145607   1.087528   3.384211
    40  H    7.102639   7.479350   2.147323   3.382834   1.087658
    41  H    7.700482   7.572976   3.398369   2.147938   3.860747
    42  H    9.059160   9.109358   3.406573   3.861914   2.156071
    43  O    9.578714   9.404314   4.158996   3.674618   3.630539
    44  H    9.714682   9.473810   4.593816   3.827868   4.316057
    45  O    4.553078   2.685707   5.056050   5.045352   5.862101
    46  H    4.537092   2.290462   5.946451   5.897189   6.801854
                   36         37         38         39         40
    36  C    0.000000
    37  C    2.405842   0.000000
    38  C    1.390951   1.391189   0.000000
    39  H    2.148032   3.862590   3.392125   0.000000
    40  H    3.858527   2.144509   3.388398   4.280423   0.000000
    41  H    1.089873   3.395973   2.155687   2.471366   4.948382
    42  H    3.385267   1.086930   2.141001   4.949432   2.486788
    43  O    2.420226   2.358967   1.366822   4.562846   4.501772
    44  H    2.450810   3.166715   1.916353   4.546703   5.271849
    45  O    5.823986   6.562547   6.543914   4.773683   6.217754
    46  H    6.694316   7.521588   7.471605   5.520247   7.137573
                   41         42         43         44         45
    41  H    0.000000
    42  H    4.286160   0.000000
    43  O    2.685542   2.564730   0.000000
    44  H    2.296841   3.509220   0.965891   0.000000
    45  O    6.156241   7.362977   7.560718   7.663707   0.000000
    46  H    6.956193   8.328675   8.473363   8.532172   0.965905
                   46
    46  H    0.000000
 Stoichiometry    C24H19NO2
 Framework group  C1[X(C24H19NO2)]
 Deg. of freedom   132
 Full point group                 C1      NOp   1
 Largest Abelian subgroup         C1      NOp   1
 Largest concise Abelian subgroup C1      NOp   1
                         Standard orientation:                         
 ---------------------------------------------------------------------
 Center     Atomic      Atomic             Coordinates (Angstroms)
 Number     Number       Type             X           Y           Z
 ---------------------------------------------------------------------
      1          6           0       -6.538108   -0.217341    1.255514
      2          6           0       -7.258661    0.087287    0.107878
      3          6           0       -5.151390   -0.259049    1.219222
      4          6           0       -6.580697    0.348691   -1.075777
      5          6           0       -4.458004    0.000662    0.035726
      6          6           0       -5.193998    0.304569   -1.110911
      7          1           0       -8.345644    0.121015    0.135956
      8          1           0       -4.593910   -0.476283    2.128350
      9          1           0       -7.136138    0.581164   -1.982188
     10          1           0       -4.671509    0.488761   -2.047704
     11          6           0       -2.974479   -0.044963   -0.002770
     12          6           0       -2.240322    0.918366   -0.694597
     13          6           0       -2.265576   -1.051297    0.654611
     14          6           0       -0.856277    0.875925   -0.739808
     15          6           0       -0.881570   -1.094369    0.628888
     16          6           0       -0.155643   -0.133238   -0.077397
     17          1           0       -2.762026    1.727417   -1.202285
     18          1           0       -2.809037   -1.823891    1.195264
     19          1           0       -0.306381    1.639189   -1.284917
     20          1           0       -0.352632   -1.885069    1.155020
     21          1           0       -7.059465   -0.416189    2.189743
     22          7           0        1.257026   -0.160831   -0.103806
     23          6           0        1.965402   -1.377887   -0.174570
     24          6           0        3.190004   -1.508547    0.478017
     25          6           0        1.461496   -2.456008   -0.912094
     26          6           0        3.903051   -2.696891    0.390217
     27          6           0        2.178621   -3.638306   -0.974610
     28          6           0        3.402953   -3.775056   -0.332839
     29          1           0        3.600761   -0.690157    1.062074
     30          1           0        0.514840   -2.358097   -1.435231
     31          1           0        1.782807   -4.471654   -1.551437
     32          1           0        3.963923   -4.706428   -0.398055
     33          6           0        1.972861    1.068372   -0.045814
     34          6           0        2.971482    1.350948   -0.972341
     35          6           0        1.683086    2.012203    0.939258
     36          6           0        3.676780    2.543988   -0.910119
     37          6           0        2.365608    3.214996    0.992156
     38          6           0        3.371443    3.483300    0.069272
     39          1           0        3.205268    0.621566   -1.744392
     40          1           0        0.904271    1.798314    1.667748
     41          1           0        4.460878    2.747602   -1.639197
     42          1           0        2.139895    3.954598    1.756001
     43          8           0        4.022986    4.680331    0.173244
     44          1           0        4.695287    4.738350   -0.517835
     45          8           0        5.097214   -2.751708    1.053752
     46          1           0        5.479651   -3.631493    0.941087
 ---------------------------------------------------------------------
 Rotational constants (GHZ):           0.2747871           0.0974680           0.0767524
 Leave Link  202 at Sun Jan 17 19:26:34 2021, MaxMem=  4026531840 cpu:               0.1 elap:               0.0
 (Enter /opt/ohpc/pub/libs/gaussian/g16-A.03/sandybridge/g16/l301.exe)
 Standard basis: TZVP (5D, 7F)
 Ernie: Thresh=  0.10000D-02 Tol=  0.10000D-05 Strict=F.
 There are   654 symmetry adapted cartesian basis functions of A   symmetry.
 There are   627 symmetry adapted basis functions of A   symmetry.
   627 basis functions,  1097 primitive gaussians,   654 cartesian basis functions
    93 alpha electrons       93 beta electrons
       nuclear repulsion energy      2186.7759231597 Hartrees.
 IExCor=33909 DFT=T Ex+Corr=LC-wHPBE ExCW=0 ScaHFX=  1.000000
 ScaDFX=  1.000000  1.000000  1.000000  1.000000 ScalE2=  1.000000  1.000000
 IRadAn=      5 IRanWt=     -1 IRanGd=            0 ICorTp=0 IEmpDi=  4
 HFx  wShort=  0.000000 wLong=  0.168400 cFull=  0.000000 cShort=  0.000000 cLong=  1.000000
 DFx  wShort=  0.000000 wLong=  0.168400 cFull=  0.000000 cShort=  1.000000 cLong=  0.000000
 NAtoms=   46 NActive=   46 NUniq=   46 SFac= 1.00D+00 NAtFMM=   60 NAOKFM=F Big=F
 Integral buffers will be    131072 words long.
 Raffenetti 2 integral format.
 Two-electron integral symmetry is turned on.
 Leave Link  301 at Sun Jan 17 19:26:34 2021, MaxMem=  4026531840 cpu:               0.4 elap:               0.1
 (Enter /opt/ohpc/pub/libs/gaussian/g16-A.03/sandybridge/g16/l302.exe)
 NPDir=0 NMtPBC=     1 NCelOv=     1 NCel=       1 NClECP=     1 NCelD=      1
         NCelK=      1 NCelE2=     1 NClLst=     1 CellRange=     0.0.
 One-electron integrals computed using PRISM.
 One-electron integral symmetry used in STVInt
 NBasis=   627 RedAO= T EigKep=  6.83D-06  NBF=   627
 NBsUse=   627 1.00D-06 EigRej= -1.00D+00 NBFU=   627
 Precomputing XC quadrature grid using
 IXCGrd= 4 IRadAn=           5 IRanWt=          -1 IRanGd=           0 AccXCQ= 0.00D+00.
 Generated NRdTot=       0 NPtTot=           0 NUsed=           0 NTot=          32
 NSgBfM=   623   621   621   623   623 MxSgAt=    46 MxSgA2=    46.
 Leave Link  302 at Sun Jan 17 19:26:35 2021, MaxMem=  4026531840 cpu:               9.0 elap:               1.2
 (Enter /opt/ohpc/pub/libs/gaussian/g16-A.03/sandybridge/g16/l303.exe)
 DipDrv:  MaxL=1.
 Leave Link  303 at Sun Jan 17 19:26:35 2021, MaxMem=  4026531840 cpu:               0.7 elap:               0.1
 (Enter /opt/ohpc/pub/libs/gaussian/g16-A.03/sandybridge/g16/l401.exe)
 ExpMin= 9.52D-02 ExpMax= 2.70D+04 ExpMxC= 9.22D+02 IAcc=3 IRadAn=         5 AccDes= 0.00D+00
 Harris functional with IExCor=33909 and IRadAn=       5 diagonalized for initial guess.
 HarFok:  IExCor=33909 AccDes= 0.00D+00 IRadAn=         5 IDoV= 1 UseB2=F ITyADJ=14
 ICtDFT=  3500011 ScaDFX=  1.000000  1.000000  1.000000  1.000000
 FoFCou: FMM=F IPFlag=           0 FMFlag=      100000 FMFlg1=           0
         NFxFlg=           0 DoJE=T BraDBF=F KetDBF=T FulRan=T
         wScrn=  0.000000 ICntrl=       500 IOpCl=  0 I1Cent=   200000004 NGrid=           0
         NMat0=    1 NMatS0=      1 NMatT0=    0 NMatD0=    1 NMtDS0=    0 NMtDT0=    0
 Petite list used in FoFCou.
 Harris En= -1113.72140605750    
 JPrj=0 DoOrth=F DoCkMO=F.
 Leave Link  401 at Sun Jan 17 19:26:42 2021, MaxMem=  4026531840 cpu:              52.3 elap:               6.6
 (Enter /opt/ohpc/pub/libs/gaussian/g16-A.03/sandybridge/g16/l502.exe)
 Integral symmetry usage will be decided dynamically.
 Closed shell SCF:
 Using DIIS extrapolation, IDIIS=    10.
 NGot=  4026531840 LenX=  4025664800 LenY=  4025236430
 Requested convergence on RMS density matrix=1.00D-06 within  32 cycles.
 Requested convergence on MAX density matrix=1.00D-04.
 Requested convergence on             energy=1.00D-04.
 Virtual orbitals will be shifted by   0.500 hartree.
 No special actions if energy rises.
 Dynamic level shift is on during FON iterations.

 Cycle   1  Pass 1  IDiag  1:
 FoFJK:  IHMeth= 1 ICntrl=       0 DoSepK=T KAlg= 0 I1Cent=           0 FoldK=F
 IRaf=         1 NMat=       1 IRICut=       1 DoRegI=T DoRafI=F ISym2E= 0 IDoP0=0 IntGTp=1.
 FoFCou: FMM=F IPFlag=           0 FMFlag=      100000 FMFlg1=           0
         NFxFlg=           0 DoJE=T BraDBF=F KetDBF=F FulRan=T
         wScrn=  0.000000 ICntrl=       500 IOpCl=  0 I1Cent=           0 NGrid=           0
         NMat0=    1 NMatS0=      1 NMatT0=    0 NMatD0=    1 NMtDS0=    0 NMtDT0=    0
 Symmetry not used in FoFCou.
 E= -1129.99652557629    
 DIIS: error= 2.27D-02 at cycle   1 NSaved=   1.
 NSaved= 1 IEnMin= 1 EnMin= -1129.99652557629     IErMin= 1 ErrMin= 2.27D-02
 ErrMax= 2.27D-02  0.00D+00 EMaxC= 1.00D+00 BMatC= 4.82D-01 BMatP= 4.82D-01
 IDIUse=1 WtCom= 1.00D+00 WtEn= 0.00D+00
 Coeff-Com:  0.100D+01
 Coeff:      0.100D+01
 Gap=     0.281 Goal=   None    Shift=    0.500
 T= 1329. Gap= 0.734 NK=0 IS=   94 IE=  627 IFin=   93
          NO(<0.9)=   0  NV(>0.1)=   0     93.00e < EF      0.00e >EF  Err=0.0D+00
 GapD=    0.281 DampG=1.000 DampE=0.500 DampFc=0.5000 IDamp=-1.
 Damping current iteration by 5.00D-01
 RMSDP=2.28D-03 MaxDP=1.19D-01              OVMax= 7.40D-02

 Cycle   2  Pass 1  IDiag  1:
 E= -1130.28971826333     Delta-E=       -0.293192687033 Rises=F Damp=T
 DIIS: error= 1.03D-02 at cycle   2 NSaved=   2.
 NSaved= 2 IEnMin= 2 EnMin= -1130.28971826333     IErMin= 2 ErrMin= 1.03D-02
 ErrMax= 1.03D-02  0.00D+00 EMaxC= 1.00D+00 BMatC= 7.65D-02 BMatP= 4.82D-01
 IDIUse=1 WtCom= 1.00D+00 WtEn= 0.00D+00
 Coeff-Com: -0.508D+00 0.151D+01
 Coeff:     -0.508D+00 0.151D+01
 Gap=     0.294 Goal=   None    Shift=    0.500
 T= 1209. Gap= 0.739 NK=0 IS=   94 IE=  627 IFin=   93
          NO(<0.9)=   0  NV(>0.1)=   0     93.00e < EF      0.00e >EF  Err=0.0D+00
 GapD=    0.294 DampG=1.000 DampE=0.500 DampFc=0.5000 IDamp=-1.
 Damping current iteration by 5.00D-01
 RMSDP=1.33D-03 MaxDP=8.93D-02 DE=-2.93D-01 OVMax= 1.72D-02

 Cycle   3  Pass 1  IDiag  1:
 E= -1130.38969171644     Delta-E=       -0.099973453110 Rises=F Damp=T
 DIIS: error= 4.55D-03 at cycle   3 NSaved=   3.
 NSaved= 3 IEnMin= 3 EnMin= -1130.38969171644     IErMin= 3 ErrMin= 4.55D-03
 ErrMax= 4.55D-03  0.00D+00 EMaxC= 1.00D+00 BMatC= 1.38D-02 BMatP= 7.65D-02
 IDIUse=1 WtCom= 1.00D+00 WtEn= 0.00D+00
 Coeff-Com:  0.227D-01-0.728D+00 0.170D+01
 Coeff:      0.227D-01-0.728D+00 0.170D+01
 Gap=     0.249 Goal=   None    Shift=    0.500
 T=  972. Gap= 0.748 NK=0 IS=   94 IE=  627 IFin=   93
          NO(<0.9)=   0  NV(>0.1)=   0     93.00e < EF      0.00e >EF  Err=0.0D+00
 GapD=    0.249 DampG=1.000 DampE=1.000 DampFc=1.0000 IDamp=-1.
 RMSDP=8.13D-04 MaxDP=8.47D-02 DE=-1.00D-01 OVMax= 8.85D-03

 Cycle   4  Pass 1  IDiag  1:
 E= -1130.47221037319     Delta-E=       -0.082518656753 Rises=F Damp=F
 DIIS: error= 1.20D-03 at cycle   4 NSaved=   4.
 NSaved= 4 IEnMin= 4 EnMin= -1130.47221037319     IErMin= 4 ErrMin= 1.20D-03
 ErrMax= 1.20D-03  0.00D+00 EMaxC= 1.00D+00 BMatC= 7.77D-04 BMatP= 1.38D-02
 IDIUse=1 WtCom= 1.00D+00 WtEn= 0.00D+00
 Coeff-Com:  0.712D-01-0.190D+00 0.186D+00 0.933D+00
 Coeff:      0.712D-01-0.190D+00 0.186D+00 0.933D+00
 Gap=     0.246 Goal=   None    Shift=    0.500
 T=  462. Gap= 0.746 NK=0 IS=   94 IE=  627 IFin=   93
          NO(<0.9)=   0  NV(>0.1)=   0     93.00e < EF      0.00e >EF  Err=0.0D+00
 GapD=    0.246 DampG=1.000 DampE=1.000 DampFc=1.0000 IDamp=-1.
 RMSDP=1.93D-04 MaxDP=1.26D-02 DE=-8.25D-02 OVMax= 5.98D-03

 Cycle   5  Pass 1  IDiag  1:
 E= -1130.47293043670     Delta-E=       -0.000720063511 Rises=F Damp=F
 DIIS: error= 3.85D-04 at cycle   5 NSaved=   5.
 NSaved= 5 IEnMin= 5 EnMin= -1130.47293043670     IErMin= 5 ErrMin= 3.85D-04
 ErrMax= 3.85D-04  0.00D+00 EMaxC= 1.00D+00 BMatC= 1.07D-04 BMatP= 7.77D-04
 IDIUse=1 WtCom= 1.00D+00 WtEn= 0.00D+00
 Coeff-Com:  0.226D-01-0.874D-02-0.621D-01 0.318D-01 0.102D+01
 Coeff:      0.226D-01-0.874D-02-0.621D-01 0.318D-01 0.102D+01
 Gap=     0.246 Goal=   None    Shift=    0.500
 RMSDP=1.23D-04 MaxDP=6.23D-03 DE=-7.20D-04 OVMax= 4.06D-03

 Cycle   6  Pass 1  IDiag  1:
 E= -1130.47310692905     Delta-E=       -0.000176492347 Rises=F Damp=F
 DIIS: error= 4.42D-04 at cycle   6 NSaved=   6.
 NSaved= 6 IEnMin= 6 EnMin= -1130.47310692905     IErMin= 5 ErrMin= 3.85D-04
 ErrMax= 4.42D-04  0.00D+00 EMaxC= 1.00D+00 BMatC= 1.94D-05 BMatP= 1.07D-04
 IDIUse=1 WtCom= 1.00D+00 WtEn= 0.00D+00
 Coeff-Com: -0.907D-02 0.450D-01-0.687D-01-0.169D+00 0.406D-02 0.120D+01
 Coeff:     -0.907D-02 0.450D-01-0.687D-01-0.169D+00 0.406D-02 0.120D+01
 Gap=     0.246 Goal=   None    Shift=    0.500
 RMSDP=7.42D-05 MaxDP=4.10D-03 DE=-1.76D-04 OVMax= 3.80D-03

 Cycle   7  Pass 1  IDiag  1:
 E= -1130.47317060550     Delta-E=       -0.000063676455 Rises=F Damp=F
 DIIS: error= 2.84D-04 at cycle   7 NSaved=   7.
 NSaved= 7 IEnMin= 7 EnMin= -1130.47317060550     IErMin= 7 ErrMin= 2.84D-04
 ErrMax= 2.84D-04  0.00D+00 EMaxC= 1.00D+00 BMatC= 7.04D-06 BMatP= 1.94D-05
 IDIUse=1 WtCom= 1.00D+00 WtEn= 0.00D+00
 Coeff-Com: -0.791D-02 0.153D-01-0.823D-02-0.494D-01-0.229D+00-0.109D+00
 Coeff-Com:  0.139D+01
 Coeff:     -0.791D-02 0.153D-01-0.823D-02-0.494D-01-0.229D+00-0.109D+00
 Coeff:      0.139D+01
 Gap=     0.246 Goal=   None    Shift=    0.500
 RMSDP=4.01D-05 MaxDP=2.29D-03 DE=-6.37D-05 OVMax= 2.90D-03

 Cycle   8  Pass 1  IDiag  1:
 E= -1130.47320086480     Delta-E=       -0.000030259294 Rises=F Damp=F
 DIIS: error= 2.12D-04 at cycle   8 NSaved=   8.
 NSaved= 8 IEnMin= 8 EnMin= -1130.47320086480     IErMin= 8 ErrMin= 2.12D-04
 ErrMax= 2.12D-04  0.00D+00 EMaxC= 1.00D+00 BMatC= 3.19D-06 BMatP= 7.04D-06
 IDIUse=1 WtCom= 1.00D+00 WtEn= 0.00D+00
 Coeff-Com:  0.386D-03-0.132D-01 0.248D-01 0.438D-01-0.106D+00-0.581D+00
 Coeff-Com:  0.151D+00 0.148D+01
 Coeff:      0.386D-03-0.132D-01 0.248D-01 0.438D-01-0.106D+00-0.581D+00
 Coeff:      0.151D+00 0.148D+01
 Gap=     0.246 Goal=   None    Shift=    0.500
 RMSDP=2.04D-05 MaxDP=1.10D-03 DE=-3.03D-05 OVMax= 2.33D-03

 Cycle   9  Pass 1  IDiag  1:
 E= -1130.47321664291     Delta-E=       -0.000015778111 Rises=F Damp=F
 DIIS: error= 1.45D-04 at cycle   9 NSaved=   9.
 NSaved= 9 IEnMin= 9 EnMin= -1130.47321664291     IErMin= 9 ErrMin= 1.45D-04
 ErrMax= 1.45D-04  0.00D+00 EMaxC= 1.00D+00 BMatC= 1.44D-06 BMatP= 3.19D-06
 IDIUse=1 WtCom= 1.00D+00 WtEn= 0.00D+00
 Coeff-Com:  0.315D-02-0.871D-02 0.736D-02 0.229D-01 0.118D+00-0.203D+00
 Coeff-Com: -0.605D+00-0.403D+00 0.207D+01
 Coeff:      0.315D-02-0.871D-02 0.736D-02 0.229D-01 0.118D+00-0.203D+00
 Coeff:     -0.605D+00-0.403D+00 0.207D+01
 Gap=     0.246 Goal=   None    Shift=    0.500
 RMSDP=9.66D-06 MaxDP=4.25D-04 DE=-1.58D-05 OVMax= 1.84D-03

 Cycle  10  Pass 1  IDiag  1:
 E= -1130.47322475647     Delta-E=       -0.000008113563 Rises=F Damp=F
 DIIS: error= 9.96D-05 at cycle  10 NSaved=  10.
 NSaved=10 IEnMin=10 EnMin= -1130.47322475647     IErMin=10 ErrMin= 9.96D-05
 ErrMax= 9.96D-05  0.00D+00 EMaxC= 1.00D+00 BMatC= 7.38D-07 BMatP= 1.44D-06
 IDIUse=1 WtCom= 1.00D+00 WtEn= 0.00D+00
 Coeff-Com:  0.849D-03 0.171D-02-0.585D-02 0.751D-04 0.117D+00-0.375D-01
 Coeff-Com: -0.327D+00-0.592D+00 0.411D+00 0.143D+01
 Coeff:      0.849D-03 0.171D-02-0.585D-02 0.751D-04 0.117D+00-0.375D-01
 Coeff:     -0.327D+00-0.592D+00 0.411D+00 0.143D+01
 Gap=     0.246 Goal=   None    Shift=    0.500
 RMSDP=5.09D-06 MaxDP=1.32D-04 DE=-8.11D-06 OVMax= 1.30D-03

 Cycle  11  Pass 1  IDiag  1:
 E= -1130.47322854882     Delta-E=       -0.000003792345 Rises=F Damp=F
 DIIS: error= 7.16D-05 at cycle  11 NSaved=  11.
 NSaved=11 IEnMin=11 EnMin= -1130.47322854882     IErMin=11 ErrMin= 7.16D-05
 ErrMax= 7.16D-05  0.00D+00 EMaxC= 1.00D+00 BMatC= 3.46D-07 BMatP= 7.38D-07
 IDIUse=1 WtCom= 1.00D+00 WtEn= 0.00D+00
 Coeff-Com: -0.107D-02 0.577D-02-0.767D-02-0.742D-02 0.316D-01 0.194D-01
 Coeff-Com:  0.811D-01-0.199D+00-0.631D+00-0.287D+00 0.200D+01
 Coeff:     -0.107D-02 0.577D-02-0.767D-02-0.742D-02 0.316D-01 0.194D-01
 Coeff:      0.811D-01-0.199D+00-0.631D+00-0.287D+00 0.200D+01
 Gap=     0.246 Goal=   None    Shift=    0.500
 RMSDP=3.49D-06 MaxDP=9.30D-05 DE=-3.79D-06 OVMax= 9.39D-04

 Cycle  12  Pass 1  IDiag  1:
 E= -1130.47323033693     Delta-E=       -0.000001788109 Rises=F Damp=F
 DIIS: error= 5.10D-05 at cycle  12 NSaved=  12.
 NSaved=12 IEnMin=12 EnMin= -1130.47323033693     IErMin=12 ErrMin= 5.10D-05
 ErrMax= 5.10D-05  0.00D+00 EMaxC= 1.00D+00 BMatC= 1.82D-07 BMatP= 3.46D-07
 IDIUse=1 WtCom= 1.00D+00 WtEn= 0.00D+00
 Coeff-Com: -0.643D-03 0.123D-02-0.218D-03-0.223D-02-0.182D-01-0.153D-01
 Coeff-Com:  0.172D+00 0.118D+00-0.294D+00-0.129D+01 0.650D+00 0.168D+01
 Coeff:     -0.643D-03 0.123D-02-0.218D-03-0.223D-02-0.182D-01-0.153D-01
 Coeff:      0.172D+00 0.118D+00-0.294D+00-0.129D+01 0.650D+00 0.168D+01
 Gap=     0.246 Goal=   None    Shift=    0.500
 RMSDP=2.28D-06 MaxDP=7.98D-05 DE=-1.79D-06 OVMax= 6.55D-04

 Cycle  13  Pass 1  IDiag  1:
 E= -1130.47323116726     Delta-E=       -0.000000830339 Rises=F Damp=F
 DIIS: error= 3.57D-05 at cycle  13 NSaved=  13.
 NSaved=13 IEnMin=13 EnMin= -1130.47323116726     IErMin=13 ErrMin= 3.57D-05
 ErrMax= 3.57D-05  0.00D+00 EMaxC= 1.00D+00 BMatC= 9.01D-08 BMatP= 1.82D-07
 IDIUse=1 WtCom= 1.00D+00 WtEn= 0.00D+00
 Coeff-Com: -0.324D-04-0.116D-02 0.244D-02 0.376D-03-0.130D-01-0.295D-01
 Coeff-Com:  0.827D-01 0.101D+00 0.924D-01-0.881D+00 0.125D+00-0.311D+00
 Coeff-Com:  0.183D+01
 Coeff:     -0.324D-04-0.116D-02 0.244D-02 0.376D-03-0.130D-01-0.295D-01
 Coeff:      0.827D-01 0.101D+00 0.924D-01-0.881D+00 0.125D+00-0.311D+00
 Coeff:      0.183D+01
 Gap=     0.246 Goal=   None    Shift=    0.500
 RMSDP=1.43D-06 MaxDP=4.38D-05 DE=-8.30D-07 OVMax= 4.46D-04

 Cycle  14  Pass 1  IDiag  1:
 E= -1130.47323154318     Delta-E=       -0.000000375913 Rises=F Damp=F
 DIIS: error= 2.49D-05 at cycle  14 NSaved=  14.
 NSaved=14 IEnMin=14 EnMin= -1130.47323154318     IErMin=14 ErrMin= 2.49D-05
 ErrMax= 2.49D-05  0.00D+00 EMaxC= 1.00D+00 BMatC= 4.45D-08 BMatP= 9.01D-08
 IDIUse=1 WtCom= 1.00D+00 WtEn= 0.00D+00
 Coeff-Com:  0.214D-03-0.946D-03 0.115D-02 0.756D-03 0.413D-02-0.161D-01
 Coeff-Com: -0.204D-01-0.959D-02 0.220D+00 0.893D-02-0.893D-01-0.150D+01
 Coeff-Com:  0.522D+00 0.188D+01
 Coeff:      0.214D-03-0.946D-03 0.115D-02 0.756D-03 0.413D-02-0.161D-01
 Coeff:     -0.204D-01-0.959D-02 0.220D+00 0.893D-02-0.893D-01-0.150D+01
 Coeff:      0.522D+00 0.188D+01
 Gap=     0.246 Goal=   None    Shift=    0.500
 RMSDP=9.71D-07 MaxDP=2.95D-05 DE=-3.76D-07 OVMax= 3.08D-04

 SCF Done:  E(RLC-wHPBE) =  -1130.47323154     A.U. after   14 cycles
            NFock= 14  Conv=0.97D-06     -V/T= 2.0043
 KE= 1.125585509817D+03 PE=-7.005320261264D+03 EE= 2.562485596744D+03
 Leave Link  502 at Sun Jan 17 19:37:26 2021, MaxMem=  4026531840 cpu:            5144.0 elap:             644.8
 (Enter /opt/ohpc/pub/libs/gaussian/g16-A.03/sandybridge/g16/l508.exe)
 QCSCF skips out because SCF is already converged.
 Leave Link  508 at Sun Jan 17 19:37:26 2021, MaxMem=  4026531840 cpu:               0.0 elap:               0.0
 (Enter /opt/ohpc/pub/libs/gaussian/g16-A.03/sandybridge/g16/l601.exe)
 Copying SCF densities to generalized density rwf, IOpCl= 0 IROHF=0.

 **********************************************************************

            Population analysis using the SCF density.

 **********************************************************************

 Orbital symmetries:
       Occupied  (A) (A) (A) (A) (A) (A) (A) (A) (A) (A) (A) (A)
                 (A) (A) (A) (A) (A) (A) (A) (A) (A) (A) (A) (A)
                 (A) (A) (A) (A) (A) (A) (A) (A) (A) (A) (A) (A)
                 (A) (A) (A) (A) (A) (A) (A) (A) (A) (A) (A) (A)
                 (A) (A) (A) (A) (A) (A) (A) (A) (A) (A) (A) (A)
                 (A) (A) (A) (A) (A) (A) (A) (A) (A) (A) (A) (A)
                 (A) (A) (A) (A) (A) (A) (A) (A) (A) (A) (A) (A)
                 (A) (A) (A) (A) (A) (A) (A) (A) (A)
       Virtual   (A) (A) (A) (A) (A) (A) (A) (A) (A) (A) (A) (A)
                 (A) (A) (A) (A) (A) (A) (A) (A) (A) (A) (A) (A)
                 (A) (A) (A) (A) (A) (A) (A) (A) (A) (A) (A) (A)
                 (A) (A) (A) (A) (A) (A) (A) (A) (A) (A) (A) (A)
                 (A) (A) (A) (A) (A) (A) (A) (A) (A) (A) (A) (A)
                 (A) (A) (A) (A) (A) (A) (A) (A) (A) (A) (A) (A)
                 (A) (A) (A) (A) (A) (A) (A) (A) (A) (A) (A) (A)
                 (A) (A) (A) (A) (A) (A) (A) (A) (A) (A) (A) (A)
                 (A) (A) (A) (A) (A) (A) (A) (A) (A) (A) (A) (A)
                 (A) (A) (A) (A) (A) (A) (A) (A) (A) (A) (A) (A)
                 (A) (A) (A) (A) (A) (A) (A) (A) (A) (A) (A) (A)
                 (A) (A) (A) (A) (A) (A) (A) (A) (A) (A) (A) (A)
                 (A) (A) (A) (A) (A) (A) (A) (A) (A) (A) (A) (A)
                 (A) (A) (A) (A) (A) (A) (A) (A) (A) (A) (A) (A)
                 (A) (A) (A) (A) (A) (A) (A) (A) (A) (A) (A) (A)
                 (A) (A) (A) (A) (A) (A) (A) (A) (A) (A) (A) (A)
                 (A) (A) (A) (A) (A) (A) (A) (A) (A) (A) (A) (A)
                 (A) (A) (A) (A) (A) (A) (A) (A) (A) (A) (A) (A)
                 (A) (A) (A) (A) (A) (A) (A) (A) (A) (A) (A) (A)
                 (A) (A) (A) (A) (A) (A) (A) (A) (A) (A) (A) (A)
                 (A) (A) (A) (A) (A) (A) (A) (A) (A) (A) (A) (A)
                 (A) (A) (A) (A) (A) (A) (A) (A) (A) (A) (A) (A)
                 (A) (A) (A) (A) (A) (A) (A) (A) (A) (A) (A) (A)
                 (A) (A) (A) (A) (A) (A) (A) (A) (A) (A) (A) (A)
                 (A) (A) (A) (A) (A) (A) (A) (A) (A) (A) (A) (A)
                 (A) (A) (A) (A) (A) (A) (A) (A) (A) (A) (A) (A)
                 (A) (A) (A) (A) (A) (A) (A) (A) (A) (A) (A) (A)
                 (A) (A) (A) (A) (A) (A) (A) (A) (A) (A) (A) (A)
                 (A) (A) (A) (A) (A) (A) (A) (A) (A) (A) (A) (A)
                 (A) (A) (A) (A) (A) (A) (A) (A) (A) (A) (A) (A)
                 (A) (A) (A) (A) (A) (A) (A) (A) (A) (A) (A) (A)
                 (A) (A) (A) (A) (A) (A) (A) (A) (A) (A) (A) (A)
                 (A) (A) (A) (A) (A) (A) (A) (A) (A) (A) (A) (A)
                 (A) (A) (A) (A) (A) (A) (A) (A) (A) (A) (A) (A)
                 (A) (A) (A) (A) (A) (A) (A) (A) (A) (A) (A) (A)
                 (A) (A) (A) (A) (A) (A) (A) (A) (A) (A) (A) (A)
                 (A) (A) (A) (A) (A) (A) (A) (A) (A) (A) (A) (A)
                 (A) (A) (A) (A) (A) (A) (A) (A) (A) (A) (A) (A)
                 (A) (A) (A) (A) (A) (A) (A) (A) (A) (A) (A) (A)
                 (A) (A) (A) (A) (A) (A) (A) (A) (A) (A) (A) (A)
                 (A) (A) (A) (A) (A) (A) (A) (A) (A) (A) (A) (A)
                 (A) (A) (A) (A) (A) (A) (A) (A) (A) (A) (A) (A)
                 (A) (A) (A) (A) (A) (A) (A) (A) (A) (A) (A) (A)
                 (A) (A) (A) (A) (A) (A) (A) (A) (A) (A) (A) (A)
                 (A) (A) (A) (A) (A) (A)
 The electronic state is 1-A.
 Alpha  occ. eigenvalues --  -18.87988 -18.87616 -14.11330 -10.04405 -10.04113
 Alpha  occ. eigenvalues --  -10.02417 -10.02164 -10.01777  -9.99104  -9.98866
 Alpha  occ. eigenvalues --   -9.98775  -9.98709  -9.98616  -9.98444  -9.98225
 Alpha  occ. eigenvalues --   -9.98135  -9.98124  -9.98061  -9.98057  -9.97944
 Alpha  occ. eigenvalues --   -9.97942  -9.97928  -9.97880  -9.97874  -9.97739
 Alpha  occ. eigenvalues --   -9.97265  -9.97199  -1.07667  -1.07307  -0.98708
 Alpha  occ. eigenvalues --   -0.89265  -0.88409  -0.87654  -0.86244  -0.80598
 Alpha  occ. eigenvalues --   -0.78798  -0.78435  -0.77660  -0.77510  -0.76972
 Alpha  occ. eigenvalues --   -0.76136  -0.73400  -0.67896  -0.67404  -0.65999
 Alpha  occ. eigenvalues --   -0.65226  -0.64392  -0.63386  -0.62918  -0.61626
 Alpha  occ. eigenvalues --   -0.59650  -0.58964  -0.57986  -0.56474  -0.54109
 Alpha  occ. eigenvalues --   -0.53031  -0.52845  -0.51736  -0.50939  -0.50431
 Alpha  occ. eigenvalues --   -0.49070  -0.48577  -0.48201  -0.47720  -0.47451
 Alpha  occ. eigenvalues --   -0.47152  -0.46669  -0.46263  -0.46072  -0.45840
 Alpha  occ. eigenvalues --   -0.45354  -0.43957  -0.43417  -0.43112  -0.42150
 Alpha  occ. eigenvalues --   -0.41926  -0.41405  -0.40375  -0.39690  -0.39493
 Alpha  occ. eigenvalues --   -0.39024  -0.38826  -0.38306  -0.37824  -0.35744
 Alpha  occ. eigenvalues --   -0.33102  -0.32083  -0.31268  -0.31207  -0.30395
 Alpha  occ. eigenvalues --   -0.29007  -0.28122  -0.23518
 Alpha virt. eigenvalues --    0.01091   0.02047   0.03061   0.03668   0.04073
 Alpha virt. eigenvalues --    0.04963   0.05365   0.07789   0.08092   0.08272
 Alpha virt. eigenvalues --    0.10272   0.10847   0.11329   0.11833   0.12625
 Alpha virt. eigenvalues --    0.13358   0.13819   0.14150   0.14644   0.15197
 Alpha virt. eigenvalues --    0.15845   0.16303   0.16563   0.17051   0.17188
 Alpha virt. eigenvalues --    0.17781   0.18163   0.18397   0.19335   0.19848
 Alpha virt. eigenvalues --    0.20031   0.20608   0.21038   0.21311   0.21833
 Alpha virt. eigenvalues --    0.23109   0.23694   0.24537   0.24909   0.25560
 Alpha virt. eigenvalues --    0.25762   0.26171   0.26393   0.26586   0.26968
 Alpha virt. eigenvalues --    0.27320   0.27710   0.27979   0.28108   0.28516
 Alpha virt. eigenvalues --    0.28877   0.29136   0.29333   0.29482   0.29766
 Alpha virt. eigenvalues --    0.29842   0.30274   0.30560   0.31636   0.31906
 Alpha virt. eigenvalues --    0.32309   0.32805   0.33054   0.33271   0.33469
 Alpha virt. eigenvalues --    0.33943   0.34212   0.34485   0.34962   0.35423
 Alpha virt. eigenvalues --    0.35989   0.36580   0.36976   0.37308   0.37753
 Alpha virt. eigenvalues --    0.38256   0.38745   0.38952   0.39251   0.39560
 Alpha virt. eigenvalues --    0.40057   0.40527   0.40795   0.40993   0.41143
 Alpha virt. eigenvalues --    0.41625   0.42062   0.42491   0.42737   0.42896
 Alpha virt. eigenvalues --    0.43451   0.43520   0.43920   0.44106   0.44286
 Alpha virt. eigenvalues --    0.44778   0.45169   0.45324   0.45924   0.46483
 Alpha virt. eigenvalues --    0.46765   0.47255   0.47442   0.47562   0.47904
 Alpha virt. eigenvalues --    0.48284   0.48336   0.48657   0.49256   0.49814
 Alpha virt. eigenvalues --    0.50077   0.50188   0.50621   0.50646   0.50826
 Alpha virt. eigenvalues --    0.51849   0.52455   0.52854   0.53107   0.53242
 Alpha virt. eigenvalues --    0.53869   0.54192   0.54717   0.54971   0.55107
 Alpha virt. eigenvalues --    0.55758   0.55840   0.56012   0.56627   0.57271
 Alpha virt. eigenvalues --    0.57432   0.58385   0.59335   0.59561   0.59847
 Alpha virt. eigenvalues --    0.59979   0.60761   0.61519   0.62381   0.62815
 Alpha virt. eigenvalues --    0.63037   0.63695   0.64329   0.64717   0.65362
 Alpha virt. eigenvalues --    0.67338   0.67623   0.68137   0.68698   0.69884
 Alpha virt. eigenvalues --    0.70533   0.70795   0.71332   0.71935   0.72704
 Alpha virt. eigenvalues --    0.72717   0.73464   0.74460   0.74561   0.74724
 Alpha virt. eigenvalues --    0.74916   0.75523   0.76100   0.76161   0.76750
 Alpha virt. eigenvalues --    0.77347   0.78079   0.79642   0.79869   0.80402
 Alpha virt. eigenvalues --    0.80847   0.82045   0.82603   0.83970   0.84368
 Alpha virt. eigenvalues --    0.85467   0.86955   0.87532   0.87955   0.89779
 Alpha virt. eigenvalues --    0.90733   0.91934   0.92112   0.94269   0.94804
 Alpha virt. eigenvalues --    0.96670   0.98068   1.00166   1.15250   1.19102
 Alpha virt. eigenvalues --    1.20303   1.23304   1.24742   1.24983   1.26196
 Alpha virt. eigenvalues --    1.26572   1.27034   1.27487   1.27739   1.27876
 Alpha virt. eigenvalues --    1.28341   1.28498   1.29125   1.29483   1.29820
 Alpha virt. eigenvalues --    1.30304   1.31097   1.31705   1.32364   1.32515
 Alpha virt. eigenvalues --    1.32609   1.33558   1.33684   1.34184   1.34578
 Alpha virt. eigenvalues --    1.34912   1.35019   1.35431   1.35618   1.36093
 Alpha virt. eigenvalues --    1.37078   1.37816   1.38053   1.38602   1.39036
 Alpha virt. eigenvalues --    1.39360   1.41669   1.41923   1.43860   1.44354
 Alpha virt. eigenvalues --    1.44506   1.44978   1.45168   1.45236   1.45494
 Alpha virt. eigenvalues --    1.46018   1.46613   1.47148   1.47230   1.47411
 Alpha virt. eigenvalues --    1.47443   1.47661   1.47911   1.48529   1.48962
 Alpha virt. eigenvalues --    1.49138   1.50063   1.50184   1.50272   1.50580
 Alpha virt. eigenvalues --    1.50798   1.51246   1.51818   1.52197   1.52474
 Alpha virt. eigenvalues --    1.53617   1.53727   1.54457   1.55267   1.55409
 Alpha virt. eigenvalues --    1.55610   1.55907   1.56184   1.56510   1.56718
 Alpha virt. eigenvalues --    1.56964   1.57439   1.57713   1.57836   1.58122
 Alpha virt. eigenvalues --    1.58408   1.59097   1.59535   1.60125   1.60841
 Alpha virt. eigenvalues --    1.61123   1.61712   1.62048   1.62772   1.63093
 Alpha virt. eigenvalues --    1.64402   1.65665   1.66456   1.67798   1.68927
 Alpha virt. eigenvalues --    1.69783   1.70350   1.70464   1.71207   1.72423
 Alpha virt. eigenvalues --    1.74714   1.76415   1.77659   1.77993   1.78642
 Alpha virt. eigenvalues --    1.79069   1.79596   1.79864   1.80289   1.80811
 Alpha virt. eigenvalues --    1.81135   1.81570   1.81922   1.82244   1.83060
 Alpha virt. eigenvalues --    1.83169   1.83314   1.84322   1.84682   1.85569
 Alpha virt. eigenvalues --    1.86326   1.86721   1.88600   1.89172   1.90078
 Alpha virt. eigenvalues --    1.90417   1.90685   1.91041   1.91736   1.92014
 Alpha virt. eigenvalues --    1.92339   1.92675   1.93193   1.93376   1.93762
 Alpha virt. eigenvalues --    1.94475   1.95244   1.95550   1.95874   1.95966
 Alpha virt. eigenvalues --    1.96299   1.96793   1.97398   1.97800   1.98439
 Alpha virt. eigenvalues --    1.99985   2.00332   2.01313   2.01721   2.02203
 Alpha virt. eigenvalues --    2.02439   2.03378   2.03604   2.04149   2.04650
 Alpha virt. eigenvalues --    2.05934   2.07389   2.07702   2.09452   2.11162
 Alpha virt. eigenvalues --    2.12312   2.13216   2.14395   2.15551   2.18964
 Alpha virt. eigenvalues --    2.20700   2.21488   2.22808   2.23352   2.24614
 Alpha virt. eigenvalues --    2.25874   2.26873   2.27257   2.28421   2.28763
 Alpha virt. eigenvalues --    2.30026   2.31154   2.31241   2.31708   2.32400
 Alpha virt. eigenvalues --    2.32989   2.33297   2.33595   2.34023   2.34095
 Alpha virt. eigenvalues --    2.34839   2.34980   2.35794   2.36050   2.36425
 Alpha virt. eigenvalues --    2.36633   2.37024   2.37875   2.38284   2.38867
 Alpha virt. eigenvalues --    2.39082   2.39149   2.39657   2.40403   2.40560
 Alpha virt. eigenvalues --    2.40967   2.41670   2.42658   2.47183   2.48251
 Alpha virt. eigenvalues --    2.49451   2.50415   2.51495   2.51679   2.52470
 Alpha virt. eigenvalues --    2.53626   2.54116   2.54964   2.56009   2.57805
 Alpha virt. eigenvalues --    2.57974   2.58138   2.59876   2.61473   2.61945
 Alpha virt. eigenvalues --    2.62317   2.62655   2.63196   2.64441   2.65192
 Alpha virt. eigenvalues --    2.65711   2.66334   2.66529   2.66865   2.67595
 Alpha virt. eigenvalues --    2.68273   2.69400   2.69876   2.70831   2.71467
 Alpha virt. eigenvalues --    2.72271   2.73638   2.74514   2.75988   2.77503
 Alpha virt. eigenvalues --    2.78518   2.79787   2.79995   2.80751   2.82597
 Alpha virt. eigenvalues --    2.82900   2.83804   2.84987   2.86673   2.87475
 Alpha virt. eigenvalues --    2.89236   2.89822   2.93689   2.94229   2.95209
 Alpha virt. eigenvalues --    2.96186   2.97548   2.98518   2.99548   2.99843
 Alpha virt. eigenvalues --    3.00227   3.01297   3.02703   3.03790   3.04538
 Alpha virt. eigenvalues --    3.04854   3.05334   3.05712   3.06433   3.08302
 Alpha virt. eigenvalues --    3.09518   3.10087   3.11474   3.11609   3.13043
 Alpha virt. eigenvalues --    3.14180   3.14904   3.15832   3.17265   3.17844
 Alpha virt. eigenvalues --    3.18017   3.19441   3.20441   3.20849   3.21779
 Alpha virt. eigenvalues --    3.22338   3.23932   3.24517   3.25500   3.27075
 Alpha virt. eigenvalues --    3.28069   3.29844   3.30304   3.31005   3.33048
 Alpha virt. eigenvalues --    3.35173   3.37190   3.37872   3.40376   3.41105
 Alpha virt. eigenvalues --    3.41537   3.42208   3.47606   3.54687   3.55596
 Alpha virt. eigenvalues --    3.56792   3.58287   3.58908   3.59570   3.72453
 Alpha virt. eigenvalues --    3.80784   3.84438   3.91633   4.06804   4.07624
 Alpha virt. eigenvalues --    4.31504   4.32088  21.08153  21.23553  21.25881
 Alpha virt. eigenvalues --   21.32711  21.62203  21.68087  21.70000  21.73138
 Alpha virt. eigenvalues --   21.74977  21.76126  21.82236  21.85373  21.91047
 Alpha virt. eigenvalues --   21.93668  21.95807  21.96448  21.98226  21.99572
 Alpha virt. eigenvalues --   22.02713  22.04082  22.08066  22.09609  22.14479
 Alpha virt. eigenvalues --   22.17767  32.04913  43.23036  43.24846
          Condensed to atoms (all electrons):
               1          2          3          4          5          6
     1  C    5.034059   0.443656   0.364178   0.003626   0.012476  -0.119565
     2  C    0.443656   5.018853  -0.010217   0.442551  -0.091616  -0.008728
     3  C    0.364178  -0.010217   5.232811  -0.118230   0.392076  -0.033566
     4  C    0.003626   0.442551  -0.118230   5.036576   0.014042   0.361030
     5  C    0.012476  -0.091616   0.392076   0.014042   5.459760   0.390151
     6  C   -0.119565  -0.008728  -0.033566   0.361030   0.390151   5.232024
     7  H   -0.064632   0.421901   0.020286  -0.064694  -0.004893   0.020298
     8  H   -0.041770   0.012579   0.406215  -0.002067  -0.057710   0.017304
     9  H    0.015471  -0.063951  -0.000853   0.416570   0.016903  -0.057214
    10  H   -0.002142   0.012647   0.017541  -0.042089  -0.057210   0.406000
    11  C    0.022487   0.006451  -0.098654   0.020231   0.158235  -0.092804
    12  C   -0.000574   0.000062   0.028186   0.002475  -0.133767  -0.015416
    13  C    0.001672   0.000042  -0.016697  -0.000026  -0.138909   0.027778
    14  C    0.000348  -0.000028  -0.001483  -0.000425   0.040457   0.001486
    15  C   -0.000174  -0.000030   0.002353   0.000298   0.043816  -0.001475
    16  C   -0.000078   0.000010   0.000013  -0.000034  -0.012368   0.000644
    17  H   -0.000086   0.000071  -0.000376   0.000569  -0.021294   0.004944
    18  H    0.000322   0.000065   0.004672  -0.000029  -0.021210  -0.000380
    19  H   -0.000001   0.000000   0.000012  -0.000006  -0.001118  -0.000041
    20  H   -0.000003   0.000000  -0.000011  -0.000001  -0.000902   0.000008
    21  H    0.416362  -0.063918  -0.056849   0.015479   0.016845  -0.000894
    22  N   -0.000000   0.000000   0.000009  -0.000000  -0.000260   0.000006
    23  C   -0.000001   0.000000  -0.000015   0.000000  -0.000077   0.000010
    24  C    0.000000   0.000000  -0.000000  -0.000000  -0.000000   0.000000
    25  C   -0.000000   0.000000   0.000007   0.000000  -0.000002  -0.000015
    26  C    0.000000  -0.000000   0.000000   0.000000   0.000000  -0.000000
    27  C    0.000000  -0.000000   0.000000   0.000000   0.000002  -0.000001
    28  C    0.000000  -0.000000   0.000000  -0.000000   0.000000   0.000000
    29  H   -0.000000   0.000000   0.000000   0.000000  -0.000000   0.000000
    30  H   -0.000000   0.000000   0.000000   0.000000  -0.000059   0.000005
    31  H   -0.000000   0.000000   0.000000  -0.000000  -0.000000  -0.000000
    32  H    0.000000  -0.000000   0.000000  -0.000000  -0.000000   0.000000
    33  C    0.000000   0.000000   0.000002  -0.000001  -0.000122  -0.000012
    34  C   -0.000000   0.000000   0.000000   0.000000  -0.000000  -0.000000
    35  C    0.000000   0.000000  -0.000011  -0.000000  -0.000054   0.000007
    36  C   -0.000000  -0.000000  -0.000000   0.000000   0.000001   0.000000
    37  C    0.000000  -0.000000  -0.000000   0.000000   0.000006   0.000000
    38  C    0.000000   0.000000   0.000000   0.000000  -0.000001   0.000000
    39  H    0.000000   0.000000   0.000000  -0.000000  -0.000000   0.000000
    40  H    0.000000   0.000000   0.000005  -0.000000  -0.000085   0.000001
    41  H   -0.000000   0.000000  -0.000000  -0.000000  -0.000000  -0.000000
    42  H   -0.000000   0.000000  -0.000000   0.000000  -0.000000   0.000000
    43  O    0.000000   0.000000  -0.000000  -0.000000   0.000000  -0.000000
    44  H   -0.000000   0.000000  -0.000000  -0.000000  -0.000000  -0.000000
    45  O   -0.000000  -0.000000  -0.000000  -0.000000   0.000000  -0.000000
    46  H   -0.000000   0.000000  -0.000000  -0.000000  -0.000000   0.000000
               7          8          9         10         11         12
     1  C   -0.064632  -0.041770   0.015471  -0.002142   0.022487  -0.000574
     2  C    0.421901   0.012579  -0.063951   0.012647   0.006451   0.000062
     3  C    0.020286   0.406215  -0.000853   0.017541  -0.098654   0.028186
     4  C   -0.064694  -0.002067   0.416570  -0.042089   0.020231   0.002475
     5  C   -0.004893  -0.057710   0.016903  -0.057210   0.158235  -0.133767
     6  C    0.020298   0.017304  -0.057214   0.406000  -0.092804  -0.015416
     7  H    0.587536  -0.000244  -0.008997  -0.000244  -0.000184  -0.000008
     8  H   -0.000244   0.560662   0.000045  -0.000189  -0.021253  -0.000203
     9  H   -0.008997   0.000045   0.591560  -0.007511  -0.001653  -0.000018
    10  H   -0.000244  -0.000189  -0.007511   0.560916  -0.020960   0.006455
    11  C   -0.000184  -0.021253  -0.001653  -0.020960   5.548064   0.332227
    12  C   -0.000008  -0.000203  -0.000018   0.006455   0.332227   5.470527
    13  C   -0.000008   0.006404   0.000018  -0.000333   0.360918   0.003084
    14  C    0.000000  -0.000212  -0.000012   0.000569   0.018565   0.166561
    15  C    0.000000   0.000902  -0.000002  -0.000163   0.001415  -0.148274
    16  C   -0.000000   0.000039   0.000000   0.000054  -0.146598   0.057492
    17  H   -0.000003  -0.000029   0.000009   0.001595  -0.078447   0.409014
    18  H   -0.000003   0.001640   0.000001  -0.000033  -0.078224   0.018809
    19  H    0.000000   0.000001  -0.000000   0.000005   0.014895  -0.051681
    20  H    0.000000   0.000008   0.000000   0.000001   0.014481   0.000000
    21  H   -0.008989  -0.007488  -0.000273   0.000045  -0.001643   0.000019
    22  N   -0.000000  -0.000002  -0.000000  -0.000001   0.004133   0.021101
    23  C   -0.000000  -0.000000  -0.000000   0.000000  -0.000702   0.001336
    24  C    0.000000  -0.000000  -0.000000   0.000000   0.000031  -0.000240
    25  C    0.000000   0.000000   0.000000  -0.000002  -0.000004   0.001299
    26  C    0.000000  -0.000000  -0.000000  -0.000000   0.000017  -0.000086
    27  C    0.000000   0.000000   0.000000  -0.000000  -0.000085   0.000051
    28  C   -0.000000   0.000000   0.000000   0.000000   0.000013  -0.000005
    29  H   -0.000000   0.000000  -0.000000   0.000000  -0.000000   0.000018
    30  H    0.000000   0.000000  -0.000000   0.000002   0.000128   0.000935
    31  H    0.000000  -0.000000  -0.000000  -0.000000  -0.000007   0.000004
    32  H   -0.000000  -0.000000   0.000000   0.000000  -0.000000   0.000000
    33  C   -0.000000  -0.000001  -0.000000  -0.000001   0.001946  -0.009988
    34  C    0.000000   0.000000  -0.000000  -0.000000   0.000135   0.001781
    35  C    0.000000  -0.000002  -0.000000   0.000001  -0.002096  -0.006534
    36  C   -0.000000  -0.000000   0.000000  -0.000000   0.000065   0.000033
    37  C    0.000000  -0.000000   0.000000   0.000000  -0.000066  -0.000531
    38  C   -0.000000   0.000000  -0.000000   0.000000  -0.000021  -0.000095
    39  H   -0.000000   0.000000  -0.000000   0.000000  -0.000008  -0.000045
    40  H   -0.000000   0.000002  -0.000000   0.000000   0.000139  -0.002255
    41  H   -0.000000  -0.000000  -0.000000  -0.000000  -0.000000  -0.000003
    42  H   -0.000000  -0.000000  -0.000000   0.000000   0.000002   0.000009
    43  O    0.000000   0.000000   0.000000  -0.000000   0.000000   0.000000
    44  H    0.000000  -0.000000  -0.000000  -0.000000  -0.000000   0.000000
    45  O    0.000000  -0.000000   0.000000  -0.000000  -0.000000   0.000000
    46  H    0.000000  -0.000000  -0.000000   0.000000   0.000000  -0.000000
              13         14         15         16         17         18
     1  C    0.001672   0.000348  -0.000174  -0.000078  -0.000086   0.000322
     2  C    0.000042  -0.000028  -0.000030   0.000010   0.000071   0.000065
     3  C   -0.016697  -0.001483   0.002353   0.000013  -0.000376   0.004672
     4  C   -0.000026  -0.000425   0.000298  -0.000034   0.000569  -0.000029
     5  C   -0.138909   0.040457   0.043816  -0.012368  -0.021294  -0.021210
     6  C    0.027778   0.001486  -0.001475   0.000644   0.004944  -0.000380
     7  H   -0.000008   0.000000   0.000000  -0.000000  -0.000003  -0.000003
     8  H    0.006404  -0.000212   0.000902   0.000039  -0.000029   0.001640
     9  H    0.000018  -0.000012  -0.000002   0.000000   0.000009   0.000001
    10  H   -0.000333   0.000569  -0.000163   0.000054   0.001595  -0.000033
    11  C    0.360918   0.018565   0.001415  -0.146598  -0.078447  -0.078224
    12  C    0.003084   0.166561  -0.148274   0.057492   0.409014   0.018809
    13  C    5.423927  -0.151386   0.202750   0.032922   0.018978   0.409472
    14  C   -0.151386   5.451045  -0.071391   0.292153  -0.032672  -0.002142
    15  C    0.202750  -0.071391   5.454806   0.317675  -0.002251  -0.032932
    16  C    0.032922   0.292153   0.317675   5.530347   0.019498   0.018904
    17  H    0.018978  -0.032672  -0.002251   0.019498   0.567978  -0.000133
    18  H    0.409472  -0.002142  -0.032932   0.018904  -0.000133   0.569778
    19  H    0.000414   0.408477   0.011432  -0.050993  -0.007436   0.000022
    20  H   -0.037898   0.011200   0.404585  -0.054369   0.000011  -0.007376
    21  H   -0.000017  -0.000002  -0.000011   0.000000   0.000001   0.000009
    22  N    0.020889  -0.022496  -0.012417   0.171133  -0.000511  -0.000584
    23  C    0.001098  -0.015030   0.009363  -0.076270   0.000083   0.000074
    24  C    0.001589  -0.013072   0.023863  -0.008231   0.000002  -0.000017
    25  C   -0.010458   0.026723  -0.059131   0.019445  -0.000043  -0.000189
    26  C    0.000038  -0.000253   0.002118  -0.002226   0.000000  -0.000001
    27  C   -0.001104   0.001007  -0.008805   0.001141  -0.000001   0.000002
    28  C   -0.000187   0.000321  -0.000975   0.003635  -0.000000  -0.000003
    29  H   -0.000030  -0.000157   0.000050  -0.001137  -0.000000  -0.000000
    30  H   -0.002039  -0.000446   0.001622   0.001733   0.000006   0.000002
    31  H    0.000026  -0.000032  -0.000149  -0.000113   0.000000  -0.000000
    32  H   -0.000001   0.000001  -0.000013   0.000021  -0.000000   0.000000
    33  C   -0.002790   0.042788  -0.007825  -0.107346  -0.000077   0.000055
    34  C   -0.000605   0.012412  -0.011415  -0.019035  -0.000061  -0.000001
    35  C    0.004947  -0.053344   0.012705   0.030826   0.000032  -0.000017
    36  C   -0.000124   0.002548   0.000330  -0.001433  -0.000006   0.000000
    37  C    0.000166  -0.005116   0.001380   0.000482   0.000032  -0.000002
    38  C    0.000028  -0.002055  -0.000016   0.001991  -0.000003   0.000000
    39  H    0.000030   0.000803  -0.000471  -0.001534  -0.000001   0.000000
    40  H    0.001046   0.002490  -0.002074  -0.001582  -0.000030   0.000005
    41  H    0.000000  -0.000043   0.000002  -0.000023   0.000000  -0.000000
    42  H   -0.000003   0.000146  -0.000025  -0.000231  -0.000000  -0.000000
    43  O   -0.000000   0.000010   0.000000  -0.000009  -0.000000  -0.000000
    44  H    0.000000  -0.000001   0.000000  -0.000001   0.000000   0.000000
    45  O    0.000001  -0.000001   0.000018  -0.000005  -0.000000   0.000000
    46  H    0.000000  -0.000000   0.000003  -0.000008   0.000000  -0.000000
              19         20         21         22         23         24
     1  C   -0.000001  -0.000003   0.416362  -0.000000  -0.000001   0.000000
     2  C    0.000000   0.000000  -0.063918   0.000000   0.000000   0.000000
     3  C    0.000012  -0.000011  -0.056849   0.000009  -0.000015  -0.000000
     4  C   -0.000006  -0.000001   0.015479  -0.000000   0.000000  -0.000000
     5  C   -0.001118  -0.000902   0.016845  -0.000260  -0.000077  -0.000000
     6  C   -0.000041   0.000008  -0.000894   0.000006   0.000010   0.000000
     7  H    0.000000   0.000000  -0.008989  -0.000000  -0.000000   0.000000
     8  H    0.000001   0.000008  -0.007488  -0.000002  -0.000000  -0.000000
     9  H   -0.000000   0.000000  -0.000273  -0.000000  -0.000000  -0.000000
    10  H    0.000005   0.000001   0.000045  -0.000001   0.000000   0.000000
    11  C    0.014895   0.014481  -0.001643   0.004133  -0.000702   0.000031
    12  C   -0.051681   0.000000   0.000019   0.021101   0.001336  -0.000240
    13  C    0.000414  -0.037898  -0.000017   0.020889   0.001098   0.001589
    14  C    0.408477   0.011200  -0.000002  -0.022496  -0.015030  -0.013072
    15  C    0.011432   0.404585  -0.000011  -0.012417   0.009363   0.023863
    16  C   -0.050993  -0.054369   0.000000   0.171133  -0.076270  -0.008231
    17  H   -0.007436   0.000011   0.000001  -0.000511   0.000083   0.000002
    18  H    0.000022  -0.007376   0.000009  -0.000584   0.000074  -0.000017
    19  H    0.542143  -0.000271   0.000000  -0.010072  -0.001961  -0.000249
    20  H   -0.000271   0.524031  -0.000000  -0.004136  -0.000038  -0.000492
    21  H    0.000000  -0.000000   0.591275  -0.000000  -0.000000   0.000000
    22  N   -0.010072  -0.004136  -0.000000   6.574794   0.194574  -0.049532
    23  C   -0.001961  -0.000038  -0.000000   0.194574   5.363385   0.246133
    24  C   -0.000249  -0.000492   0.000000  -0.049532   0.246133   6.117594
    25  C    0.000307   0.001741  -0.000000  -0.003857   0.374913  -0.205340
    26  C    0.000025   0.000596  -0.000000   0.027465   0.059398   0.080571
    27  C   -0.000009  -0.001774  -0.000000   0.011401  -0.031238   0.045755
    28  C    0.000002   0.000848   0.000000   0.006747  -0.038908  -0.373122
    29  H   -0.000013   0.000017  -0.000000  -0.014950  -0.025886   0.383200
    30  H   -0.000034   0.000862   0.000000  -0.006478  -0.040194   0.010447
    31  H   -0.000001  -0.000051  -0.000000  -0.000675   0.015372   0.001948
    32  H    0.000000   0.000002   0.000000  -0.000042  -0.003155   0.021065
    33  C    0.009182  -0.001762  -0.000000   0.086391  -0.093380   0.070974
    34  C   -0.004812  -0.000424  -0.000000  -0.020178   0.033906  -0.085855
    35  C    0.003810   0.000848   0.000000  -0.008187  -0.020319   0.014575
    36  C    0.002498   0.000028   0.000000   0.030951  -0.006645  -0.001861
    37  C   -0.002338   0.000013   0.000000   0.017794  -0.001893   0.002274
    38  C    0.000350  -0.000004  -0.000000   0.003652   0.001712  -0.002749
    39  H    0.000216  -0.000007  -0.000000  -0.007201  -0.002251   0.004795
    40  H    0.001112   0.000028  -0.000000  -0.008788  -0.001316   0.000362
    41  H    0.000018  -0.000000  -0.000000  -0.000803  -0.000036   0.000110
    42  H   -0.000010   0.000000  -0.000000  -0.000606  -0.000001  -0.000035
    43  O   -0.000009  -0.000000   0.000000  -0.000007   0.000008   0.000005
    44  H   -0.000002  -0.000000  -0.000000  -0.000004  -0.000000  -0.000002
    45  O   -0.000000  -0.000002   0.000000  -0.000024   0.011583  -0.103062
    46  H    0.000000  -0.000000  -0.000000   0.000019  -0.003246   0.024454
              25         26         27         28         29         30
     1  C   -0.000000   0.000000   0.000000   0.000000  -0.000000  -0.000000
     2  C    0.000000  -0.000000  -0.000000  -0.000000   0.000000   0.000000
     3  C    0.000007   0.000000   0.000000   0.000000   0.000000   0.000000
     4  C    0.000000   0.000000   0.000000  -0.000000   0.000000   0.000000
     5  C   -0.000002   0.000000   0.000002   0.000000  -0.000000  -0.000059
     6  C   -0.000015  -0.000000  -0.000001   0.000000   0.000000   0.000005
     7  H    0.000000   0.000000   0.000000  -0.000000  -0.000000   0.000000
     8  H    0.000000  -0.000000   0.000000   0.000000   0.000000   0.000000
     9  H    0.000000  -0.000000   0.000000   0.000000  -0.000000  -0.000000
    10  H   -0.000002  -0.000000  -0.000000   0.000000   0.000000   0.000002
    11  C   -0.000004   0.000017  -0.000085   0.000013  -0.000000   0.000128
    12  C    0.001299  -0.000086   0.000051  -0.000005   0.000018   0.000935
    13  C   -0.010458   0.000038  -0.001104  -0.000187  -0.000030  -0.002039
    14  C    0.026723  -0.000253   0.001007   0.000321  -0.000157  -0.000446
    15  C   -0.059131   0.002118  -0.008805  -0.000975   0.000050   0.001622
    16  C    0.019445  -0.002226   0.001141   0.003635  -0.001137   0.001733
    17  H   -0.000043   0.000000  -0.000001  -0.000000  -0.000000   0.000006
    18  H   -0.000189  -0.000001   0.000002  -0.000003  -0.000000   0.000002
    19  H    0.000307   0.000025  -0.000009   0.000002  -0.000013  -0.000034
    20  H    0.001741   0.000596  -0.001774   0.000848   0.000017   0.000862
    21  H   -0.000000  -0.000000  -0.000000   0.000000  -0.000000   0.000000
    22  N   -0.003857   0.027465   0.011401   0.006747  -0.014950  -0.006478
    23  C    0.374913   0.059398  -0.031238  -0.038908  -0.025886  -0.040194
    24  C   -0.205340   0.080571   0.045755  -0.373122   0.383200   0.010447
    25  C    5.346962  -0.093883   0.366662   0.036834   0.014806   0.393013
    26  C   -0.093883   5.236350   0.068016   0.310471  -0.052272   0.000086
    27  C    0.366662   0.068016   5.140731   0.149468  -0.003428  -0.035772
    28  C    0.036834   0.310471   0.149468   5.855706   0.016271   0.012507
    29  H    0.014806  -0.052272  -0.003428   0.016271   0.517511  -0.000224
    30  H    0.393013   0.000086  -0.035772   0.012507  -0.000224   0.518570
    31  H   -0.050468   0.014539   0.409243  -0.064460   0.000030  -0.007607
    32  H    0.017768  -0.078440  -0.018293   0.384912  -0.000232  -0.000247
    33  C   -0.005866  -0.018486  -0.002537  -0.000009   0.009597  -0.001372
    34  C    0.020615  -0.006894   0.001375   0.001389   0.006856   0.000576
    35  C   -0.010276   0.001758  -0.000045  -0.000170  -0.005175  -0.000397
    36  C    0.001361   0.000852   0.000026   0.000075  -0.003528  -0.000009
    37  C    0.000084   0.000115  -0.000079   0.000040   0.001664   0.000021
    38  C   -0.000010  -0.000229   0.000029  -0.000019   0.000292  -0.000005
    39  H   -0.000415  -0.003898   0.000827  -0.000126   0.000887   0.000007
    40  H   -0.000322  -0.000085   0.000029  -0.000014   0.000092  -0.000011
    41  H   -0.000033   0.000011  -0.000002  -0.000000  -0.000005   0.000000
    42  H    0.000003  -0.000003   0.000000   0.000000   0.000024   0.000000
    43  O    0.000000   0.000000  -0.000000   0.000000  -0.000007   0.000000
    44  H   -0.000000   0.000000   0.000000  -0.000000   0.000001  -0.000000
    45  O   -0.001690   0.419393   0.016973  -0.112456   0.003092   0.000005
    46  H   -0.000300  -0.030990   0.006763  -0.038284  -0.000719  -0.000002
              31         32         33         34         35         36
     1  C   -0.000000   0.000000   0.000000  -0.000000   0.000000  -0.000000
     2  C    0.000000  -0.000000   0.000000   0.000000   0.000000  -0.000000
     3  C    0.000000   0.000000   0.000002   0.000000  -0.000011  -0.000000
     4  C   -0.000000  -0.000000  -0.000001   0.000000  -0.000000   0.000000
     5  C   -0.000000  -0.000000  -0.000122  -0.000000  -0.000054   0.000001
     6  C   -0.000000   0.000000  -0.000012  -0.000000   0.000007   0.000000
     7  H    0.000000  -0.000000  -0.000000   0.000000   0.000000  -0.000000
     8  H   -0.000000  -0.000000  -0.000001   0.000000  -0.000002  -0.000000
     9  H   -0.000000   0.000000  -0.000000  -0.000000  -0.000000   0.000000
    10  H   -0.000000   0.000000  -0.000001  -0.000000   0.000001  -0.000000
    11  C   -0.000007  -0.000000   0.001946   0.000135  -0.002096   0.000065
    12  C    0.000004   0.000000  -0.009988   0.001781  -0.006534   0.000033
    13  C    0.000026  -0.000001  -0.002790  -0.000605   0.004947  -0.000124
    14  C   -0.000032   0.000001   0.042788   0.012412  -0.053344   0.002548
    15  C   -0.000149  -0.000013  -0.007825  -0.011415   0.012705   0.000330
    16  C   -0.000113   0.000021  -0.107346  -0.019035   0.030826  -0.001433
    17  H    0.000000  -0.000000  -0.000077  -0.000061   0.000032  -0.000006
    18  H   -0.000000   0.000000   0.000055  -0.000001  -0.000017   0.000000
    19  H   -0.000001   0.000000   0.009182  -0.004812   0.003810   0.002498
    20  H   -0.000051   0.000002  -0.001762  -0.000424   0.000848   0.000028
    21  H   -0.000000   0.000000  -0.000000  -0.000000   0.000000   0.000000
    22  N   -0.000675  -0.000042   0.086391  -0.020178  -0.008187   0.030951
    23  C    0.015372  -0.003155  -0.093380   0.033906  -0.020319  -0.006645
    24  C    0.001948   0.021065   0.070974  -0.085855   0.014575  -0.001861
    25  C   -0.050468   0.017768  -0.005866   0.020615  -0.010276   0.001361
    26  C    0.014539  -0.078440  -0.018486  -0.006894   0.001758   0.000852
    27  C    0.409243  -0.018293  -0.002537   0.001375  -0.000045   0.000026
    28  C   -0.064460   0.384912  -0.000009   0.001389  -0.000170   0.000075
    29  H    0.000030  -0.000232   0.009597   0.006856  -0.005175  -0.003528
    30  H   -0.007607  -0.000247  -0.001372   0.000576  -0.000397  -0.000009
    31  H    0.591031  -0.007861   0.000052  -0.000027  -0.000001  -0.000001
    32  H   -0.007861   0.589576   0.000028  -0.000010   0.000002  -0.000001
    33  C    0.000052   0.000028   5.741307   0.244494   0.325511   0.125645
    34  C   -0.000027  -0.000010   0.244494   5.624879  -0.116381  -0.224913
    35  C   -0.000001   0.000002   0.325511  -0.116381   5.191121  -0.082434
    36  C   -0.000001  -0.000001   0.125645  -0.224913  -0.082434   6.208508
    37  C    0.000000  -0.000000   0.042831  -0.032095   0.298554  -0.157025
    38  C    0.000000   0.000000  -0.175422   0.145863   0.017215   0.103947
    39  H    0.000002   0.000003  -0.035973   0.403830   0.013487  -0.051646
    40  H   -0.000000   0.000000  -0.057515   0.020001   0.439119  -0.005082
    41  H    0.000000  -0.000000   0.013986   0.011384   0.003719   0.376928
    42  H   -0.000000  -0.000000   0.020403  -0.003874  -0.048560   0.018839
    43  O   -0.000000   0.000000  -0.001482   0.021417   0.005525  -0.115469
    44  H    0.000000  -0.000000  -0.000865   0.008416  -0.001594  -0.042794
    45  O   -0.000113  -0.005689  -0.000436   0.000587  -0.000013   0.000009
    46  H   -0.000032   0.003017  -0.000002  -0.000034   0.000003  -0.000001
              37         38         39         40         41         42
     1  C    0.000000   0.000000   0.000000   0.000000  -0.000000  -0.000000
     2  C   -0.000000   0.000000   0.000000   0.000000   0.000000   0.000000
     3  C   -0.000000   0.000000   0.000000   0.000005  -0.000000  -0.000000
     4  C    0.000000   0.000000  -0.000000  -0.000000  -0.000000   0.000000
     5  C    0.000006  -0.000001  -0.000000  -0.000085  -0.000000  -0.000000
     6  C    0.000000   0.000000   0.000000   0.000001  -0.000000   0.000000
     7  H    0.000000  -0.000000  -0.000000  -0.000000  -0.000000  -0.000000
     8  H   -0.000000   0.000000   0.000000   0.000002  -0.000000  -0.000000
     9  H    0.000000  -0.000000  -0.000000  -0.000000  -0.000000  -0.000000
    10  H    0.000000   0.000000   0.000000   0.000000  -0.000000   0.000000
    11  C   -0.000066  -0.000021  -0.000008   0.000139  -0.000000   0.000002
    12  C   -0.000531  -0.000095  -0.000045  -0.002255  -0.000003   0.000009
    13  C    0.000166   0.000028   0.000030   0.001046   0.000000  -0.000003
    14  C   -0.005116  -0.002055   0.000803   0.002490  -0.000043   0.000146
    15  C    0.001380  -0.000016  -0.000471  -0.002074   0.000002  -0.000025
    16  C    0.000482   0.001991  -0.001534  -0.001582  -0.000023  -0.000231
    17  H    0.000032  -0.000003  -0.000001  -0.000030   0.000000  -0.000000
    18  H   -0.000002   0.000000   0.000000   0.000005  -0.000000  -0.000000
    19  H   -0.002338   0.000350   0.000216   0.001112   0.000018  -0.000010
    20  H    0.000013  -0.000004  -0.000007   0.000028  -0.000000   0.000000
    21  H    0.000000  -0.000000  -0.000000  -0.000000  -0.000000  -0.000000
    22  N    0.017794   0.003652  -0.007201  -0.008788  -0.000803  -0.000606
    23  C   -0.001893   0.001712  -0.002251  -0.001316  -0.000036  -0.000001
    24  C    0.002274  -0.002749   0.004795   0.000362   0.000110  -0.000035
    25  C    0.000084  -0.000010  -0.000415  -0.000322  -0.000033   0.000003
    26  C    0.000115  -0.000229  -0.003898  -0.000085   0.000011  -0.000003
    27  C   -0.000079   0.000029   0.000827   0.000029  -0.000002   0.000000
    28  C    0.000040  -0.000019  -0.000126  -0.000014  -0.000000   0.000000
    29  H    0.001664   0.000292   0.000887   0.000092  -0.000005   0.000024
    30  H    0.000021  -0.000005   0.000007  -0.000011   0.000000   0.000000
    31  H    0.000000   0.000000   0.000002  -0.000000   0.000000  -0.000000
    32  H   -0.000000   0.000000   0.000003   0.000000  -0.000000  -0.000000
    33  C    0.042831  -0.175422  -0.035973  -0.057515   0.013986   0.020403
    34  C   -0.032095   0.145863   0.403830   0.020001   0.011384  -0.003874
    35  C    0.298554   0.017215   0.013487   0.439119   0.003719  -0.048560
    36  C   -0.157025   0.103947  -0.051646  -0.005082   0.376928   0.018839
    37  C    5.382828   0.374972  -0.000849  -0.079807   0.005459   0.421775
    38  C    0.374972   5.154999   0.011973   0.021650  -0.088180  -0.082012
    39  H   -0.000849   0.011973   0.541695  -0.000243  -0.006806   0.000033
    40  H   -0.079807   0.021650  -0.000243   0.552499   0.000033  -0.009532
    41  H    0.005459  -0.088180  -0.006806   0.000033   0.583233  -0.000317
    42  H    0.421775  -0.082012   0.000033  -0.009532  -0.000317   0.565867
    43  O   -0.079050   0.406053  -0.000076  -0.000118  -0.006302   0.002472
    44  H    0.018865  -0.024077  -0.000046   0.000035   0.001883  -0.000774
    45  O   -0.000001   0.000009   0.000011  -0.000001  -0.000002   0.000000
    46  H   -0.000000   0.000000  -0.000000  -0.000000   0.000000  -0.000000
              43         44         45         46
     1  C    0.000000  -0.000000  -0.000000  -0.000000
     2  C    0.000000   0.000000  -0.000000   0.000000
     3  C   -0.000000  -0.000000  -0.000000  -0.000000
     4  C   -0.000000  -0.000000  -0.000000  -0.000000
     5  C    0.000000  -0.000000   0.000000  -0.000000
     6  C   -0.000000  -0.000000  -0.000000   0.000000
     7  H    0.000000   0.000000   0.000000   0.000000
     8  H    0.000000  -0.000000  -0.000000  -0.000000
     9  H    0.000000  -0.000000   0.000000  -0.000000
    10  H   -0.000000  -0.000000  -0.000000   0.000000
    11  C    0.000000  -0.000000  -0.000000   0.000000
    12  C    0.000000   0.000000   0.000000  -0.000000
    13  C   -0.000000   0.000000   0.000001   0.000000
    14  C    0.000010  -0.000001  -0.000001  -0.000000
    15  C    0.000000   0.000000   0.000018   0.000003
    16  C   -0.000009  -0.000001  -0.000005  -0.000008
    17  H   -0.000000   0.000000  -0.000000   0.000000
    18  H   -0.000000   0.000000   0.000000  -0.000000
    19  H   -0.000009  -0.000002  -0.000000   0.000000
    20  H   -0.000000  -0.000000  -0.000002  -0.000000
    21  H    0.000000  -0.000000   0.000000  -0.000000
    22  N   -0.000007  -0.000004  -0.000024   0.000019
    23  C    0.000008  -0.000000   0.011583  -0.003246
    24  C    0.000005  -0.000002  -0.103062   0.024454
    25  C    0.000000  -0.000000  -0.001690  -0.000300
    26  C    0.000000   0.000000   0.419393  -0.030990
    27  C   -0.000000   0.000000   0.016973   0.006763
    28  C    0.000000  -0.000000  -0.112456  -0.038284
    29  H   -0.000007   0.000001   0.003092  -0.000719
    30  H    0.000000  -0.000000   0.000005  -0.000002
    31  H   -0.000000   0.000000  -0.000113  -0.000032
    32  H    0.000000  -0.000000  -0.005689   0.003017
    33  C   -0.001482  -0.000865  -0.000436  -0.000002
    34  C    0.021417   0.008416   0.000587  -0.000034
    35  C    0.005525  -0.001594  -0.000013   0.000003
    36  C   -0.115469  -0.042794   0.000009  -0.000001
    37  C   -0.079050   0.018865  -0.000001  -0.000000
    38  C    0.406053  -0.024077   0.000009   0.000000
    39  H   -0.000076  -0.000046   0.000011  -0.000000
    40  H   -0.000118   0.000035  -0.000001  -0.000000
    41  H   -0.006302   0.001883  -0.000002   0.000000
    42  H    0.002472  -0.000774   0.000000  -0.000000
    43  O    7.705474   0.300790   0.000000  -0.000000
    44  H    0.300790   0.471266   0.000000   0.000000
    45  O    0.000000   0.000000   7.707798   0.299298
    46  H   -0.000000   0.000000   0.299298   0.471322
 Mulliken charges:
               1
     1  C   -0.085629
     2  C   -0.120402
     3  C   -0.131404
     4  C   -0.085844
     5  C   -0.003113
     6  C   -0.131587
     7  H    0.102878
     8  H    0.125367
     9  H    0.099906
    10  H    0.125048
    11  C    0.038831
    12  C   -0.151755
    13  C   -0.155622
    14  C   -0.108313
    15  C   -0.131468
    16  C   -0.016536
    17  H    0.120640
    18  H    0.119444
    19  H    0.136137
    20  H    0.150214
    21  H    0.100051
    22  N    0.000754
    23  C    0.049614
    24  C   -0.205888
    25  C   -0.180238
    26  C    0.065925
    27  C   -0.116332
    28  C   -0.150502
    29  H    0.153359
    30  H    0.154367
    31  H    0.099352
    32  H    0.097590
    33  C   -0.211923
    34  C   -0.033302
    35  C   -0.008154
    36  C   -0.179669
    37  C   -0.210503
    38  C    0.130163
    39  H    0.132995
    40  H    0.130216
    41  H    0.105789
    42  H    0.116410
    43  O   -0.239227
    44  H    0.268902
    45  O   -0.235281
    46  H    0.268739
 Sum of Mulliken charges =  -0.00000
 Mulliken charges with hydrogens summed into heavy atoms:
               1
     1  C    0.014422
     2  C   -0.017524
     3  C   -0.006038
     4  C    0.014061
     5  C   -0.003113
     6  C   -0.006539
    11  C    0.038831
    12  C   -0.031115
    13  C   -0.036178
    14  C    0.027824
    15  C    0.018746
    16  C   -0.016536
    22  N    0.000754
    23  C    0.049614
    24  C   -0.052529
    25  C   -0.025870
    26  C    0.065925
    27  C   -0.016980
    28  C   -0.052912
    33  C   -0.211923
    34  C    0.099693
    35  C    0.122062
    36  C   -0.073879
    37  C   -0.094093
    38  C    0.130163
    43  O    0.029676
    45  O    0.033458
 Electronic spatial extent (au):  <R**2>=          13387.2744
 Charge=             -0.0000 electrons
 Dipole moment (field-independent basis, Debye):
    X=              1.4011    Y=             -0.9704    Z=             -1.4311  Tot=              2.2255
 Quadrupole moment (field-independent basis, Debye-Ang):
   XX=           -138.1639   YY=           -146.2607   ZZ=           -152.4432
   XY=             -3.4387   XZ=             -8.4902   YZ=             -6.7958
 Traceless Quadrupole moment (field-independent basis, Debye-Ang):
   XX=              7.4587   YY=             -0.6381   ZZ=             -6.8206
   XY=             -3.4387   XZ=             -8.4902   YZ=             -6.7958
 Octapole moment (field-independent basis, Debye-Ang**2):
  XXX=             60.3527  YYY=            -67.0275  ZZZ=              5.6682  XYY=            112.2313
  XXY=             -5.8366  XXZ=            -38.4151  XZZ=             -8.7490  YZZ=             13.2637
  YYZ=            -22.8490  XYZ=            -17.8198
 Hexadecapole moment (field-independent basis, Debye-Ang**3):
 XXXX=         -11958.2318 YYYY=          -4117.0360 ZZZZ=           -794.3023 XXXY=            -67.8583
 XXXZ=           -182.3953 YYYX=           -244.5872 YYYZ=           -104.0781 ZZZX=              4.6042
 ZZZY=            -16.0395 XXYY=          -2502.5241 XXZZ=          -2238.3739 YYZZ=           -825.2641
 XXYZ=           -273.4723 YYXZ=            -94.8393 ZZXY=             47.5139
 N-N= 2.186775923160D+03 E-N=-7.005320904621D+03  KE= 1.125585509817D+03
 No NMR shielding tensors so no spin-rotation constants.
 Leave Link  601 at Sun Jan 17 19:37:27 2021, MaxMem=  4026531840 cpu:               3.6 elap:               0.5
 (Enter /opt/ohpc/pub/libs/gaussian/g16-A.03/sandybridge/g16/l9999.exe)

 Test job not archived.
 1\1\GINC-CASCADEB002\SP\RLC-wHPBE\TZVP\C24H19N1O2\RDU230\17-Jan-2021\0
 \\#P LC-wHPBE/TZVP iop(3/107=0168400000, 3/108=0168400000) scf=(conver
 =6,fermi,ndamp=35,noincfock,novaracc,vshift=500,xqc)\\H19 C24 N1 O2\\0
 ,1\C,0,-6.538108,-0.217341,1.255514\C,0,-7.258661,0.087287,0.107878\C,
 0,-5.15139,-0.259049,1.219222\C,0,-6.580697,0.348691,-1.075777\C,0,-4.
 458004,0.000662,0.035726\C,0,-5.193998,0.304569,-1.110911\H,0,-8.34564
 4,0.121015,0.135956\H,0,-4.59391,-0.476283,2.12835\H,0,-7.136138,0.581
 164,-1.982188\H,0,-4.671509,0.488761,-2.047704\C,0,-2.974479,-0.044963
 ,-0.00277\C,0,-2.240322,0.918366,-0.694597\C,0,-2.265576,-1.051297,0.6
 54611\C,0,-0.856277,0.875925,-0.739808\C,0,-0.88157,-1.094369,0.628888
 \C,0,-0.155643,-0.133238,-0.077397\H,0,-2.762026,1.727417,-1.202285\H,
 0,-2.809037,-1.823891,1.195264\H,0,-0.306381,1.639189,-1.284917\H,0,-0
 .352632,-1.885069,1.15502\H,0,-7.059465,-0.416189,2.189743\N,0,1.25702
 6,-0.160831,-0.103806\C,0,1.965402,-1.377887,-0.17457\C,0,3.190004,-1.
 508547,0.478017\C,0,1.461496,-2.456008,-0.912094\C,0,3.903051,-2.69689
 1,0.390217\C,0,2.178621,-3.638306,-0.97461\C,0,3.402953,-3.775056,-0.3
 32839\H,0,3.600761,-0.690157,1.062074\H,0,0.51484,-2.358097,-1.435231\
 H,0,1.782807,-4.471654,-1.551437\H,0,3.963923,-4.706428,-0.398055\C,0,
 1.972861,1.068372,-0.045814\C,0,2.971482,1.350948,-0.972341\C,0,1.6830
 86,2.012203,0.939258\C,0,3.67678,2.543988,-0.910119\C,0,2.365608,3.214
 996,0.992156\C,0,3.371443,3.4833,0.069272\H,0,3.205268,0.621566,-1.744
 392\H,0,0.904271,1.798314,1.667748\H,0,4.460878,2.747602,-1.639197\H,0
 ,2.139895,3.954598,1.756001\O,0,4.022986,4.680331,0.173244\H,0,4.69528
 7,4.73835,-0.517835\O,0,5.097214,-2.751708,1.053752\H,0,5.479651,-3.63
 1493,0.941087\\Version=EM64L-G16RevA.03\State=1-A\HF=-1130.4732315\RMS
 D=9.712e-07\Dipole=0.5512367,-0.3818006,-0.5630289\Quadrupole=5.545337
 8,-0.4744112,-5.0709266,-2.5565663,-6.3122804,-5.0525054\PG=C01 [X(C24
 H19N1O2)]\\@


 BE CAREFUL NOT TO BECOME TOO GOOD OF A SONGBIRD OR 
 THEY'LL THROW YOU INTO A CAGE.

                                    -- SNOOPY TO WOODSTOCK
 Job cpu time:       0 days  1 hours 26 minutes 52.4 seconds.
 Elapsed time:       0 days  0 hours 10 minutes 53.7 seconds.
 File lengths (MBytes):  RWF=    176 Int=      0 D2E=      0 Chk=     28 Scr=      8
 Normal termination of Gaussian 16 at Sun Jan 17 19:37:27 2021.
