 Entering Gaussian System, Link 0=g16
 Input=mol_bp_ma_half_tune_c8.gjf
 Output=mol_bp_ma_half_tune_c8.log
 Initial command:
 /opt/ohpc/pub/libs/gaussian/g16-A.03/sandybridge/g16/l1.exe "/mnt/gpfs2_4m/scratch/rdu230/ondemand/projects/init_structures/wtuning/mol_bp_ma_half/tuning_mol_bp_ma_half_ocycle0/Gau-83153.inp" -scrdir="/mnt/gpfs2_4m/scratch/rdu230/ondemand/projects/init_structures/wtuning/mol_bp_ma_half/tuning_mol_bp_ma_half_ocycle0/"
 Entering Link 1 = /opt/ohpc/pub/libs/gaussian/g16-A.03/sandybridge/g16/l1.exe PID=     83154.
  
 Copyright (c) 1988,1990,1992,1993,1995,1998,2003,2009,2016,
            Gaussian, Inc.  All Rights Reserved.
  
 This is part of the Gaussian(R) 16 program.  It is based on
 the Gaussian(R) 09 system (copyright 2009, Gaussian, Inc.),
 the Gaussian(R) 03 system (copyright 2003, Gaussian, Inc.),
 the Gaussian(R) 98 system (copyright 1998, Gaussian, Inc.),
 the Gaussian(R) 94 system (copyright 1995, Gaussian, Inc.),
 the Gaussian 92(TM) system (copyright 1992, Gaussian, Inc.),
 the Gaussian 90(TM) system (copyright 1990, Gaussian, Inc.),
 the Gaussian 88(TM) system (copyright 1988, Gaussian, Inc.),
 the Gaussian 86(TM) system (copyright 1986, Carnegie Mellon
 University), and the Gaussian 82(TM) system (copyright 1983,
 Carnegie Mellon University). Gaussian is a federally registered
 trademark of Gaussian, Inc.
  
 This software contains proprietary and confidential information,
 including trade secrets, belonging to Gaussian, Inc.
  
 This software is provided under written license and may be
 used, copied, transmitted, or stored only in accord with that
 written license.
  
 The following legend is applicable only to US Government
 contracts under FAR:
  
                    RESTRICTED RIGHTS LEGEND
  
 Use, reproduction and disclosure by the US Government is
 subject to restrictions as set forth in subparagraphs (a)
 and (c) of the Commercial Computer Software - Restricted
 Rights clause in FAR 52.227-19.
  
 Gaussian, Inc.
 340 Quinnipiac St., Bldg. 40, Wallingford CT 06492
  
  
 ---------------------------------------------------------------
 Warning -- This program may not be used in any manner that
 competes with the business of Gaussian, Inc. or will provide
 assistance to any competitor of Gaussian, Inc.  The licensee
 of this program is prohibited from giving any competitor of
 Gaussian, Inc. access to this program.  By using this program,
 the user acknowledges that Gaussian, Inc. is engaged in the
 business of creating and licensing software in the field of
 computational chemistry and represents and warrants to the
 licensee that it is not a competitor of Gaussian, Inc. and that
 it will not use this program in any manner prohibited above.
 ---------------------------------------------------------------
  

 Cite this work as:
 Gaussian 16, Revision A.03,
 M. J. Frisch, G. W. Trucks, H. B. Schlegel, G. E. Scuseria, 
 M. A. Robb, J. R. Cheeseman, G. Scalmani, V. Barone, 
 G. A. Petersson, H. Nakatsuji, X. Li, M. Caricato, A. V. Marenich, 
 J. Bloino, B. G. Janesko, R. Gomperts, B. Mennucci, H. P. Hratchian, 
 J. V. Ortiz, A. F. Izmaylov, J. L. Sonnenberg, D. Williams-Young, 
 F. Ding, F. Lipparini, F. Egidi, J. Goings, B. Peng, A. Petrone, 
 T. Henderson, D. Ranasinghe, V. G. Zakrzewski, J. Gao, N. Rega, 
 G. Zheng, W. Liang, M. Hada, M. Ehara, K. Toyota, R. Fukuda, 
 J. Hasegawa, M. Ishida, T. Nakajima, Y. Honda, O. Kitao, H. Nakai, 
 T. Vreven, K. Throssell, J. A. Montgomery, Jr., J. E. Peralta, 
 F. Ogliaro, M. J. Bearpark, J. J. Heyd, E. N. Brothers, K. N. Kudin, 
 V. N. Staroverov, T. A. Keith, R. Kobayashi, J. Normand, 
 K. Raghavachari, A. P. Rendell, J. C. Burant, S. S. Iyengar, 
 J. Tomasi, M. Cossi, J. M. Millam, M. Klene, C. Adamo, R. Cammi, 
 J. W. Ochterski, R. L. Martin, K. Morokuma, O. Farkas, 
 J. B. Foresman, and D. J. Fox, Gaussian, Inc., Wallingford CT, 2016.
 
 ******************************************
 Gaussian 16:  EM64L-G16RevA.03 25-Dec-2016
                17-Jan-2021 
 ******************************************
 %mem=30GB
 %nproc=8
 Will use up to    8 processors via shared memory.
 ----------------------------------------------------------------------
 #P LC-wHPBE/TZVP iop(3/107=0181900000, 3/108=0181900000) scf=(conver=6
 ,fermi,ndamp=35,noincfock,novaracc,vshift=500,xqc)
 ----------------------------------------------------------------------
 1/38=1,172=1/1;
 2/12=2,17=6,18=5,40=1/2;
 3/5=19,7=101,11=2,25=1,30=1,74=-71,107=181900000,108=181900000/1,2,3;
 4//1;
 5/5=100002,6=6,8=3,10=500,13=1,18=-1,22=13,38=1,93=35/2,8;
 6/7=2,8=2,9=2,10=2,28=1/1;
 99/5=1,9=1/99;
 Leave Link    1 at Sun Jan 17 22:24:48 2021, MaxMem=  4026531840 cpu:               2.1 elap:               0.3
 (Enter /opt/ohpc/pub/libs/gaussian/g16-A.03/sandybridge/g16/l101.exe)
 -------------
 H19 C24 N1 O2
 -------------
 Symbolic Z-matrix:
 Charge =  1 Multiplicity = 2
 C                    -6.53811  -0.21734   1.25551 
 C                    -7.25866   0.08729   0.10788 
 C                    -5.15139  -0.25905   1.21922 
 C                    -6.5807    0.34869  -1.07578 
 C                    -4.458     0.00066   0.03573 
 C                    -5.194     0.30457  -1.11091 
 H                    -8.34564   0.12102   0.13596 
 H                    -4.59391  -0.47628   2.12835 
 H                    -7.13614   0.58116  -1.98219 
 H                    -4.67151   0.48876  -2.0477 
 C                    -2.97448  -0.04496  -0.00277 
 C                    -2.24032   0.91837  -0.6946 
 C                    -2.26558  -1.0513    0.65461 
 C                    -0.85628   0.87593  -0.73981 
 C                    -0.88157  -1.09437   0.62889 
 C                    -0.15564  -0.13324  -0.0774 
 H                    -2.76203   1.72742  -1.20229 
 H                    -2.80904  -1.82389   1.19526 
 H                    -0.30638   1.63919  -1.28492 
 H                    -0.35263  -1.88507   1.15502 
 H                    -7.05947  -0.41619   2.18974 
 N                     1.25703  -0.16083  -0.10381 
 C                     1.9654   -1.37789  -0.17457 
 C                     3.19     -1.50855   0.47802 
 C                     1.4615   -2.45601  -0.91209 
 C                     3.90305  -2.69689   0.39022 
 C                     2.17862  -3.63831  -0.97461 
 C                     3.40295  -3.77506  -0.33284 
 H                     3.60076  -0.69016   1.06207 
 H                     0.51484  -2.3581   -1.43523 
 H                     1.78281  -4.47165  -1.55144 
 H                     3.96392  -4.70643  -0.39806 
 C                     1.97286   1.06837  -0.04581 
 C                     2.97148   1.35095  -0.97234 
 C                     1.68309   2.0122    0.93926 
 C                     3.67678   2.54399  -0.91012 
 C                     2.36561   3.215     0.99216 
 C                     3.37144   3.4833    0.06927 
 H                     3.20527   0.62157  -1.74439 
 H                     0.90427   1.79831   1.66775 
 H                     4.46088   2.7476   -1.6392 
 H                     2.1399    3.9546    1.756 
 O                     4.02299   4.68033   0.17324 
 H                     4.69529   4.73835  -0.51784 
 O                     5.09721  -2.75171   1.05375 
 H                     5.47965  -3.63149   0.94109 
 
 ITRead=  0  0  0  0  0  0  0  0  0  0  0  0  0  0  0  0  0  0  0  0
 ITRead=  0  0  0  0  0  0  0  0  0  0  0  0  0  0  0  0  0  0  0  0
 ITRead=  0  0  0  0  0  0
 MicOpt= -1 -1 -1 -1 -1 -1 -1 -1 -1 -1 -1 -1 -1 -1 -1 -1 -1 -1 -1 -1
 MicOpt= -1 -1 -1 -1 -1 -1 -1 -1 -1 -1 -1 -1 -1 -1 -1 -1 -1 -1 -1 -1
 MicOpt= -1 -1 -1 -1 -1 -1
 NAtoms=     46 NQM=       46 NQMF=       0 NMMI=      0 NMMIF=      0
                NMic=       0 NMicF=      0.
                    Isotopes and Nuclear Properties:
 (Nuclear quadrupole moments (NQMom) in fm**2, nuclear magnetic moments (NMagM)
  in nuclear magnetons)

  Atom         1           2           3           4           5           6           7           8           9          10
 IAtWgt=          12          12          12          12          12          12           1           1           1           1
 AtmWgt=  12.0000000  12.0000000  12.0000000  12.0000000  12.0000000  12.0000000   1.0078250   1.0078250   1.0078250   1.0078250
 NucSpn=           0           0           0           0           0           0           1           1           1           1
 AtZEff=  -0.0000000  -0.0000000  -0.0000000  -0.0000000  -0.0000000  -0.0000000  -0.0000000  -0.0000000  -0.0000000  -0.0000000
 NQMom=    0.0000000   0.0000000   0.0000000   0.0000000   0.0000000   0.0000000   0.0000000   0.0000000   0.0000000   0.0000000
 NMagM=    0.0000000   0.0000000   0.0000000   0.0000000   0.0000000   0.0000000   2.7928460   2.7928460   2.7928460   2.7928460
 AtZNuc=   6.0000000   6.0000000   6.0000000   6.0000000   6.0000000   6.0000000   1.0000000   1.0000000   1.0000000   1.0000000

  Atom        11          12          13          14          15          16          17          18          19          20
 IAtWgt=          12          12          12          12          12          12           1           1           1           1
 AtmWgt=  12.0000000  12.0000000  12.0000000  12.0000000  12.0000000  12.0000000   1.0078250   1.0078250   1.0078250   1.0078250
 NucSpn=           0           0           0           0           0           0           1           1           1           1
 AtZEff=  -0.0000000  -0.0000000  -0.0000000  -0.0000000  -0.0000000  -0.0000000  -0.0000000  -0.0000000  -0.0000000  -0.0000000
 NQMom=    0.0000000   0.0000000   0.0000000   0.0000000   0.0000000   0.0000000   0.0000000   0.0000000   0.0000000   0.0000000
 NMagM=    0.0000000   0.0000000   0.0000000   0.0000000   0.0000000   0.0000000   2.7928460   2.7928460   2.7928460   2.7928460
 AtZNuc=   6.0000000   6.0000000   6.0000000   6.0000000   6.0000000   6.0000000   1.0000000   1.0000000   1.0000000   1.0000000

  Atom        21          22          23          24          25          26          27          28          29          30
 IAtWgt=           1          14          12          12          12          12          12          12           1           1
 AtmWgt=   1.0078250  14.0030740  12.0000000  12.0000000  12.0000000  12.0000000  12.0000000  12.0000000   1.0078250   1.0078250
 NucSpn=           1           2           0           0           0           0           0           0           1           1
 AtZEff=  -0.0000000  -0.0000000  -0.0000000  -0.0000000  -0.0000000  -0.0000000  -0.0000000  -0.0000000  -0.0000000  -0.0000000
 NQMom=    0.0000000   2.0440000   0.0000000   0.0000000   0.0000000   0.0000000   0.0000000   0.0000000   0.0000000   0.0000000
 NMagM=    2.7928460   0.4037610   0.0000000   0.0000000   0.0000000   0.0000000   0.0000000   0.0000000   2.7928460   2.7928460
 AtZNuc=   1.0000000   7.0000000   6.0000000   6.0000000   6.0000000   6.0000000   6.0000000   6.0000000   1.0000000   1.0000000

  Atom        31          32          33          34          35          36          37          38          39          40
 IAtWgt=           1           1          12          12          12          12          12          12           1           1
 AtmWgt=   1.0078250   1.0078250  12.0000000  12.0000000  12.0000000  12.0000000  12.0000000  12.0000000   1.0078250   1.0078250
 NucSpn=           1           1           0           0           0           0           0           0           1           1
 AtZEff=  -0.0000000  -0.0000000  -0.0000000  -0.0000000  -0.0000000  -0.0000000  -0.0000000  -0.0000000  -0.0000000  -0.0000000
 NQMom=    0.0000000   0.0000000   0.0000000   0.0000000   0.0000000   0.0000000   0.0000000   0.0000000   0.0000000   0.0000000
 NMagM=    2.7928460   2.7928460   0.0000000   0.0000000   0.0000000   0.0000000   0.0000000   0.0000000   2.7928460   2.7928460
 AtZNuc=   1.0000000   1.0000000   6.0000000   6.0000000   6.0000000   6.0000000   6.0000000   6.0000000   1.0000000   1.0000000

  Atom        41          42          43          44          45          46
 IAtWgt=           1           1          16           1          16           1
 AtmWgt=   1.0078250   1.0078250  15.9949146   1.0078250  15.9949146   1.0078250
 NucSpn=           1           1           0           1           0           1
 AtZEff=  -0.0000000  -0.0000000  -0.0000000  -0.0000000  -0.0000000  -0.0000000
 NQMom=    0.0000000   0.0000000   0.0000000   0.0000000   0.0000000   0.0000000
 NMagM=    2.7928460   2.7928460   0.0000000   2.7928460   0.0000000   2.7928460
 AtZNuc=   1.0000000   1.0000000   8.0000000   1.0000000   8.0000000   1.0000000
 Leave Link  101 at Sun Jan 17 22:24:48 2021, MaxMem=  4026531840 cpu:               0.7 elap:               0.1
 (Enter /opt/ohpc/pub/libs/gaussian/g16-A.03/sandybridge/g16/l202.exe)
                          Input orientation:                          
 ---------------------------------------------------------------------
 Center     Atomic      Atomic             Coordinates (Angstroms)
 Number     Number       Type             X           Y           Z
 ---------------------------------------------------------------------
      1          6           0       -6.538108   -0.217341    1.255514
      2          6           0       -7.258661    0.087287    0.107878
      3          6           0       -5.151390   -0.259049    1.219222
      4          6           0       -6.580697    0.348691   -1.075777
      5          6           0       -4.458004    0.000662    0.035726
      6          6           0       -5.193998    0.304569   -1.110911
      7          1           0       -8.345644    0.121015    0.135956
      8          1           0       -4.593910   -0.476283    2.128350
      9          1           0       -7.136138    0.581164   -1.982188
     10          1           0       -4.671509    0.488761   -2.047704
     11          6           0       -2.974479   -0.044963   -0.002770
     12          6           0       -2.240322    0.918366   -0.694597
     13          6           0       -2.265576   -1.051297    0.654611
     14          6           0       -0.856277    0.875925   -0.739808
     15          6           0       -0.881570   -1.094369    0.628888
     16          6           0       -0.155643   -0.133238   -0.077397
     17          1           0       -2.762026    1.727417   -1.202285
     18          1           0       -2.809037   -1.823891    1.195264
     19          1           0       -0.306381    1.639189   -1.284917
     20          1           0       -0.352632   -1.885069    1.155020
     21          1           0       -7.059465   -0.416189    2.189743
     22          7           0        1.257026   -0.160831   -0.103806
     23          6           0        1.965402   -1.377887   -0.174570
     24          6           0        3.190004   -1.508547    0.478017
     25          6           0        1.461496   -2.456008   -0.912094
     26          6           0        3.903051   -2.696891    0.390217
     27          6           0        2.178621   -3.638306   -0.974610
     28          6           0        3.402953   -3.775056   -0.332839
     29          1           0        3.600761   -0.690157    1.062074
     30          1           0        0.514840   -2.358097   -1.435231
     31          1           0        1.782807   -4.471654   -1.551437
     32          1           0        3.963923   -4.706428   -0.398055
     33          6           0        1.972861    1.068372   -0.045814
     34          6           0        2.971482    1.350948   -0.972341
     35          6           0        1.683086    2.012203    0.939258
     36          6           0        3.676780    2.543988   -0.910119
     37          6           0        2.365608    3.214996    0.992156
     38          6           0        3.371443    3.483300    0.069272
     39          1           0        3.205268    0.621566   -1.744392
     40          1           0        0.904271    1.798314    1.667748
     41          1           0        4.460878    2.747602   -1.639197
     42          1           0        2.139895    3.954598    1.756001
     43          8           0        4.022986    4.680331    0.173244
     44          1           0        4.695287    4.738350   -0.517835
     45          8           0        5.097214   -2.751708    1.053752
     46          1           0        5.479651   -3.631493    0.941087
 ---------------------------------------------------------------------
                    Distance matrix (angstroms):
                    1          2          3          4          5
     1  C    0.000000
     2  C    1.388907   0.000000
     3  C    1.387820   2.407410   0.000000
     4  C    2.399401   1.388887   2.771153   0.000000
     5  C    2.421206   2.802925   1.396029   2.421237   0.000000
     6  C    2.771099   2.407383   2.397707   1.387846   1.396003
     7  H    2.152924   1.087869   3.394285   2.152945   3.890794
     8  H    2.146811   3.391285   1.088342   3.859318   2.150586
     9  H    3.387914   2.151117   3.859302   1.088182   3.403140
    10  H    3.859277   3.391323   3.385604   2.146919   2.150466
    11  C    3.783179   4.287651   2.505601   3.783004   1.484726
    12  C    4.854248   5.149600   3.677408   4.394165   2.508718
    13  C    4.394439   5.150358   3.045384   4.855356   2.509258
    14  C    6.120437   6.506231   4.855302   5.758458   3.786816
    15  C    5.758321   6.506539   4.390628   6.121140   3.787059
    16  C    6.520704   7.108855   5.162803   6.519995   4.305930
    17  H    4.907306   4.962487   3.939391   4.061913   2.718583
    18  H    4.060862   4.963282   2.817077   4.909497   2.718936
    19  H    6.981040   7.258269   5.774784   6.409069   4.654551
    20  H    6.407147   7.258094   5.067163   6.982473   4.654340
    21  H    1.088181   2.151123   2.146475   3.387902   3.403109
    22  N    7.912968   8.521930   6.544299   7.914180   5.719014
    23  C    8.700672   9.343974   7.337791   8.765218   6.573033
    24  C    9.844180  10.576308   8.466964  10.066291   7.808032
    25  C    8.585093   9.140560   7.286933   8.518803   6.478740
    26  C   10.766369  11.507179   9.413460  11.015157   8.792593
    27  C    9.625893  10.203632   8.364289   9.624554   7.635945
    28  C   10.677307  11.348213   9.378059  10.827304   8.728490
    29  H   10.151731  10.928950   8.764171  10.455224   8.153178
    30  H    7.846465   8.293878   6.599870   7.602799   5.697073
    31  H    9.757857  10.260868   8.573545   9.664894   7.840180
    32  H   11.540314  12.214011  10.270526  11.713349   9.657832
    33  C    8.705349   9.284780   7.356447   8.645352   6.519408
    34  C    9.892177  10.364340   8.565984   9.605173   7.618184
    35  C    8.524020   9.184298   7.207429   8.667050   6.525002
    36  C   10.800872  11.254136   9.504088  10.491073   8.575421
    37  C    9.546018  10.158300   8.284069   9.619170   7.603182
    38  C   10.644300  11.159458   9.379032  10.496761   8.569138
    39  H   10.229202  10.640027   8.910231   9.812574   7.891773
    40  H    7.721516   8.484944   6.411314   8.102659   5.886344
    41  H   11.753635  12.144017  10.469298  11.313204   9.481429
    42  H    9.641748  10.295886   8.438352   9.852424   7.881956
    43  O   11.691673  12.180964  10.471901  11.522207   9.687384
    44  H   12.405354  12.842148  11.178033  12.113142  10.321572
    45  O   11.909846  12.713073  10.548678  12.268699   9.995705
    46  H   12.497273  13.296171  11.156602  12.859300  10.619285
                    6          7          8          9         10
     6  C    0.000000
     7  H    3.394295   0.000000
     8  H    3.385653   4.289744   0.000000
     9  H    2.146517   2.482172   4.947488   0.000000
    10  H    1.088349   4.289857   4.286812   2.467231   0.000000
    11  C    2.505277   5.375519   2.711137   4.650757   2.710448
    12  C    3.045368   6.212934   3.931088   5.073520   2.815338
    13  C    3.678464   6.213738   2.814904   5.774081   3.932277
    14  C    4.390898   7.578091   4.901499   6.408358   4.051726
    15  C    4.856023   7.578426   4.051158   6.981744   4.902457
    16  C    5.161865   8.196724   4.968019   7.270895   4.966089
    17  H    2.819102   5.962232   4.393771   4.588573   2.427988
    18  H    3.941678   5.963121   2.423318   5.882541   4.397045
    19  H    5.069545   8.303823   5.874395   6.946307   4.578173
    20  H    5.776485   8.303680   4.573892   7.870218   5.877517
    21  H    3.859246   2.482113   2.467051   4.290175   4.947446
    22  N    6.545729   9.609797   6.270206   8.632733   6.272817
    23  C    7.413798  10.424049   7.010057   9.483849   7.144340
    24  C    8.723736  11.655199   8.023620  10.818905   8.495404
    25  C    7.208045  10.194089   7.059147   9.180895   6.897465
    26  C    9.696311  12.571228   8.952684  11.757451   9.466516
    27  C    8.361839  11.230583   8.092832  10.275401   8.068983
    28  C    9.547581  12.386633   8.993841  11.522562   9.290739
    29  H    9.113678  12.009675   8.266518  11.232310   8.915774
    30  H    6.307599   9.333960   6.506893   8.214370   5.947936
    31  H    8.466533  11.248352   8.376535  10.259829   8.155378
    32  H   10.463545  13.233095   9.874885  12.396752  10.211857
    33  C    7.285719  10.363497   7.087696   9.325276   6.963560
    34  C    8.233418  11.437587   8.377841  10.187067   7.766279
    35  C    7.376550  10.237056   6.856178   9.400076   7.184963
    36  C    9.151285  12.308686   9.314432  11.041794   8.672484
    37  C    8.369057  11.181982   7.959357  10.298882   8.135977
    38  C    9.212163  12.190141   9.130441  11.092346   8.839566
    39  H    8.429084  11.713660   8.776707  10.344219   7.883733
    40  H    6.865938   9.524739   5.967909   8.913566   6.827066
    41  H    9.973170  13.193071  10.323615  11.802622   9.416461
    42  H    8.679164  11.281287   8.069416  10.554568   8.536710
    43  O   10.283440  13.182252  10.230543  12.082016   9.904348
    44  H   10.853944  13.849661  10.976515  12.625733  10.398864
    45  O   10.951513  13.776985  10.012502  13.037633  10.749308
    46  H   11.559847  14.348113  10.622692  13.618008  11.355854
                   11         12         13         14         15
    11  C    0.000000
    12  C    1.394853   0.000000
    13  C    1.395493   2.387587   0.000000
    14  C    2.424467   1.385433   2.764907   0.000000
    15  C    2.424977   2.765668   1.384915   2.399172   0.000000
    16  C    2.821205   2.415097   2.414640   1.395739   1.396274
    17  H    2.150652   1.088341   3.378724   2.137944   3.853801
    18  H    2.151102   3.378607   1.088374   3.853152   2.137314
    19  H    3.405733   2.146670   3.852133   1.087245   3.386123
    20  H    3.405958   3.852753   2.145912   3.386314   1.087105
    21  H    4.651025   5.772746   5.073595   6.980786   6.408009
    22  N    4.234297   3.707444   3.711718   2.438321   2.445798
    23  C    5.119436   4.819888   4.323815   3.655275   2.971730
    24  C    6.354061   6.062456   5.477556   4.851927   4.095366
    25  C    5.130096   5.013697   4.280052   4.062454   3.117474
    26  C    7.381570   7.210266   6.389823   6.057489   5.051499
    27  C    6.356967   6.353639   5.394244   5.444632   4.290407
    28  C    7.395551   7.348852   6.366015   6.319675   5.144720
    29  H    6.692081   6.308050   5.891550   5.056143   4.521319
    30  H    4.424690   4.344498   3.715626   3.580848   2.794201
    31  H    6.680249   6.780270   5.740635   6.018314   4.822735
    32  H    8.368209   8.379672   7.298955   7.383345   6.130284
    33  C    5.071246   4.265481   4.790401   2.919364   3.644235
    34  C    6.184100   5.237096   5.987030   3.864124   4.836271
    35  C    5.178056   4.388518   5.005795   3.249424   4.040369
    36  C    7.194803   6.140130   7.119414   4.833223   6.031976
    37  C    6.335120   5.416109   6.305796   4.341831   5.408027
    38  C    7.261168   6.217257   7.258180   5.032557   6.273463
    39  H    6.454981   5.553792   6.203533   4.191663   5.027836
    40  H    4.607928   4.030316   4.381171   3.121964   3.554725
    41  H    8.109306   7.010311   8.058435   5.708258   6.960366
    42  H    6.726558   5.866041   6.758714   4.968333   5.990968
    43  O    8.445348   7.357619   8.522282   6.254149   7.590088
    44  H    9.053766   7.919987   9.129527   6.766643   8.150885
    45  O    8.578749   8.388421   7.567125   7.198655   6.218773
    46  H    9.231813   9.109043   8.168722   7.955263   6.855625
                   16         17         18         19         20
    16  C    0.000000
    17  H    3.394207   0.000000
    18  H    3.393888   4.285118   0.000000
    19  H    2.149959   2.458618   4.940396   0.000000
    20  H    2.150946   4.940862   2.457496   4.286703   0.000000
    21  H    7.272052   5.879531   4.586584   7.867781   6.943333
    22  N    1.413185   4.574376   4.581072   2.660702   2.673694
    23  C    2.461184   5.748712   4.987046   3.936574   2.719986
    24  C    3.659688   6.980082   6.049990   5.024031   3.626344
    25  C    2.950783   5.951756   4.803955   4.476050   2.808913
    26  C    4.823274   8.156826   6.816330   6.271123   4.399411
    27  C    4.305727   7.297452   5.733863   5.841531   3.743849
    28  C    5.098205   8.309038   6.688121   6.631716   4.459842
    29  H    3.964735   7.173357   6.510653   5.118591   4.131074
    30  H    2.691330   5.242475   4.272357   4.083539   2.772303
    31  H    4.975162   7.694537   5.969929   6.463601   4.309922
    32  H    6.163417   9.342352   7.531313   7.699927   5.385606
    33  C    2.444462   4.918427   5.724684   2.656342   3.946230
    34  C    3.575282   5.750454   6.942083   3.305325   5.103646
    35  C    3.002903   4.942300   5.912726   3.007336   4.402207
    36  C    4.748519   6.496951   8.097952   4.101793   6.333838
    37  C    4.325658   5.772443   7.225551   3.848085   5.781524
    38  C    5.053830   6.505338   8.223896   4.331393   6.623214
    39  H    3.826790   6.093060   7.126970   3.684882   5.229576
    40  H    2.810666   4.656592   5.208864   3.195189   3.925558
    41  H    5.661336   7.307668   9.043472   4.907224   7.241489
    42  H    5.034009   6.143340   7.628715   4.537903   6.377741
    43  O    6.379201   7.526498   9.488201   5.488005   7.950748
    44  H    6.888968   8.071289  10.114969   5.933793   8.494093
    45  O    5.977323   9.323085   7.961763   7.344943   5.519252
    46  H    6.710562  10.061670   8.487307   8.137159   6.091904
                   21         22         23         24         25
    21  H    0.000000
    22  N    8.630736   0.000000
    23  C    9.378863   1.409975   0.000000
    24  C   10.448678   2.427192   1.393769   0.000000
    25  C    9.294570   2.441920   1.400074   2.412018   0.000000
    26  C   11.340928   3.698257   2.411066   1.388635   2.777630
    27  C   10.282869   3.701415   2.407285   2.769277   1.384198
    28  C   11.274201   4.209523   2.799647   2.416588   2.417577
    29  H   10.723204   2.670685   2.162559   1.086097   3.404706
    30  H    8.618674   2.674231   2.157361   3.396874   1.086009
    31  H   10.422524   4.577693   3.391238   3.857316   2.138885
    32  H   12.108589   5.298710   3.888858   3.404834   3.404522
    33  C    9.422555   1.423630   2.449656   2.897645   3.665132
    34  C   10.664963   2.445238   3.015821   3.213721   4.095925
    35  C    9.159312   2.447772   3.579529   3.857360   4.841644
    36  C   11.560223   3.717714   4.341768   4.311254   5.468770
    37  C   10.171122   3.718373   4.755627   4.822429   6.050113
    38  C   11.336060   4.216682   5.066315   5.011839   6.315565
    39  H   11.041698   2.664454   2.828325   3.078428   3.633858
    40  H    8.282366   2.664787   3.822092   4.192298   5.006530
    41  H   12.545464   4.591413   5.039067   4.920622   6.050002
    42  H   10.194123   4.601641   5.673883   5.708058   6.976735
    43  O   12.363717   5.582485   6.407545   6.252116   7.659408
    44  H   13.117715   5.999586   6.706598   6.502409   7.897571
    45  O   12.431008   4.774896   3.633787   2.348270   4.143722
    46  H   13.004874   5.564877   4.321270   3.156551   4.578386
                   26         27         28         29         30
    26  C    0.000000
    27  C    2.392211   0.000000
    28  C    1.391168   1.389086   0.000000
    29  H    2.137698   3.855145   3.391388   0.000000
    30  H    3.863550   2.149250   3.400623   4.305980   0.000000
    31  H    3.378644   1.088057   2.143619   4.943189   2.467462
    32  H    2.159471   2.158843   1.089217   4.288857   4.299601
    33  C    4.253582   4.801856   5.058294   2.640057   3.974543
    34  C    4.371428   5.051860   5.183729   2.949737   4.472848
    35  C    5.235003   5.986376   6.169971   3.315918   5.109062
    36  C    5.404524   6.361556   6.351264   3.788802   5.856965
    37  C    6.138116   7.132383   7.189751   4.096427   6.354283
    38  C    6.211310   7.295875   7.269554   4.296043   6.674251
    39  H    4.006946   4.448941   4.621888   3.123025   4.026459
    40  H    5.552624   6.177610   6.427147   3.718923   5.201527
    41  H    5.837139   6.813970   6.735788   4.455879   6.456081
    42  H    7.015439   8.069072   8.105931   4.918273   7.257746
    43  O    7.381386   8.597614   8.493181   5.459893   8.027064
    44  H    7.532264   8.758460   8.612922   5.758714   8.287178
    45  O    1.367227   3.663126   2.416691   2.547437   5.229543
    46  H    1.913794   3.816640   2.440527   3.492323   5.649582
                   31         32         33         34         35
    31  H    0.000000
    32  H    2.478442   0.000000
    33  C    5.744120   6.118555   0.000000
    34  C    5.970845   6.164945   1.391239   0.000000
    35  C    6.946503   7.220154   1.394688   2.398215   0.000000
    36  C    7.295043   7.274146   2.414085   1.387322   2.770885
    37  C    8.117519   8.199772   2.416532   2.775069   1.383960
    38  C    8.272349   8.224419   2.793055   2.406627   2.402405
    39  H    5.291646   5.547585   2.145607   1.087528   3.384211
    40  H    7.102639   7.479350   2.147323   3.382834   1.087658
    41  H    7.700482   7.572976   3.398369   2.147938   3.860747
    42  H    9.059160   9.109358   3.406573   3.861914   2.156071
    43  O    9.578714   9.404314   4.158996   3.674618   3.630539
    44  H    9.714682   9.473810   4.593816   3.827868   4.316057
    45  O    4.553078   2.685707   5.056050   5.045352   5.862101
    46  H    4.537092   2.290462   5.946451   5.897189   6.801854
                   36         37         38         39         40
    36  C    0.000000
    37  C    2.405842   0.000000
    38  C    1.390951   1.391189   0.000000
    39  H    2.148032   3.862590   3.392125   0.000000
    40  H    3.858527   2.144509   3.388398   4.280423   0.000000
    41  H    1.089873   3.395973   2.155687   2.471366   4.948382
    42  H    3.385267   1.086930   2.141001   4.949432   2.486788
    43  O    2.420226   2.358967   1.366822   4.562846   4.501772
    44  H    2.450810   3.166715   1.916353   4.546703   5.271849
    45  O    5.823986   6.562547   6.543914   4.773683   6.217754
    46  H    6.694316   7.521588   7.471605   5.520247   7.137573
                   41         42         43         44         45
    41  H    0.000000
    42  H    4.286160   0.000000
    43  O    2.685542   2.564730   0.000000
    44  H    2.296841   3.509220   0.965891   0.000000
    45  O    6.156241   7.362977   7.560718   7.663707   0.000000
    46  H    6.956193   8.328675   8.473363   8.532172   0.965905
                   46
    46  H    0.000000
 Stoichiometry    C24H19NO2(1+,2)
 Framework group  C1[X(C24H19NO2)]
 Deg. of freedom   132
 Full point group                 C1      NOp   1
 Largest Abelian subgroup         C1      NOp   1
 Largest concise Abelian subgroup C1      NOp   1
                         Standard orientation:                         
 ---------------------------------------------------------------------
 Center     Atomic      Atomic             Coordinates (Angstroms)
 Number     Number       Type             X           Y           Z
 ---------------------------------------------------------------------
      1          6           0       -6.538108   -0.217341    1.255514
      2          6           0       -7.258661    0.087287    0.107878
      3          6           0       -5.151390   -0.259049    1.219222
      4          6           0       -6.580697    0.348691   -1.075777
      5          6           0       -4.458004    0.000662    0.035726
      6          6           0       -5.193998    0.304569   -1.110911
      7          1           0       -8.345644    0.121015    0.135956
      8          1           0       -4.593910   -0.476283    2.128350
      9          1           0       -7.136138    0.581164   -1.982188
     10          1           0       -4.671509    0.488761   -2.047704
     11          6           0       -2.974479   -0.044963   -0.002770
     12          6           0       -2.240322    0.918366   -0.694597
     13          6           0       -2.265576   -1.051297    0.654611
     14          6           0       -0.856277    0.875925   -0.739808
     15          6           0       -0.881570   -1.094369    0.628888
     16          6           0       -0.155643   -0.133238   -0.077397
     17          1           0       -2.762026    1.727417   -1.202285
     18          1           0       -2.809037   -1.823891    1.195264
     19          1           0       -0.306381    1.639189   -1.284917
     20          1           0       -0.352632   -1.885069    1.155020
     21          1           0       -7.059465   -0.416189    2.189743
     22          7           0        1.257026   -0.160831   -0.103806
     23          6           0        1.965402   -1.377887   -0.174570
     24          6           0        3.190004   -1.508547    0.478017
     25          6           0        1.461496   -2.456008   -0.912094
     26          6           0        3.903051   -2.696891    0.390217
     27          6           0        2.178621   -3.638306   -0.974610
     28          6           0        3.402953   -3.775056   -0.332839
     29          1           0        3.600761   -0.690157    1.062074
     30          1           0        0.514840   -2.358097   -1.435231
     31          1           0        1.782807   -4.471654   -1.551437
     32          1           0        3.963923   -4.706428   -0.398055
     33          6           0        1.972861    1.068372   -0.045814
     34          6           0        2.971482    1.350948   -0.972341
     35          6           0        1.683086    2.012203    0.939258
     36          6           0        3.676780    2.543988   -0.910119
     37          6           0        2.365608    3.214996    0.992156
     38          6           0        3.371443    3.483300    0.069272
     39          1           0        3.205268    0.621566   -1.744392
     40          1           0        0.904271    1.798314    1.667748
     41          1           0        4.460878    2.747602   -1.639197
     42          1           0        2.139895    3.954598    1.756001
     43          8           0        4.022986    4.680331    0.173244
     44          1           0        4.695287    4.738350   -0.517835
     45          8           0        5.097214   -2.751708    1.053752
     46          1           0        5.479651   -3.631493    0.941087
 ---------------------------------------------------------------------
 Rotational constants (GHZ):           0.2747871           0.0974680           0.0767524
 Leave Link  202 at Sun Jan 17 22:24:48 2021, MaxMem=  4026531840 cpu:               0.3 elap:               0.1
 (Enter /opt/ohpc/pub/libs/gaussian/g16-A.03/sandybridge/g16/l301.exe)
 Standard basis: TZVP (5D, 7F)
 Ernie: Thresh=  0.10000D-02 Tol=  0.10000D-05 Strict=F.
 There are   654 symmetry adapted cartesian basis functions of A   symmetry.
 There are   627 symmetry adapted basis functions of A   symmetry.
   627 basis functions,  1097 primitive gaussians,   654 cartesian basis functions
    93 alpha electrons       92 beta electrons
       nuclear repulsion energy      2186.7759231597 Hartrees.
 IExCor=33909 DFT=T Ex+Corr=LC-wHPBE ExCW=0 ScaHFX=  1.000000
 ScaDFX=  1.000000  1.000000  1.000000  1.000000 ScalE2=  1.000000  1.000000
 IRadAn=      5 IRanWt=     -1 IRanGd=            0 ICorTp=0 IEmpDi=  4
 HFx  wShort=  0.000000 wLong=  0.181900 cFull=  0.000000 cShort=  0.000000 cLong=  1.000000
 DFx  wShort=  0.000000 wLong=  0.181900 cFull=  0.000000 cShort=  1.000000 cLong=  0.000000
 NAtoms=   46 NActive=   46 NUniq=   46 SFac= 1.00D+00 NAtFMM=   60 NAOKFM=F Big=F
 Integral buffers will be    131072 words long.
 Raffenetti 2 integral format.
 Two-electron integral symmetry is turned on.
 Leave Link  301 at Sun Jan 17 22:24:48 2021, MaxMem=  4026531840 cpu:               0.4 elap:               0.1
 (Enter /opt/ohpc/pub/libs/gaussian/g16-A.03/sandybridge/g16/l302.exe)
 NPDir=0 NMtPBC=     1 NCelOv=     1 NCel=       1 NClECP=     1 NCelD=      1
         NCelK=      1 NCelE2=     1 NClLst=     1 CellRange=     0.0.
 One-electron integrals computed using PRISM.
 One-electron integral symmetry used in STVInt
 NBasis=   627 RedAO= T EigKep=  6.83D-06  NBF=   627
 NBsUse=   627 1.00D-06 EigRej= -1.00D+00 NBFU=   627
 Precomputing XC quadrature grid using
 IXCGrd= 4 IRadAn=           5 IRanWt=          -1 IRanGd=           0 AccXCQ= 0.00D+00.
 Generated NRdTot=       0 NPtTot=           0 NUsed=           0 NTot=          32
 NSgBfM=   623   621   621   623   623 MxSgAt=    46 MxSgA2=    46.
 Leave Link  302 at Sun Jan 17 22:24:50 2021, MaxMem=  4026531840 cpu:               8.9 elap:               1.2
 (Enter /opt/ohpc/pub/libs/gaussian/g16-A.03/sandybridge/g16/l303.exe)
 DipDrv:  MaxL=1.
 Leave Link  303 at Sun Jan 17 22:24:50 2021, MaxMem=  4026531840 cpu:               1.0 elap:               0.2
 (Enter /opt/ohpc/pub/libs/gaussian/g16-A.03/sandybridge/g16/l401.exe)
 ExpMin= 9.52D-02 ExpMax= 2.70D+04 ExpMxC= 9.22D+02 IAcc=3 IRadAn=         5 AccDes= 0.00D+00
 Harris functional with IExCor=33909 and IRadAn=       5 diagonalized for initial guess.
 HarFok:  IExCor=33909 AccDes= 0.00D+00 IRadAn=         5 IDoV= 1 UseB2=F ITyADJ=14
 ICtDFT=  3500011 ScaDFX=  1.000000  1.000000  1.000000  1.000000
 FoFCou: FMM=F IPFlag=           0 FMFlag=      100000 FMFlg1=           0
         NFxFlg=           0 DoJE=T BraDBF=F KetDBF=T FulRan=T
         wScrn=  0.000000 ICntrl=       500 IOpCl=  0 I1Cent=   200000004 NGrid=           0
         NMat0=    1 NMatS0=      1 NMatT0=    0 NMatD0=    1 NMtDS0=    0 NMtDT0=    0
 Petite list used in FoFCou.
 Harris En= -1112.26635001489    
 JPrj=0 DoOrth=F DoCkMO=F.
 Initial guess <Sx>= 0.0000 <Sy>= 0.0000 <Sz>= 0.5000 <S**2>= 0.7500 S= 0.5000
 Leave Link  401 at Sun Jan 17 22:24:57 2021, MaxMem=  4026531840 cpu:              53.5 elap:               6.8
 (Enter /opt/ohpc/pub/libs/gaussian/g16-A.03/sandybridge/g16/l502.exe)
 Integral symmetry usage will be decided dynamically.
 UHF open shell SCF:
 Using DIIS extrapolation, IDIIS=    10.
 NGot=  4026531840 LenX=  4025664800 LenY=  4025236430
 Requested convergence on RMS density matrix=1.00D-06 within  32 cycles.
 Requested convergence on MAX density matrix=1.00D-04.
 Requested convergence on             energy=1.00D-04.
 Virtual orbitals will be shifted by   0.500 hartree.
 No special actions if energy rises.
 Dynamic level shift is on during FON iterations.

 Cycle   1  Pass 1  IDiag  1:
 FoFJK:  IHMeth= 1 ICntrl=       0 DoSepK=T KAlg= 0 I1Cent=           0 FoldK=F
 IRaf=         1 NMat=       1 IRICut=       1 DoRegI=T DoRafI=F ISym2E= 0 IDoP0=0 IntGTp=1.
 FoFCou: FMM=F IPFlag=           0 FMFlag=      100000 FMFlg1=           0
         NFxFlg=           0 DoJE=T BraDBF=F KetDBF=F FulRan=T
         wScrn=  0.000000 ICntrl=       500 IOpCl=  0 I1Cent=           0 NGrid=           0
         NMat0=    1 NMatS0=      1 NMatT0=    0 NMatD0=    1 NMtDS0=    0 NMtDT0=    0
 Symmetry not used in FoFCou.
 E= -1129.81761000583    
 DIIS: error= 2.19D-02 at cycle   1 NSaved=   1.
 NSaved= 1 IEnMin= 1 EnMin= -1129.81761000583     IErMin= 1 ErrMin= 2.19D-02
 ErrMax= 2.19D-02  0.00D+00 EMaxC= 1.00D+00 BMatC= 1.83D+00 BMatP= 1.83D+00
 IDIUse=1 WtCom= 1.00D+00 WtEn= 0.00D+00
 Coeff-Com:  0.100D+01
 Coeff:      0.100D+01
 Gap=     0.381 Goal=   None    Shift=    0.500
 T= 1307. Gap= 0.691 NK=0 IS=   94 IE=  627 IFin=   93
          NO(<0.9)=   0  NV(>0.1)=   0     93.00e < EF      0.00e >EF  Err=0.0D+00
 Gap=     0.095 Goal=   None    Shift=    0.500
 T= 1307. Gap= 0.514 NK=0 IS=   93 IE=  627 IFin=   92
          NO(<0.9)=   0  NV(>0.1)=   0     92.00e < EF      0.00e >EF  Err=0.0D+00
 GapD=    0.095 DampG=0.500 DampE=0.500 DampFc=0.2500 IDamp=-1.
 Damping current iteration by 2.50D-01
 RMSDP=2.56D-03 MaxDP=1.27D-01              OVMax= 7.83D-02

 Cycle   2  Pass 1  IDiag  1:
 E= -1129.97550676219     Delta-E=       -0.157896756362 Rises=F Damp=T
 DIIS: error= 1.43D-02 at cycle   2 NSaved=   2.
 NSaved= 2 IEnMin= 2 EnMin= -1129.97550676219     IErMin= 2 ErrMin= 1.43D-02
 ErrMax= 1.43D-02  0.00D+00 EMaxC= 1.00D+00 BMatC= 8.36D-01 BMatP= 1.83D+00
 IDIUse=1 WtCom= 1.00D+00 WtEn= 0.00D+00
 Coeff-Com: -0.185D+01 0.285D+01
 Coeff:     -0.185D+01 0.285D+01
 Gap=     0.286 Goal=   None    Shift=    0.500
 T= 1233. Gap= 0.759 NK=0 IS=   94 IE=  627 IFin=   93
          NO(<0.9)=   0  NV(>0.1)=   0     93.00e < EF      0.00e >EF  Err=0.0D+00
 Gap=     0.175 Goal=   None    Shift=    0.500
 T= 1233. Gap= 0.645 NK=0 IS=   93 IE=  627 IFin=   92
          NO(<0.9)=   0  NV(>0.1)=   0     92.00e < EF      0.00e >EF  Err=0.0D+00
 GapD=    0.175 DampG=1.000 DampE=0.500 DampFc=0.5000 IDamp=-1.
 Damping current iteration by 5.00D-01
 RMSDP=1.88D-03 MaxDP=1.16D-01 DE=-1.58D-01 OVMax= 2.77D-02

 Cycle   3  Pass 1  IDiag  1:
 E= -1130.13900582889     Delta-E=       -0.163499066705 Rises=F Damp=T
 DIIS: error= 6.54D-03 at cycle   3 NSaved=   3.
 NSaved= 3 IEnMin= 3 EnMin= -1130.13900582889     IErMin= 3 ErrMin= 6.54D-03
 ErrMax= 6.54D-03  0.00D+00 EMaxC= 1.00D+00 BMatC= 1.60D-01 BMatP= 8.36D-01
 IDIUse=1 WtCom= 1.00D+00 WtEn= 0.00D+00
 Coeff-Com:  0.904D-02-0.762D+00 0.175D+01
 Coeff:      0.904D-02-0.762D+00 0.175D+01
 Gap=     0.274 Goal=   None    Shift=    0.500
 T= 1048. Gap= 0.772 NK=4 IS=   94 IE=  106 IFin=   93
          NO(<0.9)=   0  NV(>0.1)=   0     93.00e < EF      0.00e >EF  Err=0.0D+00
 Gap=     0.147 Goal=   None    Shift=    0.500
 T= 1048. Gap= 0.647 NK=4 IS=   93 IE=  105 IFin=   92
          NO(<0.9)=   0  NV(>0.1)=   0     92.00e < EF      0.00e >EF  Err=0.0D+00
 GapD=    0.147 DampG=1.000 DampE=1.000 DampFc=1.0000 IDamp=-1.
 RMSDP=9.64D-04 MaxDP=7.26D-02 DE=-1.63D-01 OVMax= 1.08D-02

 Cycle   4  Pass 1  IDiag  1:
 E= -1130.25207855921     Delta-E=       -0.113072730312 Rises=F Damp=F
 DIIS: error= 1.94D-03 at cycle   4 NSaved=   4.
 NSaved= 4 IEnMin= 4 EnMin= -1130.25207855921     IErMin= 4 ErrMin= 1.94D-03
 ErrMax= 1.94D-03  0.00D+00 EMaxC= 1.00D+00 BMatC= 3.72D-03 BMatP= 1.60D-01
 IDIUse=1 WtCom= 1.00D+00 WtEn= 0.00D+00
 Coeff-Com:  0.162D+00-0.260D+00 0.151D+00 0.946D+00
 Coeff:      0.162D+00-0.260D+00 0.151D+00 0.946D+00
 Gap=     0.273 Goal=   None    Shift=    0.500
 T=  671. Gap= 0.773 NK=4 IS=   94 IE=  106 IFin=   93
          NO(<0.9)=   0  NV(>0.1)=   0     93.00e < EF      0.00e >EF  Err=0.0D+00
 Gap=     0.150 Goal=   None    Shift=    0.500
 T=  671. Gap= 0.650 NK=4 IS=   93 IE=  104 IFin=   92
          NO(<0.9)=   0  NV(>0.1)=   0     92.00e < EF      0.00e >EF  Err=0.0D+00
 GapD=    0.150 DampG=1.000 DampE=1.000 DampFc=1.0000 IDamp=-1.
 RMSDP=1.38D-04 MaxDP=5.66D-03 DE=-1.13D-01 OVMax= 8.59D-03

 Cycle   5  Pass 1  IDiag  1:
 E= -1130.25319312788     Delta-E=       -0.001114568677 Rises=F Damp=F
 DIIS: error= 1.50D-03 at cycle   5 NSaved=   5.
 NSaved= 5 IEnMin= 5 EnMin= -1130.25319312788     IErMin= 5 ErrMin= 1.50D-03
 ErrMax= 1.50D-03  0.00D+00 EMaxC= 1.00D+00 BMatC= 6.81D-04 BMatP= 3.72D-03
 IDIUse=1 WtCom= 1.00D+00 WtEn= 0.00D+00
 Coeff-Com:  0.450D-01-0.166D-02-0.119D+00-0.478D-01 0.112D+01
 Coeff:      0.450D-01-0.166D-02-0.119D+00-0.478D-01 0.112D+01
 Gap=     0.274 Goal=   None    Shift=    0.500
 T=  177. Gap= 0.774 NK=4 IS=   94 IE=  106 IFin=   93
          NO(<0.9)=   0  NV(>0.1)=   0     93.00e < EF      0.00e >EF  Err=0.0D+00
 Gap=     0.153 Goal=   None    Shift=    0.500
 T=  177. Gap= 0.653 NK=4 IS=   93 IE=  105 IFin=   92
          NO(<0.9)=   0  NV(>0.1)=   0     92.00e < EF      0.00e >EF  Err=0.0D+00
 GapD=    0.153 DampG=1.000 DampE=1.000 DampFc=1.0000 IDamp=-1.
 RMSDP=9.46D-05 MaxDP=3.55D-03 DE=-1.11D-03 OVMax= 6.24D-03

 Cycle   6  Pass 1  IDiag  1:
 E= -1130.25361152505     Delta-E=       -0.000418397167 Rises=F Damp=F
 DIIS: error= 1.20D-03 at cycle   6 NSaved=   6.
 NSaved= 6 IEnMin= 6 EnMin= -1130.25361152505     IErMin= 6 ErrMin= 1.20D-03
 ErrMax= 1.20D-03  0.00D+00 EMaxC= 1.00D+00 BMatC= 2.15D-04 BMatP= 6.81D-04
 IDIUse=1 WtCom= 1.00D+00 WtEn= 0.00D+00
 Coeff-Com: -0.433D-01 0.938D-01-0.926D-01-0.304D+00 0.515D-01 0.129D+01
 Coeff:     -0.433D-01 0.938D-01-0.926D-01-0.304D+00 0.515D-01 0.129D+01
 Gap=     0.275 Goal=   None    Shift=    0.500
 Gap=     0.154 Goal=   None    Shift=    0.500
 GapD=    0.154 DampG=1.000 DampE=1.000 DampFc=1.0000 IDamp=-1.
 RMSDP=5.90D-05 MaxDP=2.74D-03 DE=-4.18D-04 OVMax= 5.61D-03

 Cycle   7  Pass 1  IDiag  1:
 E= -1130.25384312015     Delta-E=       -0.000231595096 Rises=F Damp=F
 DIIS: error= 1.08D-03 at cycle   7 NSaved=   7.
 NSaved= 7 IEnMin= 7 EnMin= -1130.25384312015     IErMin= 7 ErrMin= 1.08D-03
 ErrMax= 1.08D-03  0.00D+00 EMaxC= 1.00D+00 BMatC= 1.07D-04 BMatP= 2.15D-04
 IDIUse=1 WtCom= 1.00D+00 WtEn= 0.00D+00
 Coeff-Com: -0.290D-01 0.327D-01 0.225D-02-0.871D-01-0.313D+00-0.168D+00
 Coeff-Com:  0.156D+01
 Coeff:     -0.290D-01 0.327D-01 0.225D-02-0.871D-01-0.313D+00-0.168D+00
 Coeff:      0.156D+01
 Gap=     0.275 Goal=   None    Shift=    0.500
 Gap=     0.155 Goal=   None    Shift=    0.500
 GapD=    0.155 DampG=1.000 DampE=1.000 DampFc=1.0000 IDamp=-1.
 RMSDP=3.62D-05 MaxDP=1.63D-03 DE=-2.32D-04 OVMax= 5.07D-03

 Cycle   8  Pass 1  IDiag  1:
 E= -1130.25398966426     Delta-E=       -0.000146544120 Rises=F Damp=F
 DIIS: error= 9.51D-04 at cycle   8 NSaved=   8.
 NSaved= 8 IEnMin= 8 EnMin= -1130.25398966426     IErMin= 8 ErrMin= 9.51D-04
 ErrMax= 9.51D-04  0.00D+00 EMaxC= 1.00D+00 BMatC= 6.16D-05 BMatP= 1.07D-04
 IDIUse=1 WtCom= 1.00D+00 WtEn= 0.00D+00
 Coeff-Com:  0.983D-02-0.335D-01 0.437D-01 0.103D+00-0.157D+00-0.882D+00
 Coeff-Com:  0.177D+00 0.174D+01
 Coeff:      0.983D-02-0.335D-01 0.437D-01 0.103D+00-0.157D+00-0.882D+00
 Coeff:      0.177D+00 0.174D+01
 Gap=     0.275 Goal=   None    Shift=    0.500
 Gap=     0.156 Goal=   None    Shift=    0.500
 RMSDP=2.57D-05 MaxDP=8.88D-04 DE=-1.47D-04 OVMax= 4.98D-03

 Cycle   9  Pass 1  IDiag  1:
 E= -1130.25409011283     Delta-E=       -0.000100448569 Rises=F Damp=F
 DIIS: error= 8.16D-04 at cycle   9 NSaved=   9.
 NSaved= 9 IEnMin= 9 EnMin= -1130.25409011283     IErMin= 9 ErrMin= 8.16D-04
 ErrMax= 8.16D-04  0.00D+00 EMaxC= 1.00D+00 BMatC= 3.49D-05 BMatP= 6.16D-05
 IDIUse=1 WtCom= 1.00D+00 WtEn= 0.00D+00
 Coeff-Com:  0.123D-01-0.185D-01 0.725D-02 0.382D-01 0.164D+00-0.211D+00
 Coeff-Com: -0.854D+00-0.229D+00 0.209D+01
 Coeff:      0.123D-01-0.185D-01 0.725D-02 0.382D-01 0.164D+00-0.211D+00
 Coeff:     -0.854D+00-0.229D+00 0.209D+01
 Gap=     0.275 Goal=   None    Shift=    0.500
 Gap=     0.157 Goal=   None    Shift=    0.500
 RMSDP=1.80D-05 MaxDP=7.48D-04 DE=-1.00D-04 OVMax= 4.56D-03

 Cycle  10  Pass 1  IDiag  1:
 E= -1130.25415503903     Delta-E=       -0.000064926192 Rises=F Damp=F
 DIIS: error= 6.97D-04 at cycle  10 NSaved=  10.
 NSaved=10 IEnMin=10 EnMin= -1130.25415503903     IErMin=10 ErrMin= 6.97D-04
 ErrMax= 6.97D-04  0.00D+00 EMaxC= 1.00D+00 BMatC= 2.14D-05 BMatP= 3.49D-05
 IDIUse=1 WtCom= 1.00D+00 WtEn= 0.00D+00
 Coeff-Com: -0.355D-03 0.559D-02-0.104D-01-0.381D-01 0.147D+00 0.265D+00
 Coeff-Com: -0.585D+00-0.587D+00-0.241D+00 0.204D+01
 Coeff:     -0.355D-03 0.559D-02-0.104D-01-0.381D-01 0.147D+00 0.265D+00
 Coeff:     -0.585D+00-0.587D+00-0.241D+00 0.204D+01
 Gap=     0.275 Goal=   None    Shift=    0.500
 Gap=     0.157 Goal=   None    Shift=    0.500
 RMSDP=1.41D-05 MaxDP=6.58D-04 DE=-6.49D-05 OVMax= 3.87D-03

 Cycle  11  Pass 1  IDiag  1:
 E= -1130.25419545163     Delta-E=       -0.000040412607 Rises=F Damp=F
 DIIS: error= 5.87D-04 at cycle  11 NSaved=  11.
 NSaved=11 IEnMin=11 EnMin= -1130.25419545163     IErMin=11 ErrMin= 5.87D-04
 ErrMax= 5.87D-04  0.00D+00 EMaxC= 1.00D+00 BMatC= 1.38D-05 BMatP= 2.14D-05
 IDIUse=1 WtCom= 1.00D+00 WtEn= 0.00D+00
 Coeff-Com: -0.824D-02 0.109D-01-0.194D-02-0.525D-01-0.594D-01 0.306D+00
 Coeff-Com:  0.270D+00 0.784D-02-0.209D+01 0.232D+00 0.239D+01
 Coeff:     -0.824D-02 0.109D-01-0.194D-02-0.525D-01-0.594D-01 0.306D+00
 Coeff:      0.270D+00 0.784D-02-0.209D+01 0.232D+00 0.239D+01
 Gap=     0.275 Goal=   None    Shift=    0.500
 Gap=     0.158 Goal=   None    Shift=    0.500
 RMSDP=1.25D-05 MaxDP=8.54D-04 DE=-4.04D-05 OVMax= 3.44D-03

 Cycle  12  Pass 1  IDiag  1:
 E= -1130.25422246873     Delta-E=       -0.000027017097 Rises=F Damp=F
 DIIS: error= 5.01D-04 at cycle  12 NSaved=  12.
 NSaved=12 IEnMin=12 EnMin= -1130.25422246873     IErMin=12 ErrMin= 5.01D-04
 ErrMax= 5.01D-04  0.00D+00 EMaxC= 1.00D+00 BMatC= 9.72D-06 BMatP= 1.38D-05
 IDIUse=1 WtCom= 1.00D+00 WtEn= 0.00D+00
 Coeff-Com: -0.206D-02-0.350D-02 0.113D-01-0.220D-01-0.117D+00 0.924D-01
 Coeff-Com:  0.421D+00 0.298D+00-0.128D+01-0.899D+00 0.990D+00 0.151D+01
 Coeff:     -0.206D-02-0.350D-02 0.113D-01-0.220D-01-0.117D+00 0.924D-01
 Coeff:      0.421D+00 0.298D+00-0.128D+01-0.899D+00 0.990D+00 0.151D+01
 Gap=     0.275 Goal=   None    Shift=    0.500
 Gap=     0.158 Goal=   None    Shift=    0.500
 RMSDP=8.54D-06 MaxDP=5.25D-04 DE=-2.70D-05 OVMax= 2.75D-03

 Cycle  13  Pass 1  IDiag  1:
 E= -1130.25423894104     Delta-E=       -0.000016472310 Rises=F Damp=F
 DIIS: error= 4.09D-04 at cycle  13 NSaved=  13.
 NSaved=13 IEnMin=13 EnMin= -1130.25423894104     IErMin=13 ErrMin= 4.09D-04
 ErrMax= 4.09D-04  0.00D+00 EMaxC= 1.00D+00 BMatC= 6.30D-06 BMatP= 9.72D-06
 IDIUse=1 WtCom= 1.00D+00 WtEn= 0.00D+00
 Coeff-Com:  0.596D-02-0.150D-01 0.147D-01 0.205D-01-0.668D-01-0.139D+00
 Coeff-Com:  0.143D+00 0.247D+00 0.562D+00-0.110D+01-0.754D+00-0.433D+00
 Coeff-Com:  0.252D+01
 Coeff:      0.596D-02-0.150D-01 0.147D-01 0.205D-01-0.668D-01-0.139D+00
 Coeff:      0.143D+00 0.247D+00 0.562D+00-0.110D+01-0.754D+00-0.433D+00
 Coeff:      0.252D+01
 Gap=     0.275 Goal=   None    Shift=    0.500
 Gap=     0.158 Goal=   None    Shift=    0.500
 RMSDP=8.25D-06 MaxDP=5.25D-04 DE=-1.65D-05 OVMax= 2.34D-03

 Cycle  14  Pass 1  IDiag  1:
 E= -1130.25424996822     Delta-E=       -0.000011027178 Rises=F Damp=F
 DIIS: error= 3.41D-04 at cycle  14 NSaved=  14.
 NSaved=14 IEnMin=14 EnMin= -1130.25424996822     IErMin=14 ErrMin= 3.41D-04
 ErrMax= 3.41D-04  0.00D+00 EMaxC= 1.00D+00 BMatC= 5.00D-06 BMatP= 6.30D-06
 IDIUse=1 WtCom= 1.00D+00 WtEn= 0.00D+00
 Coeff-Com:  0.375D-02-0.498D-02 0.571D-03 0.148D-01 0.387D-01-0.645D-01
 Coeff-Com: -0.230D+00-0.935D-01 0.100D+01 0.203D+00-0.806D+00-0.266D+01
 Coeff-Com:  0.174D+01 0.186D+01
 Coeff:      0.375D-02-0.498D-02 0.571D-03 0.148D-01 0.387D-01-0.645D-01
 Coeff:     -0.230D+00-0.935D-01 0.100D+01 0.203D+00-0.806D+00-0.266D+01
 Coeff:      0.174D+01 0.186D+01
 Gap=     0.275 Goal=   None    Shift=    0.500
 Gap=     0.158 Goal=   None    Shift=    0.500
 RMSDP=6.58D-06 MaxDP=3.69D-04 DE=-1.10D-05 OVMax= 1.94D-03

 Cycle  15  Pass 1  IDiag  1:
 E= -1130.25425756252     Delta-E=       -0.000007594303 Rises=F Damp=F
 DIIS: error= 2.81D-04 at cycle  15 NSaved=  15.
 NSaved=15 IEnMin=15 EnMin= -1130.25425756252     IErMin=15 ErrMin= 2.81D-04
 ErrMax= 2.81D-04  0.00D+00 EMaxC= 1.00D+00 BMatC= 3.57D-06 BMatP= 5.00D-06
 IDIUse=1 WtCom= 1.00D+00 WtEn= 0.00D+00
 Coeff-Com:  0.731D-03 0.124D-02-0.441D-02-0.470D-03 0.524D-01 0.257D-01
 Coeff-Com: -0.241D+00-0.156D+00 0.474D+00 0.699D+00-0.258D+00-0.245D+01
 Coeff-Com:  0.942D+00 0.419D+00 0.149D+01
 Coeff:      0.731D-03 0.124D-02-0.441D-02-0.470D-03 0.524D-01 0.257D-01
 Coeff:     -0.241D+00-0.156D+00 0.474D+00 0.699D+00-0.258D+00-0.245D+01
 Coeff:      0.942D+00 0.419D+00 0.149D+01
 Gap=     0.275 Goal=   None    Shift=    0.500
 Gap=     0.158 Goal=   None    Shift=    0.500
 RMSDP=4.72D-06 MaxDP=2.67D-04 DE=-7.59D-06 OVMax= 1.57D-03

 Cycle  16  Pass 1  IDiag  1:
 E= -1130.25426266009     Delta-E=       -0.000005097572 Rises=F Damp=F
 DIIS: error= 2.27D-04 at cycle  16 NSaved=  16.
 NSaved=16 IEnMin=16 EnMin= -1130.25426266009     IErMin=16 ErrMin= 2.27D-04
 ErrMax= 2.27D-04  0.00D+00 EMaxC= 1.00D+00 BMatC= 2.36D-06 BMatP= 3.57D-06
 IDIUse=1 WtCom= 1.00D+00 WtEn= 0.00D+00
 Coeff-Com: -0.257D-02 0.387D-02-0.154D-02-0.168D-01-0.906D-02 0.871D-01
 Coeff-Com:  0.656D-01 0.674D-02-0.722D+00 0.372D+00 0.697D+00 0.297D+00
 Coeff-Com: -0.350D+00-0.202D+01-0.635D+00 0.323D+01
 Coeff:     -0.257D-02 0.387D-02-0.154D-02-0.168D-01-0.906D-02 0.871D-01
 Coeff:      0.656D-01 0.674D-02-0.722D+00 0.372D+00 0.697D+00 0.297D+00
 Coeff:     -0.350D+00-0.202D+01-0.635D+00 0.323D+01
 Gap=     0.275 Goal=   None    Shift=    0.500
 Gap=     0.158 Goal=   None    Shift=    0.500
 RMSDP=4.94D-06 MaxDP=2.68D-04 DE=-5.10D-06 OVMax= 1.46D-03

 Cycle  17  Pass 1  IDiag  1:
 E= -1130.25426649654     Delta-E=       -0.000003836444 Rises=F Damp=F
 DIIS: error= 1.84D-04 at cycle  17 NSaved=  17.
 NSaved=17 IEnMin=17 EnMin= -1130.25426649654     IErMin=17 ErrMin= 1.84D-04
 ErrMax= 1.84D-04  0.00D+00 EMaxC= 1.00D+00 BMatC= 1.89D-06 BMatP= 2.36D-06
 IDIUse=1 WtCom= 1.00D+00 WtEn= 0.00D+00
 Coeff-Com: -0.195D-02 0.159D-02 0.148D-02-0.142D-01-0.274D-01 0.560D-01
 Coeff-Com:  0.157D+00 0.529D-01-0.733D+00 0.418D-01 0.638D+00 0.926D+00
 Coeff-Com: -0.304D+00-0.202D+01-0.132D+01 0.265D+01 0.889D+00
 Coeff:     -0.195D-02 0.159D-02 0.148D-02-0.142D-01-0.274D-01 0.560D-01
 Coeff:      0.157D+00 0.529D-01-0.733D+00 0.418D-01 0.638D+00 0.926D+00
 Coeff:     -0.304D+00-0.202D+01-0.132D+01 0.265D+01 0.889D+00
 Gap=     0.275 Goal=   None    Shift=    0.500
 Gap=     0.158 Goal=   None    Shift=    0.500
 RMSDP=3.34D-06 MaxDP=1.96D-04 DE=-3.84D-06 OVMax= 1.21D-03

 Cycle  18  Pass 1  IDiag  1:
 E= -1130.25426912764     Delta-E=       -0.000002631103 Rises=F Damp=F
 DIIS: error= 1.48D-04 at cycle  18 NSaved=  18.
 NSaved=18 IEnMin=18 EnMin= -1130.25426912764     IErMin=18 ErrMin= 1.48D-04
 ErrMax= 1.48D-04  0.00D+00 EMaxC= 1.00D+00 BMatC= 1.26D-06 BMatP= 1.89D-06
 IDIUse=1 WtCom= 1.00D+00 WtEn= 0.00D+00
 Coeff-Com:  0.143D-02-0.359D-02 0.358D-02 0.793D-02-0.172D-01-0.656D-01
 Coeff-Com:  0.888D-01 0.777D-02 0.298D+00-0.480D+00-0.244D+00 0.511D-01
 Coeff-Com:  0.698D+00 0.726D+00-0.104D+01-0.644D+00-0.295D+01 0.456D+01
 Coeff:      0.143D-02-0.359D-02 0.358D-02 0.793D-02-0.172D-01-0.656D-01
 Coeff:      0.888D-01 0.777D-02 0.298D+00-0.480D+00-0.244D+00 0.511D-01
 Coeff:      0.698D+00 0.726D+00-0.104D+01-0.644D+00-0.295D+01 0.456D+01
 Gap=     0.275 Goal=   None    Shift=    0.500
 Gap=     0.158 Goal=   None    Shift=    0.500
 RMSDP=3.90D-06 MaxDP=2.41D-04 DE=-2.63D-06 OVMax= 1.19D-03

 Cycle  19  Pass 1  IDiag  1:
 E= -1130.25427116902     Delta-E=       -0.000002041382 Rises=F Damp=F
 DIIS: error= 1.20D-04 at cycle  19 NSaved=  19.
 NSaved=19 IEnMin=19 EnMin= -1130.25427116902     IErMin=19 ErrMin= 1.20D-04
 ErrMax= 1.20D-04  0.00D+00 EMaxC= 1.00D+00 BMatC= 1.21D-06 BMatP= 1.26D-06
 IDIUse=1 WtCom= 1.00D+00 WtEn= 0.00D+00
 Coeff-Com:  0.122D-02-0.257D-02 0.201D-02 0.613D-02-0.511D-02-0.386D-01
 Coeff-Com:  0.936D-02-0.245D-01 0.364D+00-0.259D+00-0.259D+00-0.604D+00
 Coeff-Com:  0.959D+00 0.828D+00-0.399D+00-0.533D+00-0.357D+01 0.329D+01
 Coeff-Com:  0.124D+01
 Coeff:      0.122D-02-0.257D-02 0.201D-02 0.613D-02-0.511D-02-0.386D-01
 Coeff:      0.936D-02-0.245D-01 0.364D+00-0.259D+00-0.259D+00-0.604D+00
 Coeff:      0.959D+00 0.828D+00-0.399D+00-0.533D+00-0.357D+01 0.329D+01
 Coeff:      0.124D+01
 Gap=     0.275 Goal=   None    Shift=    0.500
 Gap=     0.158 Goal=   None    Shift=    0.500
 RMSDP=2.58D-06 MaxDP=1.42D-04 DE=-2.04D-06 OVMax= 9.67D-04

 Cycle  20  Pass 1  IDiag  1:
 E= -1130.25427251992     Delta-E=       -0.000001350899 Rises=F Damp=F
 DIIS: error= 9.50D-05 at cycle  20 NSaved=  20.
 NSaved=20 IEnMin=20 EnMin= -1130.25427251992     IErMin=20 ErrMin= 9.50D-05
 ErrMax= 9.50D-05  0.00D+00 EMaxC= 1.00D+00 BMatC= 8.89D-07 BMatP= 1.21D-06
 IDIUse=1 WtCom= 1.00D+00 WtEn= 0.00D+00
 Coeff-Com:  0.156D-04 0.106D-03-0.359D-03-0.534D-03 0.169D-02 0.191D-01
 Coeff-Com: -0.449D-01-0.110D-01 0.503D-01 0.139D+00-0.288D-01-0.678D+00
 Coeff-Com:  0.532D+00 0.909D-01 0.176D+00 0.476D+00-0.178D+01 0.762D+00
 Coeff-Com: -0.192D+01 0.322D+01
 Coeff:      0.156D-04 0.106D-03-0.359D-03-0.534D-03 0.169D-02 0.191D-01
 Coeff:     -0.449D-01-0.110D-01 0.503D-01 0.139D+00-0.288D-01-0.678D+00
 Coeff:      0.532D+00 0.909D-01 0.176D+00 0.476D+00-0.178D+01 0.762D+00
 Coeff:     -0.192D+01 0.322D+01
 Gap=     0.275 Goal=   None    Shift=    0.500
 Gap=     0.158 Goal=   None    Shift=    0.500
 RMSDP=2.24D-06 MaxDP=1.01D-04 DE=-1.35D-06 OVMax= 8.42D-04

 Cycle  21  Pass 1  IDiag  1:
 E= -1130.25427342985     Delta-E=       -0.000000909927 Rises=F Damp=F
 DIIS: error= 7.81D-05 at cycle  21 NSaved=  20.
 NSaved=20 IEnMin=20 EnMin= -1130.25427342985     IErMin=20 ErrMin= 7.81D-05
 ErrMax= 7.81D-05  0.00D+00 EMaxC= 1.00D+00 BMatC= 6.72D-07 BMatP= 8.89D-07
 IDIUse=1 WtCom= 1.00D+00 WtEn= 0.00D+00
 Coeff-Com: -0.168D-03 0.264D-03-0.174D-02-0.369D-02 0.109D-01 0.997D-02
 Coeff-Com:  0.239D-01-0.146D+00 0.955D-01 0.851D-01 0.655D-02 0.611D-02
 Coeff-Com: -0.362D+00-0.163D+00 0.857D+00-0.135D+00 0.502D+00-0.339D+01
 Coeff-Com:  0.148D+01 0.212D+01
 Coeff:     -0.168D-03 0.264D-03-0.174D-02-0.369D-02 0.109D-01 0.997D-02
 Coeff:      0.239D-01-0.146D+00 0.955D-01 0.851D-01 0.655D-02 0.611D-02
 Coeff:     -0.362D+00-0.163D+00 0.857D+00-0.135D+00 0.502D+00-0.339D+01
 Coeff:      0.148D+01 0.212D+01
 Gap=     0.275 Goal=   None    Shift=    0.500
 Gap=     0.158 Goal=   None    Shift=    0.500
 RMSDP=1.72D-06 MaxDP=8.26D-05 DE=-9.10D-07 OVMax= 7.04D-04

 Cycle  22  Pass 1  IDiag  1:
 E= -1130.25427401769     Delta-E=       -0.000000587839 Rises=F Damp=F
 DIIS: error= 6.33D-05 at cycle  22 NSaved=  20.
 NSaved=20 IEnMin=20 EnMin= -1130.25427401769     IErMin=20 ErrMin= 6.33D-05
 ErrMax= 6.33D-05  0.00D+00 EMaxC= 1.00D+00 BMatC= 4.79D-07 BMatP= 6.72D-07
 IDIUse=1 WtCom= 1.00D+00 WtEn= 0.00D+00
 Coeff-Com: -0.102D-03-0.215D-02-0.114D-02-0.391D-02 0.393D-01-0.888D-02
 Coeff-Com: -0.719D-01-0.417D-01 0.802D-01 0.172D+00-0.212D-01-0.144D+00
 Coeff-Com: -0.425D+00 0.431D+00-0.252D+00 0.122D+01-0.139D+01-0.784D+00
 Coeff-Com: -0.294D+00 0.250D+01
 Coeff:     -0.102D-03-0.215D-02-0.114D-02-0.391D-02 0.393D-01-0.888D-02
 Coeff:     -0.719D-01-0.417D-01 0.802D-01 0.172D+00-0.212D-01-0.144D+00
 Coeff:     -0.425D+00 0.431D+00-0.252D+00 0.122D+01-0.139D+01-0.784D+00
 Coeff:     -0.294D+00 0.250D+01
 Gap=     0.275 Goal=   None    Shift=    0.500
 Gap=     0.158 Goal=   None    Shift=    0.500
 RMSDP=1.27D-06 MaxDP=5.52D-05 DE=-5.88D-07 OVMax= 5.63D-04

 Cycle  23  Pass 1  IDiag  1:
 E= -1130.25427438317     Delta-E=       -0.000000365489 Rises=F Damp=F
 DIIS: error= 5.06D-05 at cycle  23 NSaved=  20.
 NSaved=20 IEnMin=20 EnMin= -1130.25427438317     IErMin=20 ErrMin= 5.06D-05
 ErrMax= 5.06D-05  0.00D+00 EMaxC= 1.00D+00 BMatC= 3.19D-07 BMatP= 4.79D-07
 IDIUse=1 WtCom= 1.00D+00 WtEn= 0.00D+00
 Coeff-Com:  0.524D-03-0.127D-02-0.117D-01 0.270D-01-0.239D-01 0.639D-01
 Coeff-Com: -0.115D+00 0.452D-03-0.404D-01 0.225D+00 0.137D+00-0.281D+00
 Coeff-Com: -0.691D-01-0.848D+00 0.125D+01 0.809D+00-0.123D+01-0.177D+01
 Coeff-Com:  0.743D+00 0.214D+01
 Coeff:      0.524D-03-0.127D-02-0.117D-01 0.270D-01-0.239D-01 0.639D-01
 Coeff:     -0.115D+00 0.452D-03-0.404D-01 0.225D+00 0.137D+00-0.281D+00
 Coeff:     -0.691D-01-0.848D+00 0.125D+01 0.809D+00-0.123D+01-0.177D+01
 Coeff:      0.743D+00 0.214D+01
 Gap=     0.275 Goal=   None    Shift=    0.500
 Gap=     0.158 Goal=   None    Shift=    0.500
 RMSDP=9.52D-07 MaxDP=3.27D-05 DE=-3.65D-07 OVMax= 4.51D-04

 SCF Done:  E(ULC-wHPBE) =  -1130.25427438     A.U. after   23 cycles
            NFock= 23  Conv=0.95D-06     -V/T= 2.0045
 <Sx>= 0.0000 <Sy>= 0.0000 <Sz>= 0.5000 <S**2>= 0.7672 S= 0.5086
 <L.S>= 0.000000000000E+00
 KE= 1.125246892308D+03 PE=-6.981791393959D+03 EE= 2.539514304107D+03
 Annihilation of the first spin contaminant:
 S**2 before annihilation     0.7672,   after     0.7503
 Leave Link  502 at Sun Jan 17 22:47:21 2021, MaxMem=  4026531840 cpu:           10725.4 elap:            1344.2
 (Enter /opt/ohpc/pub/libs/gaussian/g16-A.03/sandybridge/g16/l508.exe)
 QCSCF skips out because SCF is already converged.
 Leave Link  508 at Sun Jan 17 22:47:21 2021, MaxMem=  4026531840 cpu:               0.1 elap:               0.0
 (Enter /opt/ohpc/pub/libs/gaussian/g16-A.03/sandybridge/g16/l601.exe)
 Copying SCF densities to generalized density rwf, IOpCl= 1 IROHF=0.

 **********************************************************************

            Population analysis using the SCF density.

 **********************************************************************

 Orbital symmetries:
 Alpha Orbitals:
       Occupied  (A) (A) (A) (A) (A) (A) (A) (A) (A) (A) (A) (A)
                 (A) (A) (A) (A) (A) (A) (A) (A) (A) (A) (A) (A)
                 (A) (A) (A) (A) (A) (A) (A) (A) (A) (A) (A) (A)
                 (A) (A) (A) (A) (A) (A) (A) (A) (A) (A) (A) (A)
                 (A) (A) (A) (A) (A) (A) (A) (A) (A) (A) (A) (A)
                 (A) (A) (A) (A) (A) (A) (A) (A) (A) (A) (A) (A)
                 (A) (A) (A) (A) (A) (A) (A) (A) (A) (A) (A) (A)
                 (A) (A) (A) (A) (A) (A) (A) (A) (A)
       Virtual   (A) (A) (A) (A) (A) (A) (A) (A) (A) (A) (A) (A)
                 (A) (A) (A) (A) (A) (A) (A) (A) (A) (A) (A) (A)
                 (A) (A) (A) (A) (A) (A) (A) (A) (A) (A) (A) (A)
                 (A) (A) (A) (A) (A) (A) (A) (A) (A) (A) (A) (A)
                 (A) (A) (A) (A) (A) (A) (A) (A) (A) (A) (A) (A)
                 (A) (A) (A) (A) (A) (A) (A) (A) (A) (A) (A) (A)
                 (A) (A) (A) (A) (A) (A) (A) (A) (A) (A) (A) (A)
                 (A) (A) (A) (A) (A) (A) (A) (A) (A) (A) (A) (A)
                 (A) (A) (A) (A) (A) (A) (A) (A) (A) (A) (A) (A)
                 (A) (A) (A) (A) (A) (A) (A) (A) (A) (A) (A) (A)
                 (A) (A) (A) (A) (A) (A) (A) (A) (A) (A) (A) (A)
                 (A) (A) (A) (A) (A) (A) (A) (A) (A) (A) (A) (A)
                 (A) (A) (A) (A) (A) (A) (A) (A) (A) (A) (A) (A)
                 (A) (A) (A) (A) (A) (A) (A) (A) (A) (A) (A) (A)
                 (A) (A) (A) (A) (A) (A) (A) (A) (A) (A) (A) (A)
                 (A) (A) (A) (A) (A) (A) (A) (A) (A) (A) (A) (A)
                 (A) (A) (A) (A) (A) (A) (A) (A) (A) (A) (A) (A)
                 (A) (A) (A) (A) (A) (A) (A) (A) (A) (A) (A) (A)
                 (A) (A) (A) (A) (A) (A) (A) (A) (A) (A) (A) (A)
                 (A) (A) (A) (A) (A) (A) (A) (A) (A) (A) (A) (A)
                 (A) (A) (A) (A) (A) (A) (A) (A) (A) (A) (A) (A)
                 (A) (A) (A) (A) (A) (A) (A) (A) (A) (A) (A) (A)
                 (A) (A) (A) (A) (A) (A) (A) (A) (A) (A) (A) (A)
                 (A) (A) (A) (A) (A) (A) (A) (A) (A) (A) (A) (A)
                 (A) (A) (A) (A) (A) (A) (A) (A) (A) (A) (A) (A)
                 (A) (A) (A) (A) (A) (A) (A) (A) (A) (A) (A) (A)
                 (A) (A) (A) (A) (A) (A) (A) (A) (A) (A) (A) (A)
                 (A) (A) (A) (A) (A) (A) (A) (A) (A) (A) (A) (A)
                 (A) (A) (A) (A) (A) (A) (A) (A) (A) (A) (A) (A)
                 (A) (A) (A) (A) (A) (A) (A) (A) (A) (A) (A) (A)
                 (A) (A) (A) (A) (A) (A) (A) (A) (A) (A) (A) (A)
                 (A) (A) (A) (A) (A) (A) (A) (A) (A) (A) (A) (A)
                 (A) (A) (A) (A) (A) (A) (A) (A) (A) (A) (A) (A)
                 (A) (A) (A) (A) (A) (A) (A) (A) (A) (A) (A) (A)
                 (A) (A) (A) (A) (A) (A) (A) (A) (A) (A) (A) (A)
                 (A) (A) (A) (A) (A) (A) (A) (A) (A) (A) (A) (A)
                 (A) (A) (A) (A) (A) (A) (A) (A) (A) (A) (A) (A)
                 (A) (A) (A) (A) (A) (A) (A) (A) (A) (A) (A) (A)
                 (A) (A) (A) (A) (A) (A) (A) (A) (A) (A) (A) (A)
                 (A) (A) (A) (A) (A) (A) (A) (A) (A) (A) (A) (A)
                 (A) (A) (A) (A) (A) (A) (A) (A) (A) (A) (A) (A)
                 (A) (A) (A) (A) (A) (A) (A) (A) (A) (A) (A) (A)
                 (A) (A) (A) (A) (A) (A) (A) (A) (A) (A) (A) (A)
                 (A) (A) (A) (A) (A) (A) (A) (A) (A) (A) (A) (A)
                 (A) (A) (A) (A) (A) (A)
 Beta  Orbitals:
       Occupied  (A) (A) (A) (A) (A) (A) (A) (A) (A) (A) (A) (A)
                 (A) (A) (A) (A) (A) (A) (A) (A) (A) (A) (A) (A)
                 (A) (A) (A) (A) (A) (A) (A) (A) (A) (A) (A) (A)
                 (A) (A) (A) (A) (A) (A) (A) (A) (A) (A) (A) (A)
                 (A) (A) (A) (A) (A) (A) (A) (A) (A) (A) (A) (A)
                 (A) (A) (A) (A) (A) (A) (A) (A) (A) (A) (A) (A)
                 (A) (A) (A) (A) (A) (A) (A) (A) (A) (A) (A) (A)
                 (A) (A) (A) (A) (A) (A) (A) (A)
       Virtual   (A) (A) (A) (A) (A) (A) (A) (A) (A) (A) (A) (A)
                 (A) (A) (A) (A) (A) (A) (A) (A) (A) (A) (A) (A)
                 (A) (A) (A) (A) (A) (A) (A) (A) (A) (A) (A) (A)
                 (A) (A) (A) (A) (A) (A) (A) (A) (A) (A) (A) (A)
                 (A) (A) (A) (A) (A) (A) (A) (A) (A) (A) (A) (A)
                 (A) (A) (A) (A) (A) (A) (A) (A) (A) (A) (A) (A)
                 (A) (A) (A) (A) (A) (A) (A) (A) (A) (A) (A) (A)
                 (A) (A) (A) (A) (A) (A) (A) (A) (A) (A) (A) (A)
                 (A) (A) (A) (A) (A) (A) (A) (A) (A) (A) (A) (A)
                 (A) (A) (A) (A) (A) (A) (A) (A) (A) (A) (A) (A)
                 (A) (A) (A) (A) (A) (A) (A) (A) (A) (A) (A) (A)
                 (A) (A) (A) (A) (A) (A) (A) (A) (A) (A) (A) (A)
                 (A) (A) (A) (A) (A) (A) (A) (A) (A) (A) (A) (A)
                 (A) (A) (A) (A) (A) (A) (A) (A) (A) (A) (A) (A)
                 (A) (A) (A) (A) (A) (A) (A) (A) (A) (A) (A) (A)
                 (A) (A) (A) (A) (A) (A) (A) (A) (A) (A) (A) (A)
                 (A) (A) (A) (A) (A) (A) (A) (A) (A) (A) (A) (A)
                 (A) (A) (A) (A) (A) (A) (A) (A) (A) (A) (A) (A)
                 (A) (A) (A) (A) (A) (A) (A) (A) (A) (A) (A) (A)
                 (A) (A) (A) (A) (A) (A) (A) (A) (A) (A) (A) (A)
                 (A) (A) (A) (A) (A) (A) (A) (A) (A) (A) (A) (A)
                 (A) (A) (A) (A) (A) (A) (A) (A) (A) (A) (A) (A)
                 (A) (A) (A) (A) (A) (A) (A) (A) (A) (A) (A) (A)
                 (A) (A) (A) (A) (A) (A) (A) (A) (A) (A) (A) (A)
                 (A) (A) (A) (A) (A) (A) (A) (A) (A) (A) (A) (A)
                 (A) (A) (A) (A) (A) (A) (A) (A) (A) (A) (A) (A)
                 (A) (A) (A) (A) (A) (A) (A) (A) (A) (A) (A) (A)
                 (A) (A) (A) (A) (A) (A) (A) (A) (A) (A) (A) (A)
                 (A) (A) (A) (A) (A) (A) (A) (A) (A) (A) (A) (A)
                 (A) (A) (A) (A) (A) (A) (A) (A) (A) (A) (A) (A)
                 (A) (A) (A) (A) (A) (A) (A) (A) (A) (A) (A) (A)
                 (A) (A) (A) (A) (A) (A) (A) (A) (A) (A) (A) (A)
                 (A) (A) (A) (A) (A) (A) (A) (A) (A) (A) (A) (A)
                 (A) (A) (A) (A) (A) (A) (A) (A) (A) (A) (A) (A)
                 (A) (A) (A) (A) (A) (A) (A) (A) (A) (A) (A) (A)
                 (A) (A) (A) (A) (A) (A) (A) (A) (A) (A) (A) (A)
                 (A) (A) (A) (A) (A) (A) (A) (A) (A) (A) (A) (A)
                 (A) (A) (A) (A) (A) (A) (A) (A) (A) (A) (A) (A)
                 (A) (A) (A) (A) (A) (A) (A) (A) (A) (A) (A) (A)
                 (A) (A) (A) (A) (A) (A) (A) (A) (A) (A) (A) (A)
                 (A) (A) (A) (A) (A) (A) (A) (A) (A) (A) (A) (A)
                 (A) (A) (A) (A) (A) (A) (A) (A) (A) (A) (A) (A)
                 (A) (A) (A) (A) (A) (A) (A) (A) (A) (A) (A) (A)
                 (A) (A) (A) (A) (A) (A) (A) (A) (A) (A) (A) (A)
                 (A) (A) (A) (A) (A) (A) (A)
 The electronic state is 2-A.
 Alpha  occ. eigenvalues --  -19.00893 -18.99894 -14.31831 -10.18611 -10.17856
 Alpha  occ. eigenvalues --  -10.17602 -10.17426 -10.16962 -10.13457 -10.13217
 Alpha  occ. eigenvalues --  -10.13189 -10.12864 -10.12857 -10.12423 -10.12317
 Alpha  occ. eigenvalues --  -10.12275 -10.12147 -10.12117 -10.11763 -10.11656
 Alpha  occ. eigenvalues --  -10.11653 -10.09999 -10.08484 -10.08481 -10.07845
 Alpha  occ. eigenvalues --  -10.07806 -10.07787  -1.20473  -1.19682  -1.16444
 Alpha  occ. eigenvalues --   -1.03277  -1.02952  -1.01166  -0.98505  -0.94225
 Alpha  occ. eigenvalues --   -0.93483  -0.92293  -0.91568  -0.91333  -0.89578
 Alpha  occ. eigenvalues --   -0.87399  -0.86623  -0.81906  -0.81697  -0.79883
 Alpha  occ. eigenvalues --   -0.78674  -0.77844  -0.76730  -0.74107  -0.73558
 Alpha  occ. eigenvalues --   -0.73217  -0.72622  -0.72204  -0.68181  -0.67779
 Alpha  occ. eigenvalues --   -0.67185  -0.66892  -0.64614  -0.64453  -0.63366
 Alpha  occ. eigenvalues --   -0.62492  -0.61186  -0.61021  -0.60667  -0.60257
 Alpha  occ. eigenvalues --   -0.59898  -0.59605  -0.59329  -0.59012  -0.58503
 Alpha  occ. eigenvalues --   -0.58098  -0.56874  -0.56011  -0.55721  -0.55597
 Alpha  occ. eigenvalues --   -0.54549  -0.54262  -0.53341  -0.52859  -0.52551
 Alpha  occ. eigenvalues --   -0.52214  -0.51938  -0.50100  -0.48902  -0.48262
 Alpha  occ. eigenvalues --   -0.46478  -0.45595  -0.44904  -0.44151  -0.41649
 Alpha  occ. eigenvalues --   -0.40912  -0.40861  -0.38651
 Alpha virt. eigenvalues --   -0.11159  -0.10555  -0.10033  -0.08621  -0.07665
 Alpha virt. eigenvalues --   -0.06548  -0.05178  -0.03590  -0.01736  -0.01430
 Alpha virt. eigenvalues --   -0.00805   0.00356   0.00855   0.02112   0.02373
 Alpha virt. eigenvalues --    0.02817   0.03250   0.03604   0.04792   0.04964
 Alpha virt. eigenvalues --    0.05451   0.05712   0.05898   0.06451   0.07132
 Alpha virt. eigenvalues --    0.07604   0.07803   0.08213   0.08569   0.09795
 Alpha virt. eigenvalues --    0.09957   0.10254   0.10734   0.10913   0.11106
 Alpha virt. eigenvalues --    0.11620   0.12936   0.13457   0.13852   0.14075
 Alpha virt. eigenvalues --    0.14296   0.15198   0.15335   0.15457   0.15937
 Alpha virt. eigenvalues --    0.16548   0.16720   0.16982   0.17372   0.17913
 Alpha virt. eigenvalues --    0.17987   0.18362   0.18642   0.19048   0.19632
 Alpha virt. eigenvalues --    0.20085   0.20216   0.20293   0.21336   0.21386
 Alpha virt. eigenvalues --    0.21610   0.21863   0.22186   0.22397   0.22746
 Alpha virt. eigenvalues --    0.22934   0.23410   0.23929   0.24126   0.24822
 Alpha virt. eigenvalues --    0.25053   0.25622   0.26013   0.26366   0.26657
 Alpha virt. eigenvalues --    0.27131   0.27509   0.28062   0.28449   0.29096
 Alpha virt. eigenvalues --    0.29469   0.29539   0.29888   0.30272   0.30317
 Alpha virt. eigenvalues --    0.30515   0.31252   0.31653   0.31876   0.32190
 Alpha virt. eigenvalues --    0.32407   0.33099   0.33317   0.33381   0.33730
 Alpha virt. eigenvalues --    0.33876   0.34472   0.34966   0.35087   0.36140
 Alpha virt. eigenvalues --    0.36307   0.36453   0.36874   0.37311   0.37429
 Alpha virt. eigenvalues --    0.37824   0.38330   0.38417   0.38887   0.39129
 Alpha virt. eigenvalues --    0.39499   0.39826   0.40527   0.40567   0.41031
 Alpha virt. eigenvalues --    0.41104   0.41665   0.41685   0.41957   0.42549
 Alpha virt. eigenvalues --    0.42868   0.43283   0.44148   0.44472   0.45036
 Alpha virt. eigenvalues --    0.45151   0.45653   0.45968   0.46274   0.47032
 Alpha virt. eigenvalues --    0.47302   0.47571   0.48404   0.48527   0.48755
 Alpha virt. eigenvalues --    0.49112   0.49802   0.50891   0.51137   0.51549
 Alpha virt. eigenvalues --    0.51730   0.52538   0.53090   0.53438   0.54410
 Alpha virt. eigenvalues --    0.56007   0.56269   0.57266   0.57879   0.58441
 Alpha virt. eigenvalues --    0.59022   0.59227   0.60865   0.61165   0.61297
 Alpha virt. eigenvalues --    0.61788   0.62608   0.62785   0.63197   0.63330
 Alpha virt. eigenvalues --    0.64396   0.64803   0.65160   0.65652   0.66156
 Alpha virt. eigenvalues --    0.66470   0.66685   0.68265   0.68750   0.68977
 Alpha virt. eigenvalues --    0.69644   0.71457   0.72236   0.73023   0.73552
 Alpha virt. eigenvalues --    0.74572   0.75661   0.76704   0.77252   0.78392
 Alpha virt. eigenvalues --    0.78923   0.79968   0.81114   0.83662   0.84781
 Alpha virt. eigenvalues --    0.86110   0.86418   0.87767   1.03969   1.06490
 Alpha virt. eigenvalues --    1.07710   1.12627   1.12774   1.13809   1.14306
 Alpha virt. eigenvalues --    1.15017   1.15412   1.15858   1.15894   1.16153
 Alpha virt. eigenvalues --    1.16843   1.17777   1.18147   1.18625   1.18981
 Alpha virt. eigenvalues --    1.19768   1.20070   1.20476   1.20955   1.21312
 Alpha virt. eigenvalues --    1.21888   1.22389   1.22536   1.23118   1.23317
 Alpha virt. eigenvalues --    1.23815   1.24133   1.24658   1.25083   1.25627
 Alpha virt. eigenvalues --    1.26176   1.26541   1.26802   1.27037   1.27919
 Alpha virt. eigenvalues --    1.28629   1.29547   1.30174   1.32165   1.32228
 Alpha virt. eigenvalues --    1.32739   1.32965   1.33552   1.33725   1.34217
 Alpha virt. eigenvalues --    1.34819   1.35222   1.35504   1.35709   1.36160
 Alpha virt. eigenvalues --    1.36310   1.36542   1.37024   1.37294   1.37575
 Alpha virt. eigenvalues --    1.37921   1.38785   1.39024   1.39298   1.39375
 Alpha virt. eigenvalues --    1.40103   1.40255   1.40993   1.41330   1.41512
 Alpha virt. eigenvalues --    1.42412   1.42662   1.43184   1.43499   1.43764
 Alpha virt. eigenvalues --    1.43955   1.44081   1.44314   1.44526   1.44786
 Alpha virt. eigenvalues --    1.45674   1.45818   1.46204   1.46475   1.47008
 Alpha virt. eigenvalues --    1.47287   1.47627   1.47878   1.48496   1.48706
 Alpha virt. eigenvalues --    1.49821   1.49914   1.50659   1.51097   1.51746
 Alpha virt. eigenvalues --    1.52722   1.53591   1.54732   1.55723   1.57009
 Alpha virt. eigenvalues --    1.57485   1.58502   1.58892   1.60021   1.60758
 Alpha virt. eigenvalues --    1.62379   1.64220   1.65478   1.66032   1.66564
 Alpha virt. eigenvalues --    1.67265   1.67771   1.68367   1.69198   1.69794
 Alpha virt. eigenvalues --    1.70118   1.70347   1.70859   1.71190   1.71602
 Alpha virt. eigenvalues --    1.72217   1.72471   1.72723   1.73689   1.74377
 Alpha virt. eigenvalues --    1.74536   1.75297   1.76775   1.77020   1.78110
 Alpha virt. eigenvalues --    1.79044   1.79654   1.79846   1.80804   1.81375
 Alpha virt. eigenvalues --    1.81740   1.82067   1.82197   1.82465   1.82756
 Alpha virt. eigenvalues --    1.83159   1.83432   1.83531   1.83981   1.84839
 Alpha virt. eigenvalues --    1.85393   1.85919   1.87045   1.87154   1.87341
 Alpha virt. eigenvalues --    1.88688   1.88843   1.89825   1.90195   1.91465
 Alpha virt. eigenvalues --    1.91861   1.92419   1.92910   1.92998   1.93490
 Alpha virt. eigenvalues --    1.95281   1.95718   1.95900   1.97033   1.98368
 Alpha virt. eigenvalues --    2.00178   2.01944   2.03355   2.03611   2.06523
 Alpha virt. eigenvalues --    2.07691   2.08710   2.10582   2.11171   2.12072
 Alpha virt. eigenvalues --    2.12852   2.14053   2.14933   2.16166   2.17329
 Alpha virt. eigenvalues --    2.18443   2.18866   2.19407   2.20084   2.20275
 Alpha virt. eigenvalues --    2.20696   2.21101   2.21688   2.21737   2.22186
 Alpha virt. eigenvalues --    2.22342   2.23345   2.23602   2.24075   2.24811
 Alpha virt. eigenvalues --    2.25432   2.26017   2.26431   2.26983   2.27434
 Alpha virt. eigenvalues --    2.27787   2.27899   2.28063   2.28753   2.28871
 Alpha virt. eigenvalues --    2.30213   2.30382   2.30962   2.33661   2.34815
 Alpha virt. eigenvalues --    2.36019   2.37495   2.38777   2.41454   2.42508
 Alpha virt. eigenvalues --    2.43216   2.43564   2.44441   2.45742   2.46048
 Alpha virt. eigenvalues --    2.46987   2.47058   2.47905   2.49729   2.50041
 Alpha virt. eigenvalues --    2.50157   2.50509   2.51328   2.53371   2.53578
 Alpha virt. eigenvalues --    2.54077   2.54364   2.54989   2.55671   2.56826
 Alpha virt. eigenvalues --    2.58218   2.58309   2.58948   2.60095   2.61195
 Alpha virt. eigenvalues --    2.61885   2.62646   2.63544   2.64090   2.64321
 Alpha virt. eigenvalues --    2.65689   2.66414   2.67232   2.69529   2.71348
 Alpha virt. eigenvalues --    2.71405   2.73648   2.74351   2.74847   2.75439
 Alpha virt. eigenvalues --    2.76733   2.77818   2.81553   2.82501   2.82684
 Alpha virt. eigenvalues --    2.83730   2.85314   2.86847   2.88082   2.88865
 Alpha virt. eigenvalues --    2.89309   2.90518   2.91509   2.92382   2.92812
 Alpha virt. eigenvalues --    2.93706   2.94398   2.95234   2.96989   2.97063
 Alpha virt. eigenvalues --    2.97318   2.98405   2.99225   3.00455   3.01992
 Alpha virt. eigenvalues --    3.02332   3.03445   3.04984   3.05271   3.06235
 Alpha virt. eigenvalues --    3.06986   3.07775   3.08954   3.10009   3.10789
 Alpha virt. eigenvalues --    3.11282   3.12329   3.12815   3.13478   3.15080
 Alpha virt. eigenvalues --    3.16234   3.17480   3.18760   3.19853   3.22730
 Alpha virt. eigenvalues --    3.23457   3.25098   3.26638   3.28323   3.29256
 Alpha virt. eigenvalues --    3.29575   3.33206   3.33458   3.42365   3.43827
 Alpha virt. eigenvalues --    3.44877   3.45633   3.46200   3.47458   3.59614
 Alpha virt. eigenvalues --    3.70218   3.70838   3.78414   3.95171   3.96007
 Alpha virt. eigenvalues --    4.20608   4.21487  20.97770  21.10803  21.13288
 Alpha virt. eigenvalues --   21.21768  21.51697  21.56867  21.59315  21.61123
 Alpha virt. eigenvalues --   21.62485  21.63383  21.69407  21.74235  21.78241
 Alpha virt. eigenvalues --   21.83187  21.84230  21.84460  21.86492  21.88200
 Alpha virt. eigenvalues --   21.89808  21.91381  21.95977  21.99346  22.01814
 Alpha virt. eigenvalues --   22.04610  31.86092  43.11714  43.14126
  Beta  occ. eigenvalues --  -19.00804 -18.99911 -14.31038 -10.18499 -10.17915
  Beta  occ. eigenvalues --  -10.17665 -10.17449 -10.16966 -10.13356 -10.13124
  Beta  occ. eigenvalues --  -10.13007 -10.12727 -10.12721 -10.12442 -10.12202
  Beta  occ. eigenvalues --  -10.12141 -10.12086 -10.12025 -10.11787 -10.11709
  Beta  occ. eigenvalues --  -10.11705 -10.10014 -10.08450 -10.08447 -10.07835
  Beta  occ. eigenvalues --  -10.07819 -10.07775  -1.20311  -1.19711  -1.15428
  Beta  occ. eigenvalues --   -1.03060  -1.02756  -1.00900  -0.98402  -0.94018
  Beta  occ. eigenvalues --   -0.93271  -0.92177  -0.91416  -0.91173  -0.89260
  Beta  occ. eigenvalues --   -0.87363  -0.86382  -0.81661  -0.81506  -0.79687
  Beta  occ. eigenvalues --   -0.78502  -0.77722  -0.76600  -0.74018  -0.73453
  Beta  occ. eigenvalues --   -0.73126  -0.72498  -0.72023  -0.68062  -0.67580
  Beta  occ. eigenvalues --   -0.66775  -0.66724  -0.64413  -0.64333  -0.63258
  Beta  occ. eigenvalues --   -0.62390  -0.61057  -0.60896  -0.60598  -0.60118
  Beta  occ. eigenvalues --   -0.59699  -0.59287  -0.59146  -0.58858  -0.58430
  Beta  occ. eigenvalues --   -0.57515  -0.56628  -0.55944  -0.55591  -0.55474
  Beta  occ. eigenvalues --   -0.54193  -0.54002  -0.52870  -0.52749  -0.52334
  Beta  occ. eigenvalues --   -0.52133  -0.51856  -0.48982  -0.48860  -0.48123
  Beta  occ. eigenvalues --   -0.45839  -0.44961  -0.44533  -0.42860  -0.40853
  Beta  occ. eigenvalues --   -0.40820  -0.39682
  Beta virt. eigenvalues --   -0.23858  -0.10505  -0.10237  -0.09454  -0.08165
  Beta virt. eigenvalues --   -0.07174  -0.05793  -0.05096  -0.03074  -0.01693
  Beta virt. eigenvalues --   -0.01397  -0.00733   0.00430   0.00928   0.02163
[...]
     9   Atom        0.000725     -0.000672     -0.000053
    10   Atom       -0.000109     -0.000959      0.001068
    11   Atom       -0.072122     -0.013917      0.086038
    12   Atom        0.020969      0.002617     -0.023586
    13   Atom        0.022254      0.002046     -0.024300
    14   Atom       -0.054960      0.038520      0.016440
    15   Atom       -0.052523      0.037349      0.015174
    16   Atom        0.005178     -0.022143      0.016965
    17   Atom        0.001471     -0.000563     -0.000908
    18   Atom        0.001512     -0.000544     -0.000968
    19   Atom       -0.002702      0.003431     -0.000730
    20   Atom       -0.003048      0.003485     -0.000438
    21   Atom        0.000731     -0.000675     -0.000056
    22   Atom       -0.488782     -0.486116      0.974898
    23   Atom       -0.005372      0.013097     -0.007724
    24   Atom        0.018772     -0.032776      0.014004
    25   Atom       -0.000512     -0.022273      0.022785
    26   Atom        0.007195      0.015101     -0.022296
    27   Atom        0.008600      0.018756     -0.027356
    28   Atom       -0.034570     -0.051618      0.086188
    29   Atom        0.000778     -0.000513     -0.000265
    30   Atom        0.003931     -0.003737     -0.000194
    31   Atom        0.000779      0.000791     -0.001571
    32   Atom       -0.002854      0.006399     -0.003545
    33   Atom       -0.009109     -0.008013      0.017122
    34   Atom        0.057771     -0.029536     -0.028235
    35   Atom        0.016821      0.012335     -0.029156
    36   Atom        0.004515      0.000016     -0.004531
    37   Atom       -0.006286      0.011970     -0.005684
    38   Atom        0.009272     -0.022723      0.013451
    39   Atom        0.000152     -0.001633      0.001481
    40   Atom       -0.000314     -0.001174      0.001487
    41   Atom       -0.000356     -0.000063      0.000419
    42   Atom       -0.000799      0.000322      0.000477
    43   Atom        0.032746     -0.039416      0.006670
    44   Atom        0.002326     -0.003665      0.001338
    45   Atom        0.012234      0.009768     -0.022002
    46   Atom        0.001940     -0.001739     -0.000200
 --------------------------------------------------------
                        XY            XZ            YZ
 --------------------------------------------------------
     1   Atom        0.000557     -0.000044     -0.003697
     2   Atom        0.001498      0.000361      0.010902
     3   Atom        0.009595     -0.000876      0.001192
     4   Atom       -0.001740     -0.000352     -0.003635
     5   Atom       -0.000323      0.000102      0.002120
     6   Atom       -0.007520      0.000779      0.001597
     7   Atom       -0.000075     -0.000099      0.000388
     8   Atom        0.000000     -0.000077     -0.001190
     9   Atom       -0.000085     -0.000083     -0.000087
    10   Atom       -0.000117      0.000064     -0.001196
    11   Atom        0.004453      0.007241      0.102755
    12   Atom       -0.004450     -0.007236     -0.023848
    13   Atom        0.001369      0.002553     -0.025309
    14   Atom       -0.013161     -0.007443      0.081449
    15   Atom        0.021724      0.015158      0.080987
    16   Atom        0.002056      0.005263     -0.001483
    17   Atom        0.000421     -0.000312     -0.001988
    18   Atom       -0.000714      0.000057     -0.001895
    19   Atom        0.001411     -0.002049     -0.005280
    20   Atom       -0.001594      0.001685     -0.005211
    21   Atom       -0.000007      0.000035     -0.000092
    22   Atom       -0.001377      0.037955     -0.073815
    23   Atom       -0.016200      0.018053      0.011391
    24   Atom        0.033980     -0.063990     -0.035814
    25   Atom        0.056855     -0.079915     -0.061876
    26   Atom       -0.011206      0.023634      0.018851
    27   Atom       -0.014104      0.029018      0.018407
    28   Atom        0.029338     -0.085807     -0.062667
    29   Atom        0.002546      0.003483      0.003658
    30   Atom        0.000988      0.005981      0.000004
    31   Atom       -0.001855      0.001302      0.000396
    32   Atom       -0.007852     -0.004009     -0.001666
    33   Atom        0.006178      0.018229     -0.007873
    34   Atom       -0.032097      0.033755     -0.014817
    35   Atom       -0.052176      0.022601     -0.016969
    36   Atom        0.008720     -0.005869      0.008674
    37   Atom        0.004815     -0.013004      0.003893
    38   Atom       -0.035130      0.061773     -0.038851
    39   Atom       -0.000960     -0.004458      0.002733
    40   Atom       -0.000708     -0.004340      0.002441
    41   Atom        0.001083     -0.001541      0.000593
    42   Atom        0.000941     -0.001292      0.000928
    43   Atom       -0.071571      0.101883     -0.064912
    44   Atom        0.001201     -0.004891     -0.001906
    45   Atom       -0.007521      0.020388      0.014367
    46   Atom        0.000288      0.001748     -0.000128
 --------------------------------------------------------


 ---------------------------------------------------------------------------------
              Anisotropic Spin Dipole Couplings in Principal Axis System
 ---------------------------------------------------------------------------------

       Atom             a.u.   MegaHertz   Gauss  10(-4) cm-1        Axes

              Baa    -0.0106    -1.428    -0.510    -0.476 -0.0308  0.9656  0.2581
     1 C(13)  Bbb     0.0042     0.558     0.199     0.186  0.0805 -0.2549  0.9636
              Bcc     0.0065     0.870     0.311     0.290  0.9963  0.0504 -0.0699
 
              Baa    -0.0153    -2.058    -0.734    -0.687  0.0177 -0.2573  0.9662
     2 C(13)  Bbb    -0.0133    -1.786    -0.637    -0.596  0.9992 -0.0309 -0.0265
              Bcc     0.0287     3.845     1.372     1.283  0.0367  0.9658  0.2566
 
              Baa    -0.0140    -1.878    -0.670    -0.626  0.4917 -0.1565  0.8566
     3 C(13)  Bbb    -0.0114    -1.525    -0.544    -0.509  0.8293 -0.2157 -0.5154
              Bcc     0.0254     3.402     1.214     1.135  0.2654  0.9638  0.0237
 
              Baa    -0.0107    -1.432    -0.511    -0.478  0.1037  0.9615  0.2545
     4 C(13)  Bbb     0.0042     0.559     0.199     0.186 -0.0446 -0.2511  0.9669
              Bcc     0.0065     0.874     0.312     0.292  0.9936 -0.1116  0.0169
 
              Baa    -0.0101    -1.360    -0.485    -0.454  0.0227  0.9904 -0.1364
     5 C(13)  Bbb     0.0046     0.612     0.218     0.204  0.9982 -0.0302 -0.0526
              Bcc     0.0056     0.748     0.267     0.250  0.0563  0.1349  0.9893
 
              Baa    -0.0140    -1.882    -0.672    -0.628 -0.4524 -0.1272  0.8827
     6 C(13)  Bbb    -0.0114    -1.529    -0.546    -0.510  0.8680  0.1643  0.4686
              Bcc     0.0254     3.411     1.217     1.138 -0.2046  0.9782  0.0361
 
              Baa    -0.0020    -1.087    -0.388    -0.363  0.0183 -0.2266  0.9738
     7 H(1)   Bbb    -0.0003    -0.154    -0.055    -0.052  0.0364  0.9735  0.2259
              Bcc     0.0023     1.241     0.443     0.414  0.9992 -0.0313 -0.0260
 
              Baa    -0.0015    -0.805    -0.287    -0.269  0.0230  0.9083  0.4177
     8 H(1)   Bbb    -0.0001    -0.066    -0.024    -0.022  0.9989 -0.0376  0.0267
              Bcc     0.0016     0.871     0.311     0.291 -0.0399 -0.4167  0.9082
 
              Baa    -0.0007    -0.368    -0.131    -0.123  0.0679  0.9874  0.1431
     9 H(1)   Bbb    -0.0000    -0.025    -0.009    -0.009  0.0892 -0.1489  0.9848
              Bcc     0.0007     0.394     0.140     0.131  0.9937 -0.0541 -0.0982
 
              Baa    -0.0015    -0.810    -0.289    -0.270  0.0564  0.9067  0.4180
    10 H(1)   Bbb    -0.0001    -0.059    -0.021    -0.020  0.9965 -0.0253 -0.0796
              Bcc     0.0016     0.869     0.310     0.290  0.0616 -0.4210  0.9050
 
              Baa    -0.0782   -10.494    -3.745    -3.501  0.0113  0.8475 -0.5307
    11 C(13)  Bbb    -0.0724    -9.721    -3.469    -3.243  0.9992 -0.0298 -0.0263
              Bcc     0.1506    20.216     7.213     6.743  0.0381  0.5300  0.8471
 
              Baa    -0.0389    -5.220    -1.863    -1.741  0.1405  0.5044  0.8519
    12 C(13)  Bbb     0.0167     2.244     0.801     0.748  0.0261  0.8583 -0.5125
              Bcc     0.0222     2.976     1.062     0.993  0.9897 -0.0942 -0.1074
 
              Baa    -0.0398    -5.340    -1.905    -1.781 -0.0466  0.5181  0.8540
    13 C(13)  Bbb     0.0174     2.335     0.833     0.779  0.0309  0.8553 -0.5172
              Bcc     0.0224     3.005     1.072     1.002  0.9984 -0.0023  0.0559
 
              Baa    -0.0586    -7.869    -2.808    -2.625  0.7874  0.4552 -0.4158
    14 C(13)  Bbb    -0.0524    -7.026    -2.507    -2.344  0.6100 -0.4780  0.6319
              Bcc     0.1110    14.894     5.315     4.968 -0.0889  0.7512  0.6541
 
              Baa    -0.0590    -7.917    -2.825    -2.641  0.7704 -0.5030  0.3918
    15 C(13)  Bbb    -0.0532    -7.141    -2.548    -2.382 -0.6178 -0.4366  0.6540
              Bcc     0.1122    15.058     5.373     5.023  0.1579  0.7459  0.6471
 
              Baa    -0.0224    -3.004    -1.072    -1.002 -0.0835  0.9953  0.0487
    16 C(13)  Bbb     0.0034     0.457     0.163     0.152  0.9315  0.0953 -0.3511
              Bcc     0.0190     2.547     0.909     0.850  0.3541 -0.0160  0.9351
 
              Baa    -0.0027    -1.457    -0.520    -0.486 -0.0131  0.6771  0.7358
    17 H(1)   Bbb     0.0008     0.445     0.159     0.148  0.6327 -0.5642  0.5304
              Bcc     0.0019     1.012     0.361     0.338  0.7743  0.4725 -0.4210
 
              Baa    -0.0027    -1.445    -0.516    -0.482  0.1041  0.6744  0.7310
    18 H(1)   Bbb     0.0008     0.401     0.143     0.134 -0.5717 -0.5608  0.5988
              Bcc     0.0020     1.044     0.372     0.348  0.8138 -0.4803  0.3272
 
              Baa    -0.0048    -2.568    -0.916    -0.857  0.4752  0.4154  0.7756
    19 H(1)   Bbb    -0.0027    -1.462    -0.522    -0.488  0.8514 -0.4395 -0.2863
              Bcc     0.0076     4.031     1.438     1.344  0.2219  0.7964 -0.5626
 
              Baa    -0.0043    -2.306    -0.823    -0.769 -0.5002  0.4077  0.7639
    20 H(1)   Bbb    -0.0033    -1.737    -0.620    -0.579  0.8403  0.4417  0.3144
              Bcc     0.0076     4.043     1.443     1.349 -0.2093  0.7991 -0.5635
 
              Baa    -0.0007    -0.367    -0.131    -0.123  0.0015  0.9895  0.1443
    21 H(1)   Bbb    -0.0000    -0.024    -0.008    -0.008 -0.0457 -0.1440  0.9885
              Bcc     0.0007     0.391     0.140     0.130  0.9990 -0.0081  0.0450
 
              Baa    -0.4903   -18.911    -6.748    -6.308 -0.6828  0.7285  0.0544
    22 N(14)  Bbb    -0.4893   -18.870    -6.733    -6.294  0.7301  0.6831  0.0155
              Bcc     0.9796    37.781    13.481    12.602  0.0259 -0.0503  0.9984
 
              Baa    -0.0329    -4.412    -1.574    -1.472  0.6548  0.3910 -0.6469
    23 C(13)  Bbb     0.0103     1.387     0.495     0.463  0.5835  0.2826  0.7614
              Bcc     0.0225     3.025     1.079     1.009 -0.4805  0.8759  0.0431
 
              Baa    -0.0522    -7.004    -2.499    -2.336  0.0597  0.8527  0.5190
    24 C(13)  Bbb    -0.0467    -6.267    -2.236    -2.091  0.7393 -0.3871  0.5509
              Bcc     0.0989    13.271     4.736     4.427  0.6707  0.3508 -0.6535
 
              Baa    -0.0708    -9.507    -3.392    -3.171  0.8077 -0.4251  0.4085
    25 C(13)  Bbb    -0.0655    -8.793    -3.138    -2.933  0.0914  0.7748  0.6256
              Bcc     0.1364    18.300     6.530     6.104 -0.5824 -0.4680  0.6647
 
              Baa    -0.0436    -5.850    -2.087    -1.951 -0.4576 -0.3499  0.8174
    26 C(13)  Bbb     0.0202     2.709     0.967     0.904  0.8234  0.1804  0.5381
              Bcc     0.0234     3.141     1.121     1.048 -0.3357  0.9193  0.2056
 
              Baa    -0.0511    -6.853    -2.445    -2.286 -0.4742 -0.3127  0.8230
    27 C(13)  Bbb     0.0222     2.985     1.065     0.996  0.5862  0.5853  0.5602
              Bcc     0.0288     3.868     1.380     1.290 -0.6569  0.7481 -0.0942
 
              Baa    -0.0804   -10.791    -3.850    -3.599  0.7364  0.4140  0.5350
    28 C(13)  Bbb    -0.0736    -9.872    -3.523    -3.293 -0.5196  0.8526  0.0554
              Bcc     0.1540    20.663     7.373     6.892 -0.4332 -0.3188  0.8430
 
              Baa    -0.0042    -2.234    -0.797    -0.745 -0.2262 -0.6040  0.7642
    29 H(1)   Bbb    -0.0023    -1.228    -0.438    -0.410  0.7665 -0.5945 -0.2430
              Bcc     0.0065     3.462     1.235     1.155  0.6011  0.5308  0.5975
 
              Baa    -0.0048    -2.553    -0.911    -0.852 -0.5288  0.4964  0.6885
    30 H(1)   Bbb    -0.0035    -1.849    -0.660    -0.617  0.2399  0.8655 -0.4397
              Bcc     0.0082     4.402     1.571     1.468  0.8141  0.0673  0.5767
 
              Baa    -0.0026    -1.385    -0.494    -0.462 -0.5036 -0.3672  0.7820
    31 H(1)   Bbb    -0.0001    -0.079    -0.028    -0.026  0.4594  0.6528  0.6024
              Bcc     0.0027     1.464     0.522     0.488  0.7317 -0.6626  0.1600
 
              Baa    -0.0102    -5.418    -1.933    -1.807  0.7339  0.4031  0.5467
    32 H(1)   Bbb    -0.0008    -0.402    -0.143    -0.134 -0.4555 -0.3051  0.8363
              Bcc     0.0109     5.820     2.077     1.941 -0.5040  0.8628  0.0403
 
              Baa    -0.0238    -3.194    -1.140    -1.065  0.7470 -0.5069 -0.4303
    33 C(13)  Bbb    -0.0032    -0.428    -0.153    -0.143  0.5070  0.8529 -0.1244
              Bcc     0.0270     3.622     1.292     1.208  0.4300 -0.1252  0.8941
 
              Baa    -0.0437    -5.866    -2.093    -1.957 -0.0053  0.7166  0.6974
    34 C(13)  Bbb    -0.0370    -4.959    -1.770    -1.654 -0.4412 -0.6276  0.6415
              Bcc     0.0807    10.826     3.863     3.611  0.8974 -0.3043  0.3195
 
              Baa    -0.0405    -5.435    -1.939    -1.813  0.6414  0.4291 -0.6360
    35 C(13)  Bbb    -0.0339    -4.551    -1.624    -1.518  0.3087  0.6146  0.7259
              Bcc     0.0744     9.985     3.563     3.331  0.7024 -0.6619  0.2617
 
              Baa    -0.0162    -2.167    -0.773    -0.723  0.4421 -0.5974  0.6691
    36 C(13)  Bbb     0.0048     0.649     0.232     0.216 -0.4704  0.4808  0.7400
              Bcc     0.0113     1.519     0.542     0.507  0.7638  0.6419  0.0684
 
              Baa    -0.0202    -2.707    -0.966    -0.903  0.7052 -0.1884  0.6835
    37 C(13)  Bbb     0.0070     0.935     0.334     0.312 -0.6807  0.0894  0.7271
              Bcc     0.0132     1.772     0.632     0.591  0.1981  0.9780  0.0652
 
              Baa    -0.0509    -6.836    -2.439    -2.280 -0.6073  0.2718  0.7465
    38 C(13)  Bbb    -0.0453    -6.075    -2.168    -2.026  0.4805  0.8740  0.0727
              Bcc     0.0962    12.911     4.607     4.307  0.6327 -0.4029  0.6613
 
              Baa    -0.0043    -2.284    -0.815    -0.762  0.5664 -0.4834  0.6674
    39 H(1)   Bbb    -0.0020    -1.055    -0.376    -0.352  0.5753  0.8118  0.0999
              Bcc     0.0063     3.340     1.192     1.114 -0.5901  0.3274  0.7379
 
              Baa    -0.0042    -2.264    -0.808    -0.755  0.6579 -0.3699  0.6560
    40 H(1)   Bbb    -0.0016    -0.839    -0.299    -0.280  0.4901  0.8717 -0.0001
              Bcc     0.0058     3.102     1.107     1.035 -0.5717  0.3216  0.7548
 
              Baa    -0.0022    -1.196    -0.427    -0.399  0.7028 -0.4897  0.5159
    41 H(1)   Bbb     0.0006     0.315     0.112     0.105  0.2823  0.8577  0.4297
              Bcc     0.0017     0.881     0.314     0.294 -0.6529 -0.1563  0.7411
 
              Baa    -0.0023    -1.203    -0.429    -0.401  0.7379 -0.4507  0.5024
    42 H(1)   Bbb     0.0008     0.439     0.157     0.146  0.6064  0.7696 -0.2001
              Bcc     0.0014     0.764     0.273     0.255 -0.2965  0.4523  0.8411
 
              Baa    -0.0853     6.170     2.202     2.058 -0.0555  0.7857  0.6162
    43 O(17)  Bbb    -0.0823     5.952     2.124     1.985  0.7324  0.4514 -0.5096
              Bcc     0.1675   -12.122    -4.325    -4.044  0.6786 -0.4230  0.6005
 
              Baa    -0.0044    -2.334    -0.833    -0.779  0.1526  0.8909  0.4278
    44 H(1)   Bbb    -0.0028    -1.499    -0.535    -0.500  0.6776 -0.4095  0.6109
              Bcc     0.0072     3.833     1.368     1.278  0.7194  0.1967 -0.6661
 
              Baa    -0.0371     2.685     0.958     0.896 -0.4031 -0.3267  0.8549
    45 O(17)  Bbb     0.0153    -1.106    -0.395    -0.369 -0.0387  0.9394  0.3407
              Bcc     0.0218    -1.579    -0.563    -0.527  0.9144 -0.1042  0.3913
 
              Baa    -0.0018    -0.983    -0.351    -0.328 -0.2063  0.9338  0.2924
    46 H(1)   Bbb    -0.0011    -0.578    -0.206    -0.193 -0.4422 -0.3555  0.8235
              Bcc     0.0029     1.561     0.557     0.521  0.8729  0.0406  0.4862
 

 ---------------------------------------------------------------------------------

 No NMR shielding tensors so no spin-rotation constants.
 Leave Link  601 at Sun Jan 17 22:47:22 2021, MaxMem=  4026531840 cpu:               7.3 elap:               1.0
 (Enter /opt/ohpc/pub/libs/gaussian/g16-A.03/sandybridge/g16/l9999.exe)

 Test job not archived.
 1\1\GINC-CASCADEB002\SP\ULC-wHPBE\TZVP\C24H19N1O2(1+,2)\RDU230\17-Jan-
 2021\0\\#P LC-wHPBE/TZVP iop(3/107=0181900000, 3/108=0181900000) scf=(
 conver=6,fermi,ndamp=35,noincfock,novaracc,vshift=500,xqc)\\H19 C24 N1
  O2\\1,2\C,0,-6.538108,-0.217341,1.255514\C,0,-7.258661,0.087287,0.107
 878\C,0,-5.15139,-0.259049,1.219222\C,0,-6.580697,0.348691,-1.075777\C
 ,0,-4.458004,0.000662,0.035726\C,0,-5.193998,0.304569,-1.110911\H,0,-8
 .345644,0.121015,0.135956\H,0,-4.59391,-0.476283,2.12835\H,0,-7.136138
 ,0.581164,-1.982188\H,0,-4.671509,0.488761,-2.047704\C,0,-2.974479,-0.
 044963,-0.00277\C,0,-2.240322,0.918366,-0.694597\C,0,-2.265576,-1.0512
 97,0.654611\C,0,-0.856277,0.875925,-0.739808\C,0,-0.88157,-1.094369,0.
 628888\C,0,-0.155643,-0.133238,-0.077397\H,0,-2.762026,1.727417,-1.202
 285\H,0,-2.809037,-1.823891,1.195264\H,0,-0.306381,1.639189,-1.284917\
 H,0,-0.352632,-1.885069,1.15502\H,0,-7.059465,-0.416189,2.189743\N,0,1
 .257026,-0.160831,-0.103806\C,0,1.965402,-1.377887,-0.17457\C,0,3.1900
 04,-1.508547,0.478017\C,0,1.461496,-2.456008,-0.912094\C,0,3.903051,-2
 .696891,0.390217\C,0,2.178621,-3.638306,-0.97461\C,0,3.402953,-3.77505
 6,-0.332839\H,0,3.600761,-0.690157,1.062074\H,0,0.51484,-2.358097,-1.4
 35231\H,0,1.782807,-4.471654,-1.551437\H,0,3.963923,-4.706428,-0.39805
 5\C,0,1.972861,1.068372,-0.045814\C,0,2.971482,1.350948,-0.972341\C,0,
 1.683086,2.012203,0.939258\C,0,3.67678,2.543988,-0.910119\C,0,2.365608
 ,3.214996,0.992156\C,0,3.371443,3.4833,0.069272\H,0,3.205268,0.621566,
 -1.744392\H,0,0.904271,1.798314,1.667748\H,0,4.460878,2.747602,-1.6391
 97\H,0,2.139895,3.954598,1.756001\O,0,4.022986,4.680331,0.173244\H,0,4
 .695287,4.73835,-0.517835\O,0,5.097214,-2.751708,1.053752\H,0,5.479651
 ,-3.631493,0.941087\\Version=EM64L-G16RevA.03\State=2-A\HF=-1130.25427
 44\S2=0.767185\S2-1=0.\S2A=0.750268\RMSD=9.524e-07\Dipole=1.7066883,-0
 .5678949,-0.697052\Quadrupole=28.9344329,-2.0561402,-26.8782927,-3.094
 0927,-7.1444731,-4.4138438\PG=C01 [X(C24H19N1O2)]\\@


      TO SUSPECT YOUR OWN MORTALITY IS TO KNOW THE BEGINNING OF TERROR.
      TO LEARN IRREFUTABLY THAT YOU ARE MORTAL IS TO KNOW THE END
      OF TERROR.

                                                  -- JESSICA
                                                     CHILDREN OF DUNE
                                                     BY FRANK HERBERT
 Job cpu time:       0 days  3 hours  0 minutes  0.4 seconds.
 Elapsed time:       0 days  0 hours 22 minutes 34.1 seconds.
 File lengths (MBytes):  RWF=    240 Int=      0 D2E=      0 Chk=     32 Scr=      8
 Normal termination of Gaussian 16 at Sun Jan 17 22:47:22 2021.
