 Entering Gaussian System, Link 0=g16
 Input=mol_ta_ma_half_tune_c2.gjf
 Output=mol_ta_ma_half_tune_c2.log
 Initial command:
 /opt/ohpc/pub/libs/gaussian/g16-A.03/sandybridge/g16/l1.exe "/mnt/gpfs2_4m/scratch/rdu230/ondemand/projects/init_structures/wtuning/mol_ta_ma_half/tuning_mol_ta_ma_half_ocycle0/Gau-144639.inp" -scrdir="/mnt/gpfs2_4m/scratch/rdu230/ondemand/projects/init_structures/wtuning/mol_ta_ma_half/tuning_mol_ta_ma_half_ocycle0/"
 Entering Link 1 = /opt/ohpc/pub/libs/gaussian/g16-A.03/sandybridge/g16/l1.exe PID=    144640.
  
 Copyright (c) 1988,1990,1992,1993,1995,1998,2003,2009,2016,
            Gaussian, Inc.  All Rights Reserved.
  
 This is part of the Gaussian(R) 16 program.  It is based on
 the Gaussian(R) 09 system (copyright 2009, Gaussian, Inc.),
 the Gaussian(R) 03 system (copyright 2003, Gaussian, Inc.),
 the Gaussian(R) 98 system (copyright 1998, Gaussian, Inc.),
 the Gaussian(R) 94 system (copyright 1995, Gaussian, Inc.),
 the Gaussian 92(TM) system (copyright 1992, Gaussian, Inc.),
 the Gaussian 90(TM) system (copyright 1990, Gaussian, Inc.),
 the Gaussian 88(TM) system (copyright 1988, Gaussian, Inc.),
 the Gaussian 86(TM) system (copyright 1986, Carnegie Mellon
 University), and the Gaussian 82(TM) system (copyright 1983,
 Carnegie Mellon University). Gaussian is a federally registered
 trademark of Gaussian, Inc.
  
 This software contains proprietary and confidential information,
 including trade secrets, belonging to Gaussian, Inc.
  
 This software is provided under written license and may be
 used, copied, transmitted, or stored only in accord with that
 written license.
  
 The following legend is applicable only to US Government
 contracts under FAR:
  
                    RESTRICTED RIGHTS LEGEND
  
 Use, reproduction and disclosure by the US Government is
 subject to restrictions as set forth in subparagraphs (a)
 and (c) of the Commercial Computer Software - Restricted
 Rights clause in FAR 52.227-19.
  
 Gaussian, Inc.
 340 Quinnipiac St., Bldg. 40, Wallingford CT 06492
  
  
 ---------------------------------------------------------------
 Warning -- This program may not be used in any manner that
 competes with the business of Gaussian, Inc. or will provide
 assistance to any competitor of Gaussian, Inc.  The licensee
 of this program is prohibited from giving any competitor of
 Gaussian, Inc. access to this program.  By using this program,
 the user acknowledges that Gaussian, Inc. is engaged in the
 business of creating and licensing software in the field of
 computational chemistry and represents and warrants to the
 licensee that it is not a competitor of Gaussian, Inc. and that
 it will not use this program in any manner prohibited above.
 ---------------------------------------------------------------
  

 Cite this work as:
 Gaussian 16, Revision A.03,
 M. J. Frisch, G. W. Trucks, H. B. Schlegel, G. E. Scuseria, 
 M. A. Robb, J. R. Cheeseman, G. Scalmani, V. Barone, 
 G. A. Petersson, H. Nakatsuji, X. Li, M. Caricato, A. V. Marenich, 
 J. Bloino, B. G. Janesko, R. Gomperts, B. Mennucci, H. P. Hratchian, 
 J. V. Ortiz, A. F. Izmaylov, J. L. Sonnenberg, D. Williams-Young, 
 F. Ding, F. Lipparini, F. Egidi, J. Goings, B. Peng, A. Petrone, 
 T. Henderson, D. Ranasinghe, V. G. Zakrzewski, J. Gao, N. Rega, 
 G. Zheng, W. Liang, M. Hada, M. Ehara, K. Toyota, R. Fukuda, 
 J. Hasegawa, M. Ishida, T. Nakajima, Y. Honda, O. Kitao, H. Nakai, 
 T. Vreven, K. Throssell, J. A. Montgomery, Jr., J. E. Peralta, 
 F. Ogliaro, M. J. Bearpark, J. J. Heyd, E. N. Brothers, K. N. Kudin, 
 V. N. Staroverov, T. A. Keith, R. Kobayashi, J. Normand, 
 K. Raghavachari, A. P. Rendell, J. C. Burant, S. S. Iyengar, 
 J. Tomasi, M. Cossi, J. M. Millam, M. Klene, C. Adamo, R. Cammi, 
 J. W. Ochterski, R. L. Martin, K. Morokuma, O. Farkas, 
 J. B. Foresman, and D. J. Fox, Gaussian, Inc., Wallingford CT, 2016.
 
 ******************************************
 Gaussian 16:  EM64L-G16RevA.03 25-Dec-2016
                18-Jan-2021 
 ******************************************
 %mem=30GB
 %nproc=8
 Will use up to    8 processors via shared memory.
 ----------------------------------------------------------------------
 #P LC-wHPBE/TZVP iop(3/107=0156200000, 3/108=0156200000) scf=(conver=6
 ,fermi,ndamp=35,noincfock,novaracc,vshift=500,xqc)
 ----------------------------------------------------------------------
 1/38=1,172=1/1;
 2/12=2,17=6,18=5,40=1/2;
 3/5=19,7=101,11=2,25=1,30=1,74=-71,107=156200000,108=156200000/1,2,3;
 4//1;
 5/5=100002,6=6,8=3,10=500,13=1,18=-1,22=13,38=1,93=35/2,8;
 6/7=2,8=2,9=2,10=2,28=1/1;
 99/5=1,9=1/99;
 Leave Link    1 at Mon Jan 18 08:07:17 2021, MaxMem=  4026531840 cpu:               1.5 elap:               0.2
 (Enter /opt/ohpc/pub/libs/gaussian/g16-A.03/sandybridge/g16/l101.exe)
 ----------------
 H19 C24 S2 N1 O2
 ----------------
 Symbolic Z-matrix:
 Charge =  1 Multiplicity = 2
 C                    -6.54463  -1.19388   0.12701 
 C                    -5.28347  -0.64791   0.13152 
 S                    -3.66592  -1.10732   1.04298 
 C                    -4.99682   0.48658  -0.53783 
 C                    -1.47569   0.03689   0.22175 
 C                    -1.77229  -1.09444   0.89285 
 C                    -7.5174   -0.5494   -0.6189 
 C                    -5.9512    1.15992  -1.26234 
 H                    -2.84341   1.34552  -1.33258 
 C                    -0.18608   0.431    -0.02846 
 C                    -0.77363  -1.91254   1.36681 
 C                     0.53691  -1.55205   1.12466 
 C                     0.84559  -0.38716   0.42544 
 H                     0.04543   1.33981  -0.56742 
 H                    -0.98698  -2.81642   1.92325 
 H                     1.34269  -2.17537   1.48462 
 C                    -7.22375   0.61523  -1.30625 
 H                    -6.78246  -2.09767   0.67335 
 H                    -3.81578  -2.43941   0.92831 
 H                    -8.51755  -0.95829  -0.66353 
 H                    -5.73006   2.07799  -1.79155 
 H                    -7.99725   1.10543  -1.88147 
 S                    -3.16608   0.85165  -0.12406 
 N                     2.18289  -0.04448   0.18491 
 C                     3.1465   -1.04492  -0.06717 
 C                     4.39201  -0.9891    0.53934 
 C                     2.87869  -2.09032  -0.93036 
 C                     5.34549  -1.94613   0.2859 
 C                     3.82261  -3.067    -1.17035 
 C                     5.06227  -2.9953   -0.56764 
 H                     4.61294  -0.17489   1.21512 
 H                     1.9137   -2.14552  -1.41407 
 H                     6.31716  -1.9016    0.75556 
 H                     3.59139  -3.88159  -1.84538 
 C                     2.5754    1.31029   0.12319 
 C                     3.39168   1.76327  -0.89498 
 C                     2.16404   2.21196   1.09371 
 C                     3.79684   3.0814   -0.94207 
 C                     2.5441    3.53118   1.03888 
 C                     3.36881   3.97202   0.02073 
 H                     3.72384   1.07184  -1.6564 
 H                     1.52954   1.86849   1.89861 
 H                     4.44276   3.41523  -1.74453 
 H                     2.22072   4.2347    1.79197 
 O                     3.72625   5.28132   0.01926 
 H                     4.2942    5.46604  -0.72813 
 O                     6.03297  -3.92081  -0.77614 
 H                     5.72108  -4.59379  -1.38039 
 
 ITRead=  0  0  0  0  0  0  0  0  0  0  0  0  0  0  0  0  0  0  0  0
 ITRead=  0  0  0  0  0  0  0  0  0  0  0  0  0  0  0  0  0  0  0  0
 ITRead=  0  0  0  0  0  0  0  0
 MicOpt= -1 -1 -1 -1 -1 -1 -1 -1 -1 -1 -1 -1 -1 -1 -1 -1 -1 -1 -1 -1
 MicOpt= -1 -1 -1 -1 -1 -1 -1 -1 -1 -1 -1 -1 -1 -1 -1 -1 -1 -1 -1 -1
 MicOpt= -1 -1 -1 -1 -1 -1 -1 -1
 NAtoms=     48 NQM=       48 NQMF=       0 NMMI=      0 NMMIF=      0
                NMic=       0 NMicF=      0.
                    Isotopes and Nuclear Properties:
 (Nuclear quadrupole moments (NQMom) in fm**2, nuclear magnetic moments (NMagM)
  in nuclear magnetons)

  Atom         1           2           3           4           5           6           7           8           9          10
 IAtWgt=          12          12          32          12          12          12          12          12           1          12
 AtmWgt=  12.0000000  12.0000000  31.9720718  12.0000000  12.0000000  12.0000000  12.0000000  12.0000000   1.0078250  12.0000000
 NucSpn=           0           0           0           0           0           0           0           0           1           0
 AtZEff=  -0.0000000  -0.0000000  -0.0000000  -0.0000000  -0.0000000  -0.0000000  -0.0000000  -0.0000000  -0.0000000  -0.0000000
 NQMom=    0.0000000   0.0000000   0.0000000   0.0000000   0.0000000   0.0000000   0.0000000   0.0000000   0.0000000   0.0000000
 NMagM=    0.0000000   0.0000000   0.0000000   0.0000000   0.0000000   0.0000000   0.0000000   0.0000000   2.7928460   0.0000000
 AtZNuc=   6.0000000   6.0000000  16.0000000   6.0000000   6.0000000   6.0000000   6.0000000   6.0000000   1.0000000   6.0000000

  Atom        11          12          13          14          15          16          17          18          19          20
 IAtWgt=          12          12          12           1           1           1          12           1           1           1
 AtmWgt=  12.0000000  12.0000000  12.0000000   1.0078250   1.0078250   1.0078250  12.0000000   1.0078250   1.0078250   1.0078250
 NucSpn=           0           0           0           1           1           1           0           1           1           1
 AtZEff=  -0.0000000  -0.0000000  -0.0000000  -0.0000000  -0.0000000  -0.0000000  -0.0000000  -0.0000000  -0.0000000  -0.0000000
 NQMom=    0.0000000   0.0000000   0.0000000   0.0000000   0.0000000   0.0000000   0.0000000   0.0000000   0.0000000   0.0000000
 NMagM=    0.0000000   0.0000000   0.0000000   2.7928460   2.7928460   2.7928460   0.0000000   2.7928460   2.7928460   2.7928460
 AtZNuc=   6.0000000   6.0000000   6.0000000   1.0000000   1.0000000   1.0000000   6.0000000   1.0000000   1.0000000   1.0000000

  Atom        21          22          23          24          25          26          27          28          29          30
 IAtWgt=           1           1          32          14          12          12          12          12          12          12
 AtmWgt=   1.0078250   1.0078250  31.9720718  14.0030740  12.0000000  12.0000000  12.0000000  12.0000000  12.0000000  12.0000000
 NucSpn=           1           1           0           2           0           0           0           0           0           0
 AtZEff=  -0.0000000  -0.0000000  -0.0000000  -0.0000000  -0.0000000  -0.0000000  -0.0000000  -0.0000000  -0.0000000  -0.0000000
 NQMom=    0.0000000   0.0000000   0.0000000   2.0440000   0.0000000   0.0000000   0.0000000   0.0000000   0.0000000   0.0000000
 NMagM=    2.7928460   2.7928460   0.0000000   0.4037610   0.0000000   0.0000000   0.0000000   0.0000000   0.0000000   0.0000000
 AtZNuc=   1.0000000   1.0000000  16.0000000   7.0000000   6.0000000   6.0000000   6.0000000   6.0000000   6.0000000   6.0000000

  Atom        31          32          33          34          35          36          37          38          39          40
 IAtWgt=           1           1           1           1          12          12          12          12          12          12
 AtmWgt=   1.0078250   1.0078250   1.0078250   1.0078250  12.0000000  12.0000000  12.0000000  12.0000000  12.0000000  12.0000000
 NucSpn=           1           1           1           1           0           0           0           0           0           0
 AtZEff=  -0.0000000  -0.0000000  -0.0000000  -0.0000000  -0.0000000  -0.0000000  -0.0000000  -0.0000000  -0.0000000  -0.0000000
 NQMom=    0.0000000   0.0000000   0.0000000   0.0000000   0.0000000   0.0000000   0.0000000   0.0000000   0.0000000   0.0000000
 NMagM=    2.7928460   2.7928460   2.7928460   2.7928460   0.0000000   0.0000000   0.0000000   0.0000000   0.0000000   0.0000000
 AtZNuc=   1.0000000   1.0000000   1.0000000   1.0000000   6.0000000   6.0000000   6.0000000   6.0000000   6.0000000   6.0000000

  Atom        41          42          43          44          45          46          47          48
 IAtWgt=           1           1           1           1          16           1          16           1
 AtmWgt=   1.0078250   1.0078250   1.0078250   1.0078250  15.9949146   1.0078250  15.9949146   1.0078250
 NucSpn=           1           1           1           1           0           1           0           1
 AtZEff=  -0.0000000  -0.0000000  -0.0000000  -0.0000000  -0.0000000  -0.0000000  -0.0000000  -0.0000000
 NQMom=    0.0000000   0.0000000   0.0000000   0.0000000   0.0000000   0.0000000   0.0000000   0.0000000
 NMagM=    2.7928460   2.7928460   2.7928460   2.7928460   0.0000000   2.7928460   0.0000000   2.7928460
 AtZNuc=   1.0000000   1.0000000   1.0000000   1.0000000   8.0000000   1.0000000   8.0000000   1.0000000
 Leave Link  101 at Mon Jan 18 08:07:17 2021, MaxMem=  4026531840 cpu:               0.6 elap:               0.1
 (Enter /opt/ohpc/pub/libs/gaussian/g16-A.03/sandybridge/g16/l202.exe)
                          Input orientation:                          
 ---------------------------------------------------------------------
 Center     Atomic      Atomic             Coordinates (Angstroms)
 Number     Number       Type             X           Y           Z
 ---------------------------------------------------------------------
      1          6           0       -6.544630   -1.193879    0.127010
      2          6           0       -5.283469   -0.647909    0.131523
      3         16           0       -3.665919   -1.107322    1.042984
      4          6           0       -4.996815    0.486583   -0.537830
      5          6           0       -1.475687    0.036886    0.221747
      6          6           0       -1.772288   -1.094442    0.892846
      7          6           0       -7.517398   -0.549399   -0.618903
      8          6           0       -5.951198    1.159916   -1.262339
      9          1           0       -2.843406    1.345523   -1.332578
     10          6           0       -0.186077    0.430997   -0.028463
     11          6           0       -0.773630   -1.912541    1.366813
     12          6           0        0.536910   -1.552052    1.124661
     13          6           0        0.845585   -0.387156    0.425435
     14          1           0        0.045427    1.339810   -0.567415
     15          1           0       -0.986976   -2.816418    1.923251
     16          1           0        1.342687   -2.175375    1.484620
     17          6           0       -7.223748    0.615229   -1.306247
     18          1           0       -6.782458   -2.097666    0.673346
     19          1           0       -3.815781   -2.439410    0.928305
     20          1           0       -8.517553   -0.958288   -0.663525
     21          1           0       -5.730059    2.077989   -1.791552
     22          1           0       -7.997253    1.105431   -1.881471
     23         16           0       -3.166075    0.851646   -0.124057
     24          7           0        2.182887   -0.044483    0.184905
     25          6           0        3.146505   -1.044921   -0.067172
     26          6           0        4.392012   -0.989098    0.539344
     27          6           0        2.878694   -2.090316   -0.930362
     28          6           0        5.345494   -1.946131    0.285899
     29          6           0        3.822608   -3.066997   -1.170354
     30          6           0        5.062274   -2.995295   -0.567641
     31          1           0        4.612943   -0.174890    1.215121
     32          1           0        1.913696   -2.145516   -1.414069
     33          1           0        6.317156   -1.901598    0.755555
     34          1           0        3.591387   -3.881585   -1.845380
     35          6           0        2.575405    1.310294    0.123192
     36          6           0        3.391681    1.763268   -0.894977
     37          6           0        2.164040    2.211964    1.093710
     38          6           0        3.796835    3.081396   -0.942072
     39          6           0        2.544098    3.531176    1.038879
     40          6           0        3.368807    3.972023    0.020733
     41          1           0        3.723839    1.071840   -1.656403
     42          1           0        1.529535    1.868488    1.898614
     43          1           0        4.442764    3.415230   -1.744528
     44          1           0        2.220724    4.234697    1.791974
     45          8           0        3.726245    5.281320    0.019257
     46          1           0        4.294203    5.466041   -0.728132
     47          8           0        6.032969   -3.920806   -0.776143
     48          1           0        5.721078   -4.593785   -1.380389
 ---------------------------------------------------------------------
                    Distance matrix (angstroms):
                    1          2          3          4          5
     1  C    0.000000
     2  C    1.374275   0.000000
     3  S    3.022164   1.912666   0.000000
     4  C    2.379432   1.348064   2.609749   0.000000
     5  C    5.217082   3.869921   2.603989   3.630086   0.000000
     6  C    4.834422   3.620414   1.899617   3.865753   1.348425
     7  C    1.384925   2.358661   4.231671   2.726384   6.128025
     8  C    2.796927   2.378433   3.959467   1.374459   4.847051
     9  H    4.719960   3.474373   3.512303   2.450831   2.449309
    10  C    6.564723   5.212777   3.952686   4.837948   1.371504
    11  C    5.946262   4.843953   3.019698   5.217159   2.367346
    12  C    7.160433   5.973325   4.227083   6.127154   2.718552
    13  C    7.440103   6.141635   4.610171   5.985394   2.368460
    14  H    7.094410   5.730329   4.728206   5.114008   2.152713
    15  H    6.061900   5.135423   3.297365   5.748525   3.357871
    16  H    8.063263   6.933251   5.140225   7.166981   3.798971
    17  C    2.405888   2.725323   4.598284   2.359289   5.975739
    18  H    1.082532   2.154608   3.290931   3.366573   5.737776
    19  H    3.104841   2.449172   1.345388   3.479343   3.479555
    20  H    2.138428   3.344807   5.145166   3.807761   7.166726
    21  H    3.879372   3.365736   4.737243   2.154539   5.130220
    22  H    3.380967   3.806701   5.675312   3.345291   6.935138
    23  S    3.957504   2.607172   2.334392   1.912090   1.908095
    24  N    8.803069   7.490891   6.006202   7.235503   3.659664
    25  C    9.694225   8.441656   6.902569   8.299439   4.755885
    26  C   10.946328   9.690081   8.074521   9.564937   5.965183
    27  C    9.524740   8.356377   6.905963   8.295669   4.981263
    28  C   11.914956  10.709065   9.081979  10.656453   7.103871
    29  C   10.614676   9.511441   8.050915   9.529441   6.296345
    30  C   11.766387  10.631719   9.074134  10.644700   7.249979
    31  H   11.256721   9.966790   8.332984   9.790701   6.172767
    32  H    8.650076   7.512048   6.184421   7.446536   4.350482
    33  H   12.896568  11.684847  10.018746  11.635385   8.048048
    34  H   10.670189   9.650278   8.289009   9.723569   6.730726
    35  C    9.457586   8.099168   6.756109   7.645519   4.247661
    36  C   10.417267   9.062323   7.861660   8.492605   5.283819
    37  C    9.400809   8.035550   6.708849   7.544316   4.328845
    38  C   11.241299   9.874829   8.785130   9.177404   6.198629
    39  C   10.284096   8.919577   7.751128   8.283775   5.388547
    40  C   11.179180   9.809074   8.736825   9.079863   6.244584
    41  H   10.665622   9.342688   8.163575   8.811557   5.624380
    42  H    8.815260   7.474750   6.048164   7.102054   3.898462
    43  H   12.061068  10.706459   9.694041   9.956844   7.092779
    44  H   10.443801   9.105485   7.984405   8.459859   5.809534
    45  O   12.142104  10.786255   9.823790   9.969535   7.389532
    46  H   12.750141  11.395227  10.474230  10.542971   7.979325
    47  O   12.901466  11.815138  10.261254  11.880152   8.546287
    48  H   12.817145  11.787954  10.302615  11.890890   8.706514
                    6          7          8          9         10
     6  C    0.000000
     7  C    5.965630   0.000000
     8  C    5.214426   2.405982   0.000000
     9  H    3.471777   5.093747   3.114122   0.000000
    10  C    2.385758   7.420112   5.940572   3.098140   0.000000
    11  C    1.375227   7.160980   6.569600   4.710166   2.790015
    12  C    2.365489   8.301639   7.426176   5.085322   2.405180
    13  C    2.751724   8.429499   7.172048   4.438631   1.392740
    14  H    3.370761   7.795389   6.039436   2.988455   1.081667
    15  H    2.154913   7.365347   7.113559   5.600760   3.872510
    16  H    3.349878   9.250390   8.477659   6.152780   3.379307
    17  C    6.121879   1.383846   1.384917   4.440880   7.155102
    18  H    5.114337   2.146433   3.879396   5.603161   7.099219
    19  H    2.446643   4.434858   4.723778   4.514734   4.725399
    20  H    6.923830   1.081430   3.381057   6.160448   8.470355
    21  H    5.738838   3.387160   1.082510   3.013292   6.046222
    22  H    7.161457   2.136071   2.138372   5.188551   8.056238
    23  S    2.600768   4.598023   3.024504   1.344824   3.011058
    24  N    4.152951   9.746619   8.349157   5.431251   2.425613
    25  C    5.011847  10.689657   9.437051   6.572253   3.644988
    26  C    6.175326  11.973676  10.716637   7.829803   4.826797
    27  C    5.093867  10.514284   9.414946   6.686494   4.069799
    28  C    7.194205  12.970101  11.817776   8.972878   6.028917
    29  C    6.280974  11.629193  10.649063   7.995773   5.441455
    30  C    7.242755  12.815349  11.791732   9.051387   6.290896
    31  H    6.459149  12.273918  10.932547   8.024934   4.994416
    32  H    4.473599   9.598198   8.532612   5.901187   3.601023
    33  H    8.130772  13.968266  12.804580   9.940824   6.953253
    34  H    6.635892  11.662453  10.808219   8.306153   6.014049
    35  C    5.027679  10.289501   8.639749   5.611062   2.902059
    36  C    6.166798  11.154938   9.369545   6.264369   3.914862
    37  C    5.144642  10.212170   8.515566   5.631351   3.155022
    38  C    7.198589  11.886925   9.940765   6.874485   4.870614
    39  C    6.328417  10.983307   9.115291   6.279020   4.266636
    40  C    7.270523  11.805162   9.819201   6.879066   5.017817
    41  H    6.434195  11.404834   9.683459   6.580917   4.283493
    42  H    4.548907   9.696962   8.151998   5.462299   2.953529
    43  H    8.119098  12.650328  10.646755   7.585622   5.768596
    44  H    6.719546  11.114447   9.250049   6.614799   4.855390
    45  O    8.464477  12.681642  10.596290   7.776778   6.231707
    46  H    9.081290  13.255616  11.126380   8.263745   6.775995
    47  O    8.467343  13.964367  13.025758  10.336047   7.627172
    48  H    8.576919  13.863411  13.013879  10.422478   7.872142
                   11         12         13         14         15
    11  C    0.000000
    12  C    1.380618   0.000000
    13  C    2.415543   1.393262   0.000000
    14  H    3.871677   3.386376   2.146722   0.000000
    15  H    1.082651   2.135087   3.391614   4.954140   0.000000
    16  H    2.135827   1.080453   2.136986   4.272032   2.455741
    17  C    7.425557   8.416308   8.313702   7.342465   7.816853
    18  H    6.051544   7.353538   7.821403   7.744401   5.972142
    19  H    3.118423   4.446558   5.117906   5.606122   3.022282
    20  H    8.062333   9.248430   9.443536   8.866517   8.176408
    21  H    7.103928   7.807458   7.364174   5.949761   7.762204
    22  H    8.475862   9.430323   9.259882   8.152691   8.888239
    23  S    3.948065   4.587936   4.234382   3.278508   4.732297
    24  N    3.691550   2.421806   1.401305   2.655370   4.555601
    25  C    4.263395   2.913354   2.443266   3.943839   4.917891
    26  C    5.312373   3.939711   3.598952   5.053863   5.847034
    27  C    4.318343   3.161772   2.978669   4.463731   4.859397
    28  C    6.213951   4.897071   4.764352   6.294145   6.598371
    29  C    5.375443   4.284619   4.311700   5.835287   5.724096
    30  C    6.242775   5.042396   5.056585   6.630376   6.544461
    31  H    5.661944   4.303348   3.855081   5.131662   6.232031
    32  H    3.874184   2.948371   2.759795   4.044101   4.472327
    33  H    7.117092   5.802557   5.686880   7.182727   7.453238
    34  H    5.766168   4.855687   4.990698   6.439720   6.024829
    35  C    4.811371   3.653960   2.442328   2.622708   5.741126
    36  C    5.998090   4.818714   3.584748   3.388809   6.934592
    37  C    5.071098   4.100771   2.990040   2.829931   5.991800
    38  C    7.152587   6.030534   4.755082   4.152897   8.116596
    39  C    6.383488   5.465837   4.314462   3.691290   7.317277
    40  C    7.321189   6.305054   5.053006   4.280107   8.287059
    41  H    6.186565   4.977514   3.840191   3.845571   7.079848
    42  H    4.459099   3.644777   2.779564   2.926325   5.318062
    43  H    8.079378   6.939873   5.666266   5.002953   9.042572
    44  H    6.850945   6.063580   5.011982   4.321921   7.747567
    45  O    8.591648   7.621598   6.371405   5.424768   9.561015
    46  H    9.193215   8.173354   6.890834   5.924838  10.174469
    47  O    7.413176   6.279388   6.390573   7.972974   7.601712
    48  H    7.544363   6.511760   6.687837   8.251151   7.685770
                   16         17         18         19         20
    16  H    0.000000
    17  C    9.431872   0.000000
    18  H    8.165916   3.387230   0.000000
    19  H    5.195093   5.092964   2.997160   0.000000
    20  H   10.164653   2.136113   2.469000   5.180184   0.000000
    21  H    8.879648   2.146228   4.961790   5.609722   4.273353
    22  H   10.456038   1.081430   4.273482   6.159988   2.452150
    23  S    5.663888   4.232987   4.734186   3.515769   5.674963
    24  N    2.633609   9.546912   9.210404   6.501718  10.772850
    25  C    2.634339  10.575138  10.012040   7.170007  11.679614
    26  C    3.405757  11.870381  11.230123   8.344014  12.965520
    27  C    2.863336  10.465209   9.793354   6.956472  11.455441
    28  C    4.184728  12.925995  12.135085   9.197009  13.930589
    29  C    3.740840  11.644709  10.807694   7.946271  12.529290
    30  C    4.326589  12.826837  11.943344   9.020351  13.732090
    31  H    3.843064  12.128019  11.569172   8.732337  13.287323
    32  H    2.954546   9.546006   8.943304   6.196773  10.525388
    33  H    5.035060  13.926289  13.101339  10.148670  14.932254
    34  H    4.365399  11.725150  10.823262   8.039859  12.512748
    35  C    3.939920   9.927226   9.974290   7.453573  11.349850
    36  C    5.037238  10.685245  10.994524   8.540162  12.218441
    37  C    4.480644   9.820383   9.939288   7.577658  11.279840
    38  C    6.288507  11.299020  11.889226   9.587989  12.963055
    39  C    5.848658  10.460075  10.899639   8.724000  12.058756
    40  C    6.636161  11.190673  11.845472   9.672046  12.886494
    41  H    5.106889  10.962699  11.218546   8.709504  12.448249
    42  H    4.069291   9.405411   9.290903   6.933389  10.747055
    43  H    7.161895  12.005815  12.737494  10.470168  13.721007
    44  H    6.477225  10.578165  11.063789   9.040410  12.178143
    45  O    7.964354  11.976298  12.857298  10.831352  13.758978
    46  H    8.485220  12.511107  13.485779  11.446038  14.332385
    47  O    5.491477  14.021311  13.025361  10.104333  14.849474
    48  H    5.764312  13.953775  12.914598  10.046048  14.712897
                   21         22         23         24         25
    21  H    0.000000
    22  H    2.468628   0.000000
    23  S    3.295219   5.147154   0.000000
    24  N    8.427692  10.451194   5.432301   0.000000
    25  C    9.566579  11.493435   6.591576   1.411729   0.000000
    26  C   10.830347  12.796143   7.807248   2.428612   1.386458
    27  C    9.603491  11.375572   6.770857   2.431748   1.381908
    28  C   11.965668  13.857793   8.968970   3.691686   2.402580
    29  C   10.867852  12.554838   8.080358   3.696079   2.400608
    30  C   11.987936  13.751122   9.094034   4.191001   2.779316
    31  H   11.004237  13.047802   7.959918   2.642636   2.133464
    32  H    8.741137  10.440978   6.037482   2.653963   2.131961
    33  H   12.940644  14.862652   9.913916   4.568008   3.385824
    34  H   11.063850  12.616188   8.427913   4.563911   3.377367
    35  C    8.557823  10.762980   5.765074   1.411843   2.430932
    36  C    9.171098  11.450491   6.665548   2.428022   2.937907
    37  C    8.405920  10.645562   5.634141   2.432660   3.594466
    38  C    9.617180  11.995308   7.356837   3.694053   4.267888
    39  C    8.864805  11.204140   6.413921   3.693925   4.746252
    40  C    9.468955  11.875313   7.243093   4.191143   5.022636
    41  H    9.508248  11.723301   7.061691   2.647853   2.709178
    42  H    8.146344  10.277694   5.212861   2.650118   3.868702
    43  H   10.260446  12.653377   8.190990   4.560633   4.938295
    44  H    8.983763  11.300157   6.643328   4.571158   5.673435
    45  O   10.147021  12.589330   8.194304   5.547393   6.353337
    46  H   10.634641  13.092937   8.792798   5.971362   6.644299
    47  O   13.243316  14.944294  10.383830   5.547308   4.135823
    48  H   13.259342  14.863538  10.498218   5.972026   4.576833
                   26         27         28         29         30
    26  C    0.000000
    27  C    2.379674   0.000000
    28  C    1.374509   2.754121   0.000000
    29  C    2.750446   1.379303   2.386670   0.000000
    30  C    2.387361   2.391354   1.381843   1.380281   0.000000
    31  H    1.080935   3.358508   2.130112   3.831371   3.366723
    32  H    3.360830   1.080852   3.834955   2.133652   3.369289
    33  H    2.141397   3.834182   1.080133   3.360067   2.126441
    34  H    3.833326   2.133971   3.371235   1.082902   2.140476
    35  C    2.959805   3.572969   4.278337   4.731749   5.019947
    36  C    3.260898   3.887739   4.355628   4.857262   5.053905
    37  C    3.939287   4.808036   5.297543   5.978651   6.186711
    38  C    4.372385   5.252592   5.402063   6.152683   6.218336
    39  C    4.908890   5.965822   6.198039   7.074686   7.177530
    40  C    5.092016   6.156033   6.245170   7.153490   7.194271
    41  H    3.084676   3.352706   3.938331   4.168449   4.417963
    42  H    4.266988   5.049303   5.631493   6.247860   6.497618
    43  H    4.961527   5.781022   5.803598   6.537089   6.547036
    44  H    5.794101   6.917357   7.087671   8.040905   8.118804
    45  O    6.327075   7.480718   7.411418   8.433200   8.404271
    46  H    6.579125   7.690455   7.554718   8.557494   8.497641
    47  O    3.608068   3.650196   2.345186   2.402101   1.357311
    48  H    4.294829   3.814319   3.150817   2.445278   1.910432
                   31         32         33         34         35
    31  H    0.000000
    32  H    4.252287   0.000000
    33  H    2.469223   4.915000   0.000000
    34  H    4.914248   2.452471   4.256175   0.000000
    35  C    2.747661   3.839746   4.971603   5.644741   0.000000
    36  C    3.114555   4.210996   4.971308   5.727784   1.381362
    37  C    3.421833   5.033812   5.855264   6.914254   1.387132
    38  C    3.990352   5.575805   5.836453   7.024335   2.400725
    39  C    4.248071   6.216043   6.620519   8.022767   2.402453
    40  C    4.491250   6.449829   6.613029   8.075338   2.779350
    41  H    3.254304   3.699557   4.624302   4.958798   2.131366
    42  H    3.761643   5.218590   6.200117   7.164640   2.134841
    43  H    4.655904   6.117784   6.167043   7.347008   3.377301
    44  H    5.049745   7.147034   7.450439   8.999061   3.385671
    45  O    5.655665   7.778024   7.671327   9.351678   4.135732
    46  H    5.974774   8.004569   7.783044   9.440355   4.577035
    47  O    4.473644   4.530675   2.550306   2.665732   6.334663
    48  H    5.243212   4.526733   3.487899   2.293257   6.856687
                   36         37         38         39         40
    36  C    0.000000
    37  C    2.379770   0.000000
    38  C    1.379793   2.750698   0.000000
    39  C    2.753851   1.373962   2.386591   0.000000
    40  C    2.391160   2.387583   1.379644   1.382430   0.000000
    41  H    1.080820   3.360949   2.133990   3.834667   3.368960
    42  H    3.358989   1.080945   3.831617   2.129088   3.366633
    43  H    2.134360   3.833540   1.082869   3.371310   2.139988
    44  H    3.833902   2.140615   3.359946   1.080123   2.127061
    45  O    3.650267   3.607753   2.401833   2.345230   1.357211
    46  H    3.814828   4.294848   2.445338   3.151015   1.910300
    47  O    6.268909   7.488380   7.352459   8.426064   8.368364
    48  H    6.787771   8.067955   7.924849   9.053234   8.992741
                   41         42         43         44         45
    41  H    0.000000
    42  H    4.252971   0.000000
    43  H    2.452773   4.914448   0.000000
    44  H    4.914705   2.467399   4.256270   0.000000
    45  O    4.530735   4.472688   2.665826   2.550400   0.000000
    46  H    4.527251   5.242668   2.293678   3.488045   0.956707
    47  O    5.570768   7.807123   7.568616   9.361659   9.520124
    48  H    6.013689   8.371491   8.118559  10.012915  10.171336
                   46         47         48
    46  H    0.000000
    47  O    9.546649   0.000000
    48  H   10.181430   0.956708   0.000000
 Stoichiometry    C24H19NO2S2(1+,2)
 Framework group  C1[X(C24H19NO2S2)]
 Deg. of freedom   138
 Full point group                 C1      NOp   1
 Largest Abelian subgroup         C1      NOp   1
 Largest concise Abelian subgroup C1      NOp   1
                         Standard orientation:                         
 ---------------------------------------------------------------------
 Center     Atomic      Atomic             Coordinates (Angstroms)
 Number     Number       Type             X           Y           Z
 ---------------------------------------------------------------------
      1          6           0        6.544630   -1.193879   -0.127010
      2          6           0        5.283469   -0.647909   -0.131523
      3         16           0        3.665919   -1.107322   -1.042984
      4          6           0        4.996815    0.486583    0.537830
      5          6           0        1.475687    0.036886   -0.221747
      6          6           0        1.772288   -1.094442   -0.892846
      7          6           0        7.517398   -0.549399    0.618903
      8          6           0        5.951198    1.159916    1.262339
      9          1           0        2.843406    1.345523    1.332578
     10          6           0        0.186077    0.430997    0.028463
     11          6           0        0.773630   -1.912541   -1.366813
     12          6           0       -0.536910   -1.552052   -1.124661
     13          6           0       -0.845585   -0.387156   -0.425435
     14          1           0       -0.045427    1.339810    0.567415
     15          1           0        0.986976   -2.816418   -1.923251
     16          1           0       -1.342687   -2.175375   -1.484620
     17          6           0        7.223748    0.615229    1.306247
     18          1           0        6.782458   -2.097666   -0.673346
     19          1           0        3.815781   -2.439410   -0.928305
     20          1           0        8.517553   -0.958288    0.663525
     21          1           0        5.730059    2.077989    1.791552
     22          1           0        7.997253    1.105431    1.881471
     23         16           0        3.166075    0.851646    0.124057
     24          7           0       -2.182887   -0.044483   -0.184905
     25          6           0       -3.146505   -1.044921    0.067172
     26          6           0       -4.392012   -0.989098   -0.539344
     27          6           0       -2.878694   -2.090316    0.930362
     28          6           0       -5.345494   -1.946131   -0.285899
     29          6           0       -3.822608   -3.066997    1.170354
     30          6           0       -5.062274   -2.995295    0.567641
     31          1           0       -4.612943   -0.174890   -1.215121
     32          1           0       -1.913696   -2.145516    1.414069
     33          1           0       -6.317156   -1.901598   -0.755555
     34          1           0       -3.591387   -3.881585    1.845380
     35          6           0       -2.575405    1.310294   -0.123192
     36          6           0       -3.391681    1.763268    0.894977
     37          6           0       -2.164040    2.211964   -1.093710
     38          6           0       -3.796835    3.081396    0.942072
     39          6           0       -2.544098    3.531176   -1.038879
     40          6           0       -3.368807    3.972023   -0.020733
     41          1           0       -3.723839    1.071840    1.656403
     42          1           0       -1.529535    1.868488   -1.898614
     43          1           0       -4.442764    3.415230    1.744528
     44          1           0       -2.220724    4.234697   -1.791974
     45          8           0       -3.726245    5.281320   -0.019257
     46          1           0       -4.294203    5.466041    0.728132
     47          8           0       -6.032969   -3.920806    0.776143
     48          1           0       -5.721078   -4.593785    1.380389
 ---------------------------------------------------------------------
 Rotational constants (GHZ):           0.2280536           0.0702108           0.0568934
 Leave Link  202 at Mon Jan 18 08:07:17 2021, MaxMem=  4026531840 cpu:               0.1 elap:               0.0
 (Enter /opt/ohpc/pub/libs/gaussian/g16-A.03/sandybridge/g16/l301.exe)
 Standard basis: TZVP (5D, 7F)
 Ernie: Thresh=  0.10000D-02 Tol=  0.10000D-05 Strict=F.
 There are   700 symmetry adapted cartesian basis functions of A   symmetry.
 There are   671 symmetry adapted basis functions of A   symmetry.
   671 basis functions,  1191 primitive gaussians,   700 cartesian basis functions
   109 alpha electrons      108 beta electrons
       nuclear repulsion energy      2827.2462800785 Hartrees.
 IExCor=33909 DFT=T Ex+Corr=LC-wHPBE ExCW=0 ScaHFX=  1.000000
 ScaDFX=  1.000000  1.000000  1.000000  1.000000 ScalE2=  1.000000  1.000000
 IRadAn=      5 IRanWt=     -1 IRanGd=            0 ICorTp=0 IEmpDi=  4
 HFx  wShort=  0.000000 wLong=  0.156200 cFull=  0.000000 cShort=  0.000000 cLong=  1.000000
 DFx  wShort=  0.000000 wLong=  0.156200 cFull=  0.000000 cShort=  1.000000 cLong=  0.000000
 NAtoms=   48 NActive=   48 NUniq=   48 SFac= 1.00D+00 NAtFMM=   60 NAOKFM=F Big=F
 Integral buffers will be    131072 words long.
 Raffenetti 2 integral format.
 Two-electron integral symmetry is turned on.
 Leave Link  301 at Mon Jan 18 08:07:17 2021, MaxMem=  4026531840 cpu:               0.4 elap:               0.1
 (Enter /opt/ohpc/pub/libs/gaussian/g16-A.03/sandybridge/g16/l302.exe)
 NPDir=0 NMtPBC=     1 NCelOv=     1 NCel=       1 NClECP=     1 NCelD=      1
         NCelK=      1 NCelE2=     1 NClLst=     1 CellRange=     0.0.
 One-electron integrals computed using PRISM.
 One-electron integral symmetry used in STVInt
 NBasis=   671 RedAO= T EigKep=  6.34D-06  NBF=   671
 NBsUse=   671 1.00D-06 EigRej= -1.00D+00 NBFU=   671
 Precomputing XC quadrature grid using
 IXCGrd= 4 IRadAn=           5 IRanWt=          -1 IRanGd=           0 AccXCQ= 0.00D+00.
 Generated NRdTot=       0 NPtTot=           0 NUsed=           0 NTot=          32
 NSgBfM=   657   657   657   657   657 MxSgAt=    48 MxSgA2=    48.
 Leave Link  302 at Mon Jan 18 08:07:18 2021, MaxMem=  4026531840 cpu:              10.4 elap:               1.4
 (Enter /opt/ohpc/pub/libs/gaussian/g16-A.03/sandybridge/g16/l303.exe)
 DipDrv:  MaxL=1.
 Leave Link  303 at Mon Jan 18 08:07:19 2021, MaxMem=  4026531840 cpu:               0.9 elap:               0.2
 (Enter /opt/ohpc/pub/libs/gaussian/g16-A.03/sandybridge/g16/l401.exe)
 ExpMin= 9.52D-02 ExpMax= 6.07D+04 ExpMxC= 2.07D+03 IAcc=3 IRadAn=         5 AccDes= 0.00D+00
 Harris functional with IExCor=33909 and IRadAn=       5 diagonalized for initial guess.
 HarFok:  IExCor=33909 AccDes= 0.00D+00 IRadAn=         5 IDoV= 1 UseB2=F ITyADJ=14
 ICtDFT=  3500011 ScaDFX=  1.000000  1.000000  1.000000  1.000000
 FoFCou: FMM=F IPFlag=           0 FMFlag=      100000 FMFlg1=           0
         NFxFlg=           0 DoJE=T BraDBF=F KetDBF=T FulRan=T
         wScrn=  0.000000 ICntrl=       500 IOpCl=  0 I1Cent=   200000004 NGrid=           0
         NMat0=    1 NMatS0=      1 NMatT0=    0 NMatD0=    1 NMtDS0=    0 NMtDT0=    0
 Petite list used in FoFCou.
 Harris En= -1907.86844633244    
 JPrj=0 DoOrth=F DoCkMO=F.
 Initial guess <Sx>= 0.0000 <Sy>= 0.0000 <Sz>= 0.5000 <S**2>= 0.7500 S= 0.5000
 Leave Link  401 at Mon Jan 18 08:07:26 2021, MaxMem=  4026531840 cpu:              57.7 elap:               7.3
 (Enter /opt/ohpc/pub/libs/gaussian/g16-A.03/sandybridge/g16/l502.exe)
 Integral symmetry usage will be decided dynamically.
 UHF open shell SCF:
 Using DIIS extrapolation, IDIIS=    10.
 NGot=  4026531840 LenX=  4025539370 LenY=  4025048670
 Requested convergence on RMS density matrix=1.00D-06 within  32 cycles.
 Requested convergence on MAX density matrix=1.00D-04.
 Requested convergence on             energy=1.00D-04.
 Virtual orbitals will be shifted by   0.500 hartree.
 No special actions if energy rises.
 Dynamic level shift is on during FON iterations.

 Cycle   1  Pass 1  IDiag  1:
 FoFJK:  IHMeth= 1 ICntrl=       0 DoSepK=T KAlg= 0 I1Cent=           0 FoldK=F
 IRaf=         1 NMat=       1 IRICut=       1 DoRegI=T DoRafI=F ISym2E= 0 IDoP0=0 IntGTp=1.
 FoFCou: FMM=F IPFlag=           0 FMFlag=      100000 FMFlg1=           0
         NFxFlg=           0 DoJE=T BraDBF=F KetDBF=F FulRan=T
         wScrn=  0.000000 ICntrl=       500 IOpCl=  0 I1Cent=           0 NGrid=           0
         NMat0=    1 NMatS0=      1 NMatT0=    0 NMatD0=    1 NMtDS0=    0 NMtDT0=    0
 Symmetry not used in FoFCou.
 E= -1925.47791160074    
 DIIS: error= 2.01D-02 at cycle   1 NSaved=   1.
 NSaved= 1 IEnMin= 1 EnMin= -1925.47791160074     IErMin= 1 ErrMin= 2.01D-02
 ErrMax= 2.01D-02  0.00D+00 EMaxC= 1.00D+00 BMatC= 2.73D+00 BMatP= 2.73D+00
 IDIUse=1 WtCom= 1.00D+00 WtEn= 0.00D+00
 Coeff-Com:  0.100D+01
 Coeff:      0.100D+01
 Gap=     0.503 Goal=   None    Shift=    0.500
 T= 1257. Gap= 0.511 NK=0 IS=  110 IE=  671 IFin=  109
          NO(<0.9)=   0  NV(>0.1)=   0    109.00e < EF      0.00e >EF  Err=0.0D+00
 Gap=    -0.030 Goal=   None    Shift=    0.500
 T= 1257. Gap= 0.403 NK=0 IS=  109 IE=  671 IFin=  108
          NO(<0.9)=   0  NV(>0.1)=   0    108.00e < EF      0.00e >EF  Err=0.0D+00
 GapD=   -0.030 DampG=0.250 DampE=0.500 DampFc=0.1250 IDamp=-1.
 Damping current iteration by 1.25D-01
 RMSDP=4.51D-03 MaxDP=4.05D-01              OVMax= 1.13D-01

 Cycle   2  Pass 1  IDiag  1:
 E= -1925.61303173094     Delta-E=       -0.135120130202 Rises=F Damp=T
 DIIS: error= 1.73D-02 at cycle   2 NSaved=   2.
 NSaved= 2 IEnMin= 2 EnMin= -1925.61303173094     IErMin= 2 ErrMin= 1.73D-02
 ErrMax= 1.73D-02  0.00D+00 EMaxC= 1.00D+00 BMatC= 1.89D+00 BMatP= 2.73D+00
 IDIUse=1 WtCom= 1.00D+00 WtEn= 0.00D+00
 Coeff-Com: -0.470D+01 0.570D+01
 Coeff:     -0.470D+01 0.570D+01
 Gap=     0.202 Goal=   None    Shift=    0.500
 T= 1228. Gap= 0.674 NK=4 IS=  110 IE=  120 IFin=  109
          NO(<0.9)=   0  NV(>0.1)=   0    109.00e < EF      0.00e >EF  Err=0.0D+00
 Gap=     0.067 Goal=   None    Shift=    0.500
 T= 1228. Gap= 0.548 NK=4 IS=  109 IE=  120 IFin=  108
          NO(<0.9)=   0  NV(>0.1)=   0    108.00e < EF      0.00e >EF  Err=0.0D+00
 GapD=    0.067 DampG=0.500 DampE=0.500 DampFc=0.2500 IDamp=-1.
 Damping current iteration by 2.50D-01
 RMSDP=3.72D-03 MaxDP=3.53D-01 DE=-1.35D-01 OVMax= 3.07D-02

 Cycle   3  Pass 1  IDiag  1:
 E= -1925.80083535164     Delta-E=       -0.187803620694 Rises=F Damp=T
 DIIS: error= 1.26D-02 at cycle   3 NSaved=   3.
 NSaved= 3 IEnMin= 3 EnMin= -1925.80083535164     IErMin= 3 ErrMin= 1.26D-02
 ErrMax= 1.26D-02  0.00D+00 EMaxC= 1.00D+00 BMatC= 9.69D-01 BMatP= 1.89D+00
 IDIUse=1 WtCom= 1.00D+00 WtEn= 0.00D+00
 Coeff-Com:  0.113D+00-0.267D+01 0.356D+01
 Coeff:      0.113D+00-0.267D+01 0.356D+01
 Gap=     0.204 Goal=   None    Shift=    0.500
 T= 1144. Gap= 0.702 NK=4 IS=  110 IE=  121 IFin=  109
          NO(<0.9)=   0  NV(>0.1)=   0    109.00e < EF      0.00e >EF  Err=0.0D+00
 Gap=     0.073 Goal=   None    Shift=    0.500
 T= 1144. Gap= 0.572 NK=4 IS=  109 IE=  121 IFin=  108
          NO(<0.9)=   0  NV(>0.1)=   0    108.00e < EF      0.00e >EF  Err=0.0D+00
 GapD=    0.073 DampG=0.500 DampE=0.500 DampFc=0.2500 IDamp=-1.
 Damping current iteration by 2.50D-01
 RMSDP=2.59D-03 MaxDP=2.36D-01 DE=-1.88D-01 OVMax= 1.76D-02

 Cycle   4  Pass 1  IDiag  1:
 E= -1925.91303463467     Delta-E=       -0.112199283029 Rises=F Damp=T
 DIIS: error= 9.31D-03 at cycle   4 NSaved=   4.
 NSaved= 4 IEnMin= 4 EnMin= -1925.91303463467     IErMin= 4 ErrMin= 9.31D-03
 ErrMax= 9.31D-03  0.00D+00 EMaxC= 1.00D+00 BMatC= 5.21D-01 BMatP= 9.69D-01
 IDIUse=1 WtCom= 1.00D+00 WtEn= 0.00D+00
 Coeff-Com:  0.504D+00-0.760D+00-0.262D+01 0.388D+01
 Coeff:      0.504D+00-0.760D+00-0.262D+01 0.388D+01
 Gap=     0.205 Goal=   None    Shift=    0.500
 T=  997. Gap= 0.705 NK=4 IS=  110 IE=  121 IFin=  109
          NO(<0.9)=   0  NV(>0.1)=   0    109.00e < EF      0.00e >EF  Err=0.0D+00
 Gap=     0.074 Goal=   None    Shift=    0.500
 T=  997. Gap= 0.574 NK=4 IS=  109 IE=  121 IFin=  108
          NO(<0.9)=   0  NV(>0.1)=   0    108.00e < EF      0.00e >EF  Err=0.0D+00
 GapD=    0.074 DampG=0.500 DampE=1.000 DampFc=0.5000 IDamp=-1.
 Damping current iteration by 5.00D-01
 RMSDP=1.82D-03 MaxDP=1.52D-01 DE=-1.12D-01 OVMax= 1.70D-02

 Cycle   5  Pass 1  IDiag  1:
 E= -1926.04915063716     Delta-E=       -0.136116002499 Rises=F Damp=T
 DIIS: error= 4.76D-03 at cycle   5 NSaved=   5.
 NSaved= 5 IEnMin= 5 EnMin= -1926.04915063716     IErMin= 5 ErrMin= 4.76D-03
 ErrMax= 4.76D-03  0.00D+00 EMaxC= 1.00D+00 BMatC= 1.24D-01 BMatP= 5.21D-01
 IDIUse=1 WtCom= 1.00D+00 WtEn= 0.00D+00
 Coeff-Com:  0.551D-01 0.306D+00-0.657D+00-0.864D+00 0.216D+01
 Coeff:      0.551D-01 0.306D+00-0.657D+00-0.864D+00 0.216D+01
 Gap=     0.208 Goal=   None    Shift=    0.500
 T=  766. Gap= 0.708 NK=4 IS=  110 IE=  121 IFin=  109
          NO(<0.9)=   0  NV(>0.1)=   0    109.00e < EF      0.00e >EF  Err=0.0D+00
 Gap=     0.076 Goal=   None    Shift=    0.500
 T=  766. Gap= 0.577 NK=4 IS=  109 IE=  121 IFin=  108
          NO(<0.9)=   0  NV(>0.1)=   0    108.00e < EF      0.00e >EF  Err=0.0D+00
 GapD=    0.076 DampG=0.500 DampE=1.000 DampFc=0.5000 IDamp=-1.
 Damping current iteration by 5.00D-01
 RMSDP=8.67D-04 MaxDP=6.48D-02 DE=-1.36D-01 OVMax= 1.70D-02

 Cycle   6  Pass 1  IDiag  1:
 E= -1926.10506046533     Delta-E=       -0.055909828170 Rises=F Damp=T
 DIIS: error= 2.74D-03 at cycle   6 NSaved=   6.
 NSaved= 6 IEnMin= 6 EnMin= -1926.10506046533     IErMin= 6 ErrMin= 2.74D-03
 ErrMax= 2.74D-03  0.00D+00 EMaxC= 1.00D+00 BMatC= 3.05D-02 BMatP= 1.24D-01
 IDIUse=1 WtCom= 1.00D+00 WtEn= 0.00D+00
 Coeff-Com: -0.652D-01 0.210D+00 0.649D-01-0.152D+00-0.167D+01 0.261D+01
 Coeff:     -0.652D-01 0.210D+00 0.649D-01-0.152D+00-0.167D+01 0.261D+01
 Gap=     0.211 Goal=   None    Shift=    0.500
 T=  490. Gap= 0.711 NK=4 IS=  110 IE=  121 IFin=  109
          NO(<0.9)=   0  NV(>0.1)=   0    109.00e < EF      0.00e >EF  Err=0.0D+00
 Gap=     0.078 Goal=   None    Shift=    0.500
 T=  490. Gap= 0.579 NK=4 IS=  109 IE=  121 IFin=  108
          NO(<0.9)=   0  NV(>0.1)=   0    108.00e < EF      0.00e >EF  Err=0.0D+00
 GapD=    0.078 DampG=0.500 DampE=1.000 DampFc=0.5000 IDamp=-1.
 Damping current iteration by 5.00D-01
 RMSDP=4.28D-04 MaxDP=3.01D-02 DE=-5.59D-02 OVMax= 1.68D-02

 Cycle   7  Pass 1  IDiag  1:
 E= -1926.13050561619     Delta-E=       -0.025445150852 Rises=F Damp=T
 DIIS: error= 2.53D-03 at cycle   7 NSaved=   7.
 NSaved= 7 IEnMin= 7 EnMin= -1926.13050561619     IErMin= 7 ErrMin= 2.53D-03
 ErrMax= 2.53D-03  0.00D+00 EMaxC= 1.00D+00 BMatC= 7.76D-03 BMatP= 3.05D-02
 IDIUse=1 WtCom= 1.00D+00 WtEn= 0.00D+00
 Coeff-Com: -0.227D-01-0.766D-01 0.269D+00 0.312D+00-0.731D+00-0.225D+01
 Coeff-Com:  0.350D+01
 Coeff:     -0.227D-01-0.766D-01 0.269D+00 0.312D+00-0.731D+00-0.225D+01
 Coeff:      0.350D+01
 Gap=     0.214 Goal=   None    Shift=    0.500
 T=  180. Gap= 0.714 NK=4 IS=  110 IE=  121 IFin=  109
          NO(<0.9)=   0  NV(>0.1)=   0    109.00e < EF      0.00e >EF  Err=0.0D+00
 Gap=     0.080 Goal=   None    Shift=    0.500
 T=  180. Gap= 0.580 NK=4 IS=  109 IE=  121 IFin=  108
          NO(<0.9)=   0  NV(>0.1)=   0    108.00e < EF      0.00e >EF  Err=0.0D+00
 GapD=    0.080 DampG=0.500 DampE=1.000 DampFc=0.5000 IDamp=-1.
 Damping current iteration by 5.00D-01
 RMSDP=2.41D-04 MaxDP=1.30D-02 DE=-2.54D-02 OVMax= 1.88D-02

 Cycle   8  Pass 1  IDiag  1:
 E= -1926.14284709257     Delta-E=       -0.012341476383 Rises=F Damp=T
 DIIS: error= 2.41D-03 at cycle   8 NSaved=   8.
 NSaved= 8 IEnMin= 8 EnMin= -1926.14284709257     IErMin= 8 ErrMin= 2.41D-03
 ErrMax= 2.41D-03  0.00D+00 EMaxC= 1.00D+00 BMatC= 2.16D-03 BMatP= 7.76D-03
 IDIUse=1 WtCom= 1.00D+00 WtEn= 0.00D+00
 Coeff-Com:  0.138D-01-0.122D+00 0.154D+00 0.155D+00 0.460D+00-0.215D+01
 Coeff-Com: -0.308D+00 0.280D+01
 Coeff:      0.138D-01-0.122D+00 0.154D+00 0.155D+00 0.460D+00-0.215D+01
 Coeff:     -0.308D+00 0.280D+01
 Gap=     0.216 Goal=   None    Shift=    0.500
 T=   19. Gap= 0.716 NK=4 IS=  110 IE=  121 IFin=  109
          NO(<0.9)=   0  NV(>0.1)=   0    109.00e < EF      0.00e >EF  Err=0.0D+00
 Gap=     0.081 Goal=   None    Shift=    0.500
 T=   19. Gap= 0.582 NK=4 IS=  109 IE=  121 IFin=  108
          NO(<0.9)=   0  NV(>0.1)=   0    108.00e < EF      0.00e >EF  Err=0.0D+00
 GapD=    0.081 DampG=0.500 DampE=1.000 DampFc=0.5000 IDamp=-1.
 Damping current iteration by 5.00D-01
 RMSDP=1.76D-04 MaxDP=1.28D-02 DE=-1.23D-02 OVMax= 1.92D-02

 Cycle   9  Pass 1  IDiag  1:
 E= -1926.14911991995     Delta-E=       -0.006272827382 Rises=F Damp=T
 DIIS: error= 2.34D-03 at cycle   9 NSaved=   9.
 NSaved= 9 IEnMin= 9 EnMin= -1926.14911991995     IErMin= 9 ErrMin= 2.34D-03
 ErrMax= 2.34D-03  0.00D+00 EMaxC= 1.00D+00 BMatC= 7.36D-04 BMatP= 2.16D-03
 IDIUse=1 WtCom= 1.00D+00 WtEn= 0.00D+00
 Coeff-Com: -0.223D-02-0.238D-01 0.616D-01-0.231D-01 0.300D+00-0.532D+00
 Coeff-Com: -0.366D+00-0.112D+01 0.271D+01
 Coeff:     -0.223D-02-0.238D-01 0.616D-01-0.231D-01 0.300D+00-0.532D+00
 Coeff:     -0.366D+00-0.112D+01 0.271D+01
 Gap=     0.218 Goal=   None    Shift=    0.500
 Gap=     0.082 Goal=   None    Shift=    0.500
 GapD=    0.082 DampG=0.500 DampE=1.000 DampFc=0.5000 IDamp=-1.
 Damping current iteration by 5.00D-01
 RMSDP=1.45D-04 MaxDP=1.34D-02 DE=-6.27D-03 OVMax= 1.88D-02

 Cycle  10  Pass 1  IDiag  1:
 E= -1926.15245108357     Delta-E=       -0.003331163616 Rises=F Damp=T
 DIIS: error= 2.30D-03 at cycle  10 NSaved=  10.
 NSaved=10 IEnMin=10 EnMin= -1926.15245108357     IErMin=10 ErrMin= 2.30D-03
 ErrMax= 2.30D-03  0.00D+00 EMaxC= 1.00D+00 BMatC= 3.53D-04 BMatP= 7.36D-04
 IDIUse=1 WtCom= 1.00D+00 WtEn= 0.00D+00
 Coeff-Com: -0.185D-01 0.250D-01 0.619D-01 0.159D-01-0.432D+00 0.350D+00
 Coeff-Com:  0.785D+00-0.354D+00-0.404D+01 0.461D+01
 Coeff:     -0.185D-01 0.250D-01 0.619D-01 0.159D-01-0.432D+00 0.350D+00
 Coeff:      0.785D+00-0.354D+00-0.404D+01 0.461D+01
 Gap=     0.221 Goal=   None    Shift=    0.500
 Gap=     0.084 Goal=   None    Shift=    0.500
 GapD=    0.084 DampG=0.500 DampE=1.000 DampFc=0.5000 IDamp=-1.
 Damping current iteration by 5.00D-01
 RMSDP=1.38D-04 MaxDP=1.32D-02 DE=-3.33D-03 OVMax= 2.00D-02

 Cycle  11  Pass 1  IDiag  1:
 E= -1926.15433145977     Delta-E=       -0.001880376205 Rises=F Damp=T
 DIIS: error= 2.30D-03 at cycle  11 NSaved=  11.
 NSaved=11 IEnMin=11 EnMin= -1926.15433145977     IErMin=10 ErrMin= 2.30D-03
 ErrMax= 2.30D-03  0.00D+00 EMaxC= 1.00D+00 BMatC= 2.48D-04 BMatP= 3.53D-04
 IDIUse=1 WtCom= 1.00D+00 WtEn= 0.00D+00
 Coeff-Com: -0.248D-01 0.227D-01 0.118D+00 0.228D-01-0.750D+00 0.577D+00
 Coeff-Com:  0.101D+01 0.674D+00-0.541D+01 0.295D+01 0.181D+01
 Coeff:     -0.248D-01 0.227D-01 0.118D+00 0.228D-01-0.750D+00 0.577D+00
 Coeff:      0.101D+01 0.674D+00-0.541D+01 0.295D+01 0.181D+01
 Gap=     0.223 Goal=   None    Shift=    0.500
 Gap=     0.085 Goal=   None    Shift=    0.500
 GapD=    0.085 DampG=0.500 DampE=1.000 DampFc=0.5000 IDamp=-1.
 Damping current iteration by 5.00D-01
 RMSDP=1.28D-04 MaxDP=1.18D-02 DE=-1.88D-03 OVMax= 1.96D-02

 Cycle  12  Pass 1  IDiag  1:
 E= -1926.15548577158     Delta-E=       -0.001154311808 Rises=F Damp=T
 DIIS: error= 2.30D-03 at cycle  12 NSaved=  12.
 NSaved=12 IEnMin=12 EnMin= -1926.15548577158     IErMin=12 ErrMin= 2.30D-03
 ErrMax= 2.30D-03  0.00D+00 EMaxC= 1.00D+00 BMatC= 2.14D-04 BMatP= 2.48D-04
 IDIUse=1 WtCom= 1.00D+00 WtEn= 0.00D+00
 Coeff-Com: -0.180D-01-0.216D-01 0.170D+00 0.245D-01-0.415D+00-0.389D+00
 Coeff-Com:  0.770D+00 0.167D+01-0.254D+01 0.169D+01-0.528D+01 0.534D+01
 Coeff:     -0.180D-01-0.216D-01 0.170D+00 0.245D-01-0.415D+00-0.389D+00
 Coeff:      0.770D+00 0.167D+01-0.254D+01 0.169D+01-0.528D+01 0.534D+01
 Gap=     0.226 Goal=   None    Shift=    0.500
 Gap=     0.086 Goal=   None    Shift=    0.500
 GapD=    0.086 DampG=0.500 DampE=1.000 DampFc=0.5000 IDamp=-1.
 Damping current iteration by 5.00D-01
 RMSDP=1.31D-04 MaxDP=1.08D-02 DE=-1.15D-03 OVMax= 2.13D-02

 Cycle  13  Pass 1  IDiag  1:
 E= -1926.15628443266     Delta-E=       -0.000798661075 Rises=F Damp=T
 DIIS: error= 2.32D-03 at cycle  13 NSaved=  13.
 NSaved=13 IEnMin=13 EnMin= -1926.15628443266     IErMin=12 ErrMin= 2.30D-03
 ErrMax= 2.32D-03  0.00D+00 EMaxC= 1.00D+00 BMatC= 2.05D-04 BMatP= 2.14D-04
 IDIUse=1 WtCom= 1.00D+00 WtEn= 0.00D+00
 Coeff-Com: -0.173D-01-0.224D-01 0.168D+00 0.220D-01-0.380D+00-0.420D+00
 Coeff-Com:  0.689D+00 0.162D+01-0.228D+01 0.199D+01-0.574D+01 0.484D+01
 Coeff-Com:  0.527D+00
 Coeff:     -0.173D-01-0.224D-01 0.168D+00 0.220D-01-0.380D+00-0.420D+00
 Coeff:      0.689D+00 0.162D+01-0.228D+01 0.199D+01-0.574D+01 0.484D+01
 Coeff:      0.527D+00
 Gap=     0.226 Goal=   None    Shift=    0.500
 Gap=     0.087 Goal=   None    Shift=    0.500
 GapD=    0.087 DampG=0.500 DampE=1.000 DampFc=0.5000 IDamp=-1.
 Damping current iteration by 5.00D-01
 RMSDP=1.15D-04 MaxDP=8.60D-03 DE=-7.99D-04 OVMax= 1.87D-02

 Cycle  14  Pass 1  IDiag  1:
 E= -1926.15688812999     Delta-E=       -0.000603697339 Rises=F Damp=T
 DIIS: error= 2.30D-03 at cycle  14 NSaved=  14.
 NSaved=14 IEnMin=14 EnMin= -1926.15688812999     IErMin=14 ErrMin= 2.30D-03
 ErrMax= 2.30D-03  0.00D+00 EMaxC= 1.00D+00 BMatC= 1.97D-04 BMatP= 2.05D-04
 IDIUse=1 WtCom= 1.00D+00 WtEn= 0.00D+00
 Coeff-Com: -0.122D-01-0.178D-01 0.905D-01 0.664D-01-0.206D-02-0.111D+01
 Coeff-Com:  0.840D+00 0.686D+00 0.125D+01-0.269D+01 0.170D+00 0.198D+01
 Coeff-Com: -0.496D+01 0.471D+01
 Coeff:     -0.122D-01-0.178D-01 0.905D-01 0.664D-01-0.206D-02-0.111D+01
 Coeff:      0.840D+00 0.686D+00 0.125D+01-0.269D+01 0.170D+00 0.198D+01
 Coeff:     -0.496D+01 0.471D+01
 Gap=     0.229 Goal=   None    Shift=    0.500
 Gap=     0.087 Goal=   None    Shift=    0.500
 GapD=    0.087 DampG=0.500 DampE=1.000 DampFc=0.5000 IDamp=-1.
 Damping current iteration by 5.00D-01
 RMSDP=1.17D-04 MaxDP=8.17D-03 DE=-6.04D-04 OVMax= 2.02D-02

 Cycle  15  Pass 1  IDiag  1:
 E= -1926.15739646326     Delta-E=       -0.000508333265 Rises=F Damp=T
 DIIS: error= 2.30D-03 at cycle  15 NSaved=  15.
 NSaved=15 IEnMin=15 EnMin= -1926.15739646326     IErMin=15 ErrMin= 2.30D-03
 ErrMax= 2.30D-03  0.00D+00 EMaxC= 1.00D+00 BMatC= 1.95D-04 BMatP= 1.97D-04
 IDIUse=1 WtCom= 1.00D+00 WtEn= 0.00D+00
 Coeff-Com: -0.103D-01 0.495D-02 0.183D-01 0.841D-01 0.641D-01-0.923D+00
 Coeff-Com:  0.717D+00-0.431D+00 0.237D+01-0.418D+01 0.588D+01-0.127D+01
 Coeff-Com: -0.723D+01 0.190D+01 0.399D+01
 Coeff:     -0.103D-01 0.495D-02 0.183D-01 0.841D-01 0.641D-01-0.923D+00
 Coeff:      0.717D+00-0.431D+00 0.237D+01-0.418D+01 0.588D+01-0.127D+01
 Coeff:     -0.723D+01 0.190D+01 0.399D+01
 Gap=     0.231 Goal=   None    Shift=    0.500
 Gap=     0.088 Goal=   None    Shift=    0.500
 GapD=    0.088 DampG=0.500 DampE=1.000 DampFc=0.5000 IDamp=-1.
 Damping current iteration by 5.00D-01
 RMSDP=1.30D-04 MaxDP=8.70D-03 DE=-5.08D-04 OVMax= 2.23D-02

 Cycle  16  Pass 1  IDiag  1:
 E= -1926.15787082890     Delta-E=       -0.000474365638 Rises=F Damp=T
 DIIS: error= 2.33D-03 at cycle  16 NSaved=  16.
 NSaved=16 IEnMin=16 EnMin= -1926.15787082890     IErMin=15 ErrMin= 2.30D-03
 ErrMax= 2.33D-03  0.00D+00 EMaxC= 1.00D+00 BMatC= 2.01D-04 BMatP= 1.95D-04
 IDIUse=1 WtCom= 1.00D+00 WtEn= 0.00D+00
 Coeff-Com: -0.102D-01 0.580D-02 0.193D-01 0.845D-01 0.142D-01-0.800D+00
 Coeff-Com:  0.704D+00-0.456D+00 0.188D+01-0.359D+01 0.581D+01-0.639D+00
 Coeff-Com: -0.826D+01 0.258D+01 0.282D+01 0.842D+00
 Coeff:     -0.102D-01 0.580D-02 0.193D-01 0.845D-01 0.142D-01-0.800D+00
 Coeff:      0.704D+00-0.456D+00 0.188D+01-0.359D+01 0.581D+01-0.639D+00
 Coeff:     -0.826D+01 0.258D+01 0.282D+01 0.842D+00
 Gap=     0.232 Goal=   None    Shift=    0.500
 Gap=     0.089 Goal=   None    Shift=    0.500
 GapD=    0.089 DampG=0.500 DampE=1.000 DampFc=0.5000 IDamp=-1.
 Damping current iteration by 5.00D-01
 RMSDP=1.19D-04 MaxDP=7.59D-03 DE=-4.74D-04 OVMax= 1.98D-02

 Cycle  17  Pass 1  IDiag  1:
 E= -1926.15831862531     Delta-E=       -0.000447796413 Rises=F Damp=T
 DIIS: error= 2.32D-03 at cycle  17 NSaved=  17.
 NSaved=17 IEnMin=17 EnMin= -1926.15831862531     IErMin=15 ErrMin= 2.30D-03
 ErrMax= 2.32D-03  0.00D+00 EMaxC= 1.00D+00 BMatC= 1.99D-04 BMatP= 1.95D-04
 IDIUse=1 WtCom= 1.00D+00 WtEn= 0.00D+00
 Large coefficients: NSaved= 17 BigCof=   41.16 CofMax=   10.00 Det=-4.44D-09
 Inversion failed.  Reducing to 16 matrices.
 Large coefficients: NSaved= 16 BigCof=   39.46 CofMax=   10.00 Det=-4.52D-09
 Inversion failed.  Reducing to 15 matrices.
 Large coefficients: NSaved= 15 BigCof=   37.90 CofMax=   10.00 Det=-4.64D-09
 Inversion failed.  Reducing to 14 matrices.
 Large coefficients: NSaved= 14 BigCof=   36.23 CofMax=   10.00 Det=-4.89D-09
 Inversion failed.  Reducing to 13 matrices.
 Large coefficients: NSaved= 13 BigCof=   37.50 CofMax=   10.00 Det=-5.03D-09
 Inversion failed.  Reducing to 12 matrices.
 Large coefficients: NSaved= 12 BigCof=   37.64 CofMax=   10.00 Det=-5.03D-09
 Inversion failed.  Reducing to 11 matrices.
 Large coefficients: NSaved= 11 BigCof=   36.74 CofMax=   10.00 Det=-5.55D-09
 Inversion failed.  Reducing to 10 matrices.
 Large coefficients: NSaved= 10 BigCof=   37.86 CofMax=   10.00 Det=-5.66D-09
 Inversion failed.  Reducing to  9 matrices.
 Large coefficients: NSaved=  9 BigCof=   37.95 CofMax=   10.00 Det=-5.70D-09
 Inversion failed.  Reducing to  8 matrices.
 Large coefficients: NSaved=  8 BigCof=   34.69 CofMax=   10.00 Det=-6.26D-09
 Inversion failed.  Reducing to  7 matrices.
 Large coefficients: NSaved=  7 BigCof=   35.14 CofMax=   10.00 Det=-6.36D-09
 Inversion failed.  Reducing to  6 matrices.
 Large coefficients: NSaved=  6 BigCof=   30.52 CofMax=   10.00 Det=-8.09D-09
 Inversion failed.  Reducing to  5 matrices.
 Large coefficients: NSaved=  5 BigCof=   12.10 CofMax=   10.00 Det=-5.10D-08
 Inversion failed.  Reducing to  4 matrices.
 Coeff-Com:  0.735D+00 0.127D+01-0.783D+01 0.682D+01
 Coeff:      0.735D+00 0.127D+01-0.783D+01 0.682D+01
 Gap=     0.234 Goal=   None    Shift=    0.500
 Gap=     0.090 Goal=   None    Shift=    0.500
 GapD=    0.090 DampG=0.500 DampE=1.000 DampFc=0.5000 IDamp=-1.
 Damping current iteration by 5.00D-01
 RMSDP=1.26D-04 MaxDP=8.13D-03 DE=-4.48D-04 OVMax= 2.18D-02

 Cycle  18  Pass 1  IDiag  1:
 E= -1926.15875923263     Delta-E=       -0.000440607320 Rises=F Damp=T
 DIIS: error= 2.33D-03 at cycle  18 NSaved=   5.
 NSaved= 5 IEnMin= 5 EnMin= -1926.15875923263     IErMin= 2 ErrMin= 2.30D-03
 ErrMax= 2.33D-03  0.00D+00 EMaxC= 1.00D+00 BMatC= 2.03D-04 BMatP= 1.95D-04
 IDIUse=1 WtCom= 1.00D+00 WtEn= 0.00D+00
 Large coefficients: NSaved=  5 BigCof=   12.50 CofMax=   10.00 Det=-6.86D-08
 Inversion failed.  Reducing to  4 matrices.
 Coeff-Com:  0.380D+01-0.952D+01 0.341D+01 0.331D+01
 Coeff:      0.380D+01-0.952D+01 0.341D+01 0.331D+01
 Gap=     0.237 Goal=   None    Shift=    0.500
 Gap=     0.092 Goal=   None    Shift=    0.500
 GapD=    0.092 DampG=0.500 DampE=1.000 DampFc=0.5000 IDamp=-1.
 Damping current iteration by 5.00D-01
 RMSDP=1.50D-04 MaxDP=9.76D-03 DE=-4.41D-04 OVMax= 2.51D-02

 Cycle  19  Pass 1  IDiag  1:
 E= -1926.15921287550     Delta-E=       -0.000453642869 Rises=F Damp=T
 DIIS: error= 2.38D-03 at cycle  19 NSaved=   5.
 NSaved= 5 IEnMin= 5 EnMin= -1926.15921287550     IErMin= 1 ErrMin= 2.30D-03
 ErrMax= 2.38D-03  0.00D+00 EMaxC= 1.00D+00 BMatC= 2.28D-04 BMatP= 1.95D-04
 IDIUse=1 WtCom= 1.00D+00 WtEn= 0.00D+00
 Large coefficients: NSaved=  5 BigCof=   21.92 CofMax=   10.00 Det=-2.35D-08
 Inversion failed.  Reducing to  4 matrices.
 Coeff-Com: -0.310D+01 0.304D+01 0.243D+01-0.136D+01
 Coeff:     -0.310D+01 0.304D+01 0.243D+01-0.136D+01
 Gap=     0.233 Goal=   None    Shift=    0.500
 Gap=     0.093 Goal=   None    Shift=    0.500
 GapD=    0.093 DampG=0.500 DampE=1.000 DampFc=0.5000 IDamp=-1.
 Damping current iteration by 5.00D-01
 RMSDP=8.99D-05 MaxDP=5.24D-03 DE=-4.54D-04 OVMax= 1.33D-02

 Cycle  20  Pass 1  IDiag  1:
 E= -1926.15961958337     Delta-E=       -0.000406707874 Rises=F Damp=T
 DIIS: error= 2.25D-03 at cycle  20 NSaved=   5.
 NSaved= 5 IEnMin= 5 EnMin= -1926.15961958337     IErMin= 5 ErrMin= 2.25D-03
 ErrMax= 2.25D-03  0.00D+00 EMaxC= 1.00D+00 BMatC= 1.86D-04 BMatP= 1.99D-04
 IDIUse=1 WtCom= 1.00D+00 WtEn= 0.00D+00
 Large coefficients: NSaved=  5 BigCof=   12.28 CofMax=   10.00 Det=-4.34D-08
 Inversion failed.  Reducing to  4 matrices.
 Coeff-Com: -0.357D+01 0.193D+01-0.281D+00 0.291D+01
 Coeff:     -0.357D+01 0.193D+01-0.281D+00 0.291D+01
 Gap=     0.244 Goal=   None    Shift=    0.500
 Gap=     0.096 Goal=   None    Shift=    0.500
 GapD=    0.096 DampG=0.500 DampE=1.000 DampFc=0.5000 IDamp=-1.
 Damping current iteration by 5.00D-01
 RMSDP=1.96D-04 MaxDP=1.28D-02 DE=-4.07D-04 OVMax= 3.43D-02

 Cycle  21  Pass 1  IDiag  1:
 E= -1926.16006033660     Delta-E=       -0.000440753225 Rises=F Damp=T
 DIIS: error= 2.41D-03 at cycle  21 NSaved=   5.
 NSaved= 5 IEnMin= 5 EnMin= -1926.16006033660     IErMin= 4 ErrMin= 2.25D-03
 ErrMax= 2.41D-03  0.00D+00 EMaxC= 1.00D+00 BMatC= 2.69D-04 BMatP= 1.86D-04
 IDIUse=1 WtCom= 1.00D+00 WtEn= 0.00D+00
 Large coefficients: NSaved=  5 BigCof=   18.06 CofMax=   10.00 Det=-5.14D-08
 Inversion failed.  Reducing to  4 matrices.
 Large coefficients: NSaved=  4 BigCof=   14.29 CofMax=   10.00 Det=-8.54D-08
 Inversion failed.  Reducing to  3 matrices.
 Coeff-Com: -0.684D+01 0.385D+01 0.398D+01
 Coeff:     -0.684D+01 0.385D+01 0.398D+01
 Gap=     0.248 Goal=   None    Shift=    0.500
 Gap=     0.099 Goal=   None    Shift=    0.500
 GapD=    0.099 DampG=0.500 DampE=1.000 DampFc=0.5000 IDamp=-1.
 Damping current iteration by 5.00D-01
 RMSDP=2.69D-04 MaxDP=1.90D-02 DE=-4.41D-04 OVMax= 4.09D-02

 Cycle  22  Pass 1  IDiag  1:
 E= -1926.16049222415     Delta-E=       -0.000431887547 Rises=F Damp=T
 DIIS: error= 2.69D-03 at cycle  22 NSaved=   4.
 NSaved= 4 IEnMin= 4 EnMin= -1926.16049222415     IErMin= 2 ErrMin= 2.25D-03
 ErrMax= 2.69D-03  0.00D+00 EMaxC= 1.00D+00 BMatC= 6.32D-04 BMatP= 1.86D-04
 IDIUse=1 WtCom= 1.00D+00 WtEn= 0.00D+00
 Coeff-Com: -0.719D+01 0.473D+01 0.298D+01 0.476D+00
 Coeff:     -0.719D+01 0.473D+01 0.298D+01 0.476D+00
 Gap=     0.248 Goal=   None    Shift=    0.500
 Gap=     0.103 Goal=   None    Shift=    0.500
 GapD=    0.103 DampG=1.000 DampE=1.000 DampFc=1.0000 IDamp=-1.
 RMSDP=2.44D-04 MaxDP=1.77D-02 DE=-4.32D-04 OVMax= 3.50D-02

 Cycle  23  Pass 1  IDiag  1:
 E= -1926.16195128038     Delta-E=       -0.001459056237 Rises=F Damp=F
 DIIS: error= 2.96D-03 at cycle  23 NSaved=   5.
 NSaved= 5 IEnMin= 5 EnMin= -1926.16195128038     IErMin= 2 ErrMin= 2.25D-03
 ErrMax= 2.96D-03  0.00D+00 EMaxC= 1.00D+00 BMatC= 1.34D-03 BMatP= 1.86D-04
 IDIUse=1 WtCom= 1.00D+00 WtEn= 0.00D+00
 Coeff-Com: -0.499D+01 0.968D+00 0.799D+01-0.444D+01 0.147D+01
 Coeff:     -0.499D+01 0.968D+00 0.799D+01-0.444D+01 0.147D+01
 Gap=     0.247 Goal=   None    Shift=    0.500
 Gap=     0.104 Goal=   None    Shift=    0.500
 GapD=    0.104 DampG=1.000 DampE=1.000 DampFc=1.0000 IDamp=-1.
 RMSDP=6.86D-05 MaxDP=3.95D-03 DE=-1.46D-03 OVMax= 2.73D-02

 Cycle  24  Pass 1  IDiag  1:
 E= -1926.16256309823     Delta-E=       -0.000611817852 Rises=F Damp=F
 DIIS: error= 2.72D-03 at cycle  24 NSaved=   6.
 NSaved= 6 IEnMin= 6 EnMin= -1926.16256309823     IErMin= 2 ErrMin= 2.25D-03
 ErrMax= 2.72D-03  0.00D+00 EMaxC= 1.00D+00 BMatC= 8.75D-04 BMatP= 1.86D-04
 IDIUse=1 WtCom= 1.00D+00 WtEn= 0.00D+00
 Large coefficients: NSaved=  6 BigCof=   24.08 CofMax=   10.00 Det=-4.01D-08
 Inversion failed.  Reducing to  5 matrices.
 Large coefficients: NSaved=  5 BigCof=   19.13 CofMax=   10.00 Det=-6.73D-08
 Inversion failed.  Reducing to  4 matrices.
 Coeff-Com: -0.118D+01 0.279D+01-0.425D+01 0.365D+01
 Coeff:     -0.118D+01 0.279D+01-0.425D+01 0.365D+01
 Gap=     0.244 Goal=   None    Shift=    0.500
 Gap=     0.097 Goal=   None    Shift=    0.500
 GapD=    0.097 DampG=0.500 DampE=1.000 DampFc=0.5000 IDamp=-1.
 Damping current iteration by 5.00D-01
 RMSDP=5.78D-05 MaxDP=3.27D-03 DE=-6.12D-04 OVMax= 1.44D-02

 Cycle  25  Pass 1  IDiag  1:
 E= -1926.16278560156     Delta-E=       -0.000222503327 Rises=F Damp=T
 DIIS: error= 2.45D-03 at cycle  25 NSaved=   5.
 NSaved= 5 IEnMin= 5 EnMin= -1926.16278560156     IErMin= 1 ErrMin= 2.41D-03
 ErrMax= 2.45D-03  0.00D+00 EMaxC= 1.00D+00 BMatC= 4.54D-04 BMatP= 2.69D-04
 IDIUse=1 WtCom= 1.00D+00 WtEn= 0.00D+00
 Large coefficients: NSaved=  5 BigCof=   17.74 CofMax=   10.00 Det=-1.27D-07
 Inversion failed.  Reducing to  4 matrices.
 Coeff-Com:  0.206D+00-0.173D+01 0.118D+01 0.135D+01
 Coeff:      0.206D+00-0.173D+01 0.118D+01 0.135D+01
 Gap=     0.246 Goal=   None    Shift=    0.500
 Gap=     0.099 Goal=   None    Shift=    0.500
 GapD=    0.099 DampG=0.500 DampE=1.000 DampFc=0.5000 IDamp=-1.
 Damping current iteration by 5.00D-01
 RMSDP=5.44D-05 MaxDP=3.36D-03 DE=-2.23D-04 OVMax= 1.73D-02

 Cycle  26  Pass 1  IDiag  1:
 E= -1926.16303810473     Delta-E=       -0.000252503164 Rises=F Damp=T
 DIIS: error= 2.22D-03 at cycle  26 NSaved=   5.
 NSaved= 5 IEnMin= 5 EnMin= -1926.16303810473     IErMin= 5 ErrMin= 2.22D-03
 ErrMax= 2.22D-03  0.00D+00 EMaxC= 1.00D+00 BMatC= 2.56D-04 BMatP= 4.54D-04
 IDIUse=1 WtCom= 1.00D+00 WtEn= 0.00D+00
 Coeff-Com: -0.322D+01 0.273D+01 0.350D+00-0.682D+01 0.795D+01
 Coeff:     -0.322D+01 0.273D+01 0.350D+00-0.682D+01 0.795D+01
 Gap=     0.262 Goal=   None    Shift=    0.500
 Gap=     0.110 Goal=   None    Shift=    0.500
 GapD=    0.110 DampG=1.000 DampE=1.000 DampFc=1.0000 IDamp=-1.
 RMSDP=3.23D-04 MaxDP=2.01D-02 DE=-2.53D-04 OVMax= 5.81D-02

 Cycle  27  Pass 1  IDiag  1:
 E= -1926.16352064524     Delta-E=       -0.000482540519 Rises=F Damp=F
 DIIS: error= 3.12D-03 at cycle  27 NSaved=   6.
 NSaved= 6 IEnMin= 6 EnMin= -1926.16352064524     IErMin= 5 ErrMin= 2.22D-03
 ErrMax= 3.12D-03  0.00D+00 EMaxC= 1.00D+00 BMatC= 2.89D-03 BMatP= 2.56D-04
 IDIUse=1 WtCom= 1.00D+00 WtEn= 0.00D+00
 Coeff-Com: -0.230D+01-0.969D+00 0.233D+01-0.548D+01 0.654D+01 0.881D+00
 Coeff:     -0.230D+01-0.969D+00 0.233D+01-0.548D+01 0.654D+01 0.881D+00
 Gap=     0.234 Goal=   None    Shift=    0.500
 Gap=     0.117 Goal=   None    Shift=    0.500
 GapD=    0.117 DampG=1.000 DampE=1.000 DampFc=1.0000 IDamp=-1.
 RMSDP=2.42D-04 MaxDP=1.71D-02 DE=-4.83D-04 OVMax= 5.78D-02

 Cycle  28  Pass 1  IDiag  1:
 E= -1926.16342758403     Delta-E=        0.000093061219 Rises=F Damp=F
 DIIS: error= 3.57D-03 at cycle  28 NSaved=   7.
 NSaved= 7 IEnMin= 6 EnMin= -1926.16352064524     IErMin= 5 ErrMin= 2.22D-03
 ErrMax= 3.57D-03  0.00D+00 EMaxC= 1.00D+00 BMatC= 5.99D-03 BMatP= 2.56D-04
 IDIUse=1 WtCom= 1.00D+00 WtEn= 0.00D+00
 Coeff-Com: -0.601D+00-0.279D+01 0.310D+01-0.632D+01 0.685D+01-0.196D+00
 Coeff-Com:  0.956D+00
 Coeff:     -0.601D+00-0.279D+01 0.310D+01-0.632D+01 0.685D+01-0.196D+00
 Coeff:      0.956D+00
 Gap=     0.241 Goal=   None    Shift=    0.000
 Gap=     0.116 Goal=   None    Shift=    0.000
 RMSDP=4.20D-04 MaxDP=2.01D-02 DE= 9.31D-05 OVMax= 1.91D-01

 Cycle  29  Pass 1  IDiag  1:
 E= -1926.16715834638     Delta-E=       -0.003730762354 Rises=F Damp=F
 DIIS: error= 1.28D-03 at cycle  29 NSaved=   8.
 NSaved= 8 IEnMin= 8 EnMin= -1926.16715834638     IErMin= 8 ErrMin= 1.28D-03
 ErrMax= 1.28D-03  0.00D+00 EMaxC= 1.00D+00 BMatC= 3.96D-04 BMatP= 2.56D-04
 IDIUse=1 WtCom= 1.00D+00 WtEn= 0.00D+00
 Coeff-Com:  0.272D+00-0.184D+01 0.278D+01-0.683D+01 0.558D+01-0.227D+00
 Coeff-Com:  0.549D+00 0.717D+00
 Coeff:      0.272D+00-0.184D+01 0.278D+01-0.683D+01 0.558D+01-0.227D+00
 Coeff:      0.549D+00 0.717D+00
 Gap=     0.239 Goal=   None    Shift=    0.500
 Gap=     0.117 Goal=   None    Shift=    0.500
 GapD=    0.117 DampG=1.000 DampE=1.000 DampFc=1.0000 IDamp=-1.
 RMSDP=4.10D-05 MaxDP=3.25D-03 DE=-3.73D-03 OVMax= 1.08D-02

 Cycle  30  Pass 1  IDiag  1:
 E= -1926.16725390710     Delta-E=       -0.000095560720 Rises=F Damp=F
 DIIS: error= 1.27D-03 at cycle  30 NSaved=   9.
 NSaved= 9 IEnMin= 9 EnMin= -1926.16725390710     IErMin= 9 ErrMin= 1.27D-03
 ErrMax= 1.27D-03  0.00D+00 EMaxC= 1.00D+00 BMatC= 4.04D-04 BMatP= 2.56D-04
 IDIUse=1 WtCom= 1.00D+00 WtEn= 0.00D+00
 Coeff-Com:  0.787D+00 0.843D+00-0.423D+00-0.252D+01 0.138D+01-0.474D+00
 Coeff-Com: -0.133D+00-0.371D+00 0.191D+01
 Coeff:      0.787D+00 0.843D+00-0.423D+00-0.252D+01 0.138D+01-0.474D+00
 Coeff:     -0.133D+00-0.371D+00 0.191D+01
 Gap=     0.242 Goal=   None    Shift=    0.500
 Gap=     0.102 Goal=   None    Shift=    0.500
 GapD=    0.102 DampG=1.000 DampE=1.000 DampFc=1.0000 IDamp=-1.
 RMSDP=5.76D-05 MaxDP=3.57D-03 DE=-9.56D-05 OVMax= 1.69D-02

 Cycle  31  Pass 1  IDiag  1:
 E= -1926.16748724565     Delta-E=       -0.000233338550 Rises=F Damp=F
 DIIS: error= 1.02D-03 at cycle  31 NSaved=  10.
 NSaved=10 IEnMin=10 EnMin= -1926.16748724565     IErMin=10 ErrMin= 1.02D-03
 ErrMax= 1.02D-03  0.00D+00 EMaxC= 1.00D+00 BMatC= 1.17D-04 BMatP= 2.56D-04
 IDIUse=1 WtCom= 1.00D+00 WtEn= 0.00D+00
 Coeff-Com:  0.364D+00 0.256D+01-0.250D+01-0.821D+00 0.222D+00-0.343D+00
 Coeff-Com: -0.252D+00 0.191D-01 0.429D+00 0.132D+01
 Coeff:      0.364D+00 0.256D+01-0.250D+01-0.821D+00 0.222D+00-0.343D+00
 Coeff:     -0.252D+00 0.191D-01 0.429D+00 0.132D+01
 Gap=     0.236 Goal=   None    Shift=    0.500
 Gap=     0.105 Goal=   None    Shift=    0.500
 GapD=    0.105 DampG=1.000 DampE=1.000 DampFc=1.0000 IDamp=-1.
 RMSDP=8.00D-05 MaxDP=6.03D-03 DE=-2.33D-04 OVMax= 2.48D-02

 Cycle  32  Pass 1  IDiag  1:
 E= -1926.16763006509     Delta-E=       -0.000142819443 Rises=F Damp=F
 DIIS: error= 1.03D-03 at cycle  32 NSaved=  11.
 NSaved=11 IEnMin=11 EnMin= -1926.16763006509     IErMin=10 ErrMin= 1.02D-03
 ErrMax= 1.03D-03  0.00D+00 EMaxC= 1.00D+00 BMatC= 2.51D-04 BMatP= 1.17D-04
 IDIUse=1 WtCom= 1.00D+00 WtEn= 0.00D+00
 Coeff-Com: -0.276D+00 0.262D+01-0.249D+01 0.296D+00-0.181D+00-0.111D+00
 Coeff-Com: -0.522D+00 0.630D+00-0.314D+00-0.412D-01 0.139D+01
 Coeff:     -0.276D+00 0.262D+01-0.249D+01 0.296D+00-0.181D+00-0.111D+00
 Coeff:     -0.522D+00 0.630D+00-0.314D+00-0.412D-01 0.139D+01
 Gap=     0.233 Goal=   None    Shift=    0.500
 Gap=     0.110 Goal=   None    Shift=    0.500
 GapD=    0.110 DampG=1.000 DampE=1.000 DampFc=1.0000 IDamp=-1.
 RMSDP=7.19D-05 MaxDP=5.33D-03 DE=-1.43D-04 OVMax= 2.25D-02

 >>>>>>>>>> Convergence criterion not met.
 SCF Done:  E(ULC-wHPBE) =  -1926.16763007     A.U. after   33 cycles
            NFock= 32  Conv=0.72D-04     -V/T= 2.0032
 <Sx>= 0.0000 <Sy>= 0.0000 <Sz>= 0.5000 <S**2>= 0.7632 S= 0.5066
 <L.S>= 0.000000000000E+00
 KE= 1.919970643955D+03 PE=-1.015303113327D+04 EE= 3.479646579171D+03
 Annihilation of the first spin contaminant:
 S**2 before annihilation     0.7632,   after     0.7501
 Leave Link  502 at Mon Jan 18 08:40:53 2021, MaxMem=  4026531840 cpu:           16018.7 elap:            2007.6
 (Enter /opt/ohpc/pub/libs/gaussian/g16-A.03/sandybridge/g16/l508.exe)
 Integral symmetry usage will be decided dynamically.
 Tight linear equation convergence will be used.
 ULC-wHPBE wavefunction.
 Quadratic Convergence SCF Method.
 Line search only if initial step raises energy.
 FoFJK:  IHMeth= 1 ICntrl=       0 DoSepK=T KAlg= 0 I1Cent=           0 FoldK=F
 IRaf=         1 NMat=       1 IRICut=       1 DoRegI=T DoRafI=F ISym2E= 1 IDoP0=0 IntGTp=1.
 FoFCou: FMM=F IPFlag=           0 FMFlag=      100000 FMFlg1=           0
         NFxFlg=           0 DoJE=T BraDBF=F KetDBF=F FulRan=T
         wScrn=  0.000000 ICntrl=       500 IOpCl=  0 I1Cent=           0 NGrid=           0
         NMat0=    1 NMatS0=      1 NMatT0=    0 NMatD0=    1 NMtDS0=    0 NMtDT0=    0
 Petite list used in FoFCou.
 Iteration   1 EE= -1926.16771644699                                    Grad=1.463D-02 Max rot=    0.2605 deg.
 Gradient too large for Newton-Raphson -- use scaled steepest descent instead.
     ILin= 1 X=0.000D+00 Y=-1.926167716447D+03 DE= 0.00D+00 F= -3.58D-04
     ILin= 2 X=3.000D-01 Y=-1.926167803662D+03 DE=-8.72D-05 F= -2.24D-04
     ILin= 3 X=6.000D-01 Y=-1.926167850663D+03 DE=-1.34D-04 F= -8.97D-05
     ILin= 4 X=1.200D+00 Y=-1.926167824210D+03 DE=-1.08D-04 F=  1.78D-04
     An  expanding polynomial of degree  4 produced  0.8011
 Iteration   2 EE= -1926.16785967890     Delta-E=       -0.000143231909 Grad=5.634D-03 Max rot=    0.1566 deg.
 QCNR:  CnvC1=5.63D-08 CnvC2=5.63D-07
 LinEq1:  Iter=  0 NonCon=     1 RMS=7.61D-05 Max=2.53D-02 NDo=     1
 AX will form     1 AO Fock derivatives at one time.
 LinEq1:  Iter=  1 NonCon=     1 RMS=2.97D-05 Max=2.53D-03 NDo=     1
 LinEq1:  Iter=  2 NonCon=     1 RMS=2.83D-05 Max=2.38D-03 NDo=     1
 LinEq1:  Iter=  3 NonCon=     1 RMS=1.67D-05 Max=1.39D-03 NDo=     1
 LinEq1:  Iter=  4 NonCon=     1 RMS=1.04D-05 Max=8.37D-04 NDo=     1
 LinEq1:  Iter=  5 NonCon=     1 RMS=7.00D-06 Max=4.35D-04 NDo=     1
 LinEq1:  Iter=  6 NonCon=     1 RMS=4.49D-06 Max=2.99D-04 NDo=     1
 LinEq1:  Iter=  7 NonCon=     1 RMS=3.02D-06 Max=1.78D-04 NDo=     1
 LinEq1:  Iter=  8 NonCon=     1 RMS=2.29D-06 Max=1.42D-04 NDo=     1
 LinEq1:  Iter=  9 NonCon=     1 RMS=1.14D-06 Max=8.02D-05 NDo=     1
 LinEq1:  Iter= 10 NonCon=     1 RMS=7.51D-07 Max=5.27D-05 NDo=     1
 LinEq1:  Iter= 11 NonCon=     1 RMS=4.54D-07 Max=2.89D-05 NDo=     1
 LinEq1:  Iter= 12 NonCon=     1 RMS=2.49D-07 Max=1.28D-05 NDo=     1
 LinEq1:  Iter= 13 NonCon=     1 RMS=1.63D-07 Max=7.51D-06 NDo=     1
 LinEq1:  Iter= 14 NonCon=     1 RMS=1.09D-07 Max=5.86D-06 NDo=     1
 LinEq1:  Iter= 15 NonCon=     1 RMS=7.18D-08 Max=3.41D-06 NDo=     1
 LinEq1:  Iter= 16 NonCon=     1 RMS=4.48D-08 Max=3.52D-06 NDo=     1
 LinEq1:  Iter= 17 NonCon=     1 RMS=2.26D-08 Max=1.16D-06 NDo=     1
 LinEq1:  Iter= 18 NonCon=     1 RMS=1.29D-08 Max=8.78D-07 NDo=     1
 LinEq1:  Iter= 19 NonCon=     0 RMS=8.75D-09 Max=4.70D-07 NDo=     1
 Linear equations converged to 5.634D-08 5.634D-07 after    19 iterations.
 Angle between quadratic step and gradient=  59.21 degrees.
     ILin= 1 X=0.000D+00 Y=-1.926167859679D+03 DE= 0.00D+00 F= -1.08D-03
     ILin= 2 X=1.000D+00 Y=-1.926168350461D+03 DE=-4.91D-04
 Iteration   3 EE= -1926.16835046050     Delta-E=       -0.000490781598 Grad=9.102D-03 Max rot=    0.0520 deg.
 QCNR:  CnvC1=9.10D-08 CnvC2=9.10D-07
 LinEq1:  Iter=  0 NonCon=     1 RMS=4.93D-05 Max=4.82D-03 NDo=     1
 LinEq1:  Iter=  1 NonCon=     1 RMS=2.67D-05 Max=2.23D-03 NDo=     1
 LinEq1:  Iter=  2 NonCon=     1 RMS=2.01D-05 Max=2.15D-03 NDo=     1
 LinEq1:  Iter=  3 NonCon=     1 RMS=1.40D-05 Max=1.82D-03 NDo=     1
 LinEq1:  Iter=  4 NonCon=     1 RMS=1.01D-05 Max=1.34D-03 NDo=     1
 LinEq1:  Iter=  5 NonCon=     1 RMS=5.90D-06 Max=9.22D-04 NDo=     1
 LinEq1:  Iter=  6 NonCon=     1 RMS=4.84D-06 Max=7.09D-04 NDo=     1
 LinEq1:  Iter=  7 NonCon=     1 RMS=3.35D-06 Max=4.61D-04 NDo=     1
 LinEq1:  Iter=  8 NonCon=     1 RMS=1.98D-06 Max=1.78D-04 NDo=     1
 LinEq1:  Iter=  9 NonCon=     1 RMS=1.36D-06 Max=7.93D-05 NDo=     1
 LinEq1:  Iter= 10 NonCon=     1 RMS=7.22D-07 Max=4.45D-05 NDo=     1
 LinEq1:  Iter= 11 NonCon=     1 RMS=5.69D-07 Max=3.30D-05 NDo=     1
 LinEq1:  Iter= 12 NonCon=     1 RMS=3.61D-07 Max=1.93D-05 NDo=     1
 LinEq1:  Iter= 13 NonCon=     1 RMS=2.30D-07 Max=1.39D-05 NDo=     1
 LinEq1:  Iter= 14 NonCon=     1 RMS=1.49D-07 Max=7.08D-06 NDo=     1
 LinEq1:  Iter= 15 NonCon=     1 RMS=9.03D-08 Max=4.48D-06 NDo=     1
 LinEq1:  Iter= 16 NonCon=     1 RMS=5.00D-08 Max=2.92D-06 NDo=     1
 LinEq1:  Iter= 17 NonCon=     1 RMS=3.23D-08 Max=2.00D-06 NDo=     1
 LinEq1:  Iter= 18 NonCon=     1 RMS=1.81D-08 Max=1.02D-06 NDo=     1
 LinEq1:  Iter= 19 NonCon=     0 RMS=9.91D-09 Max=4.83D-07 NDo=     1
 Linear equations converged to 9.102D-08 9.102D-07 after    19 iterations.
 Angle between quadratic step and gradient=  49.44 degrees.
     ILin= 1 X=0.000D+00 Y=-1.926168350461D+03 DE= 0.00D+00 F= -1.14D-04
     ILin= 2 X=1.000D+00 Y=-1.926168407492D+03 DE=-5.70D-05
 Iteration   4 EE= -1926.16840749220     Delta-E=       -0.000057031695 Grad=2.574D-05 Max rot=    0.0011 deg.
 Rotation gradient small -- convergence achieved.
 SCF Done:  E(ULC-wHPBE) =  -1926.16840749     a.u. after    4 cycles
            Convg  =    0.2574D-04                    45 Fock formations.
              S**2 =  0.7612                  -V/T =  2.0032
 <Sx>= 0.0000 <Sy>= 0.0000 <Sz>= 0.5000 <S**2>= 0.7612 S= 0.5056
 <L.S>= 0.000000000000E+00
 Annihilation of the first spin contaminant:
 S**2 before annihilation     0.7612,   after     0.7501
 Leave Link  508 at Mon Jan 18 09:24:02 2021, MaxMem=  4026531840 cpu:           20627.5 elap:            2588.6
 (Enter /opt/ohpc/pub/libs/gaussian/g16-A.03/sandybridge/g16/l601.exe)
 Copying SCF densities to generalized density rwf, IOpCl= 1 IROHF=0.

 **********************************************************************

            Population analysis using the SCF density.

 **********************************************************************

 Orbital symmetries:
 Alpha Orbitals:
       Occupied  (A) (A) (A) (A) (A) (A) (A) (A) (A) (A) (A) (A)
                 (A) (A) (A) (A) (A) (A) (A) (A) (A) (A) (A) (A)
                 (A) (A) (A) (A) (A) (A) (A) (A) (A) (A) (A) (A)
                 (A) (A) (A) (A) (A) (A) (A) (A) (A) (A) (A) (A)
                 (A) (A) (A) (A) (A) (A) (A) (A) (A) (A) (A) (A)
                 (A) (A) (A) (A) (A) (A) (A) (A) (A) (A) (A) (A)
                 (A) (A) (A) (A) (A) (A) (A) (A) (A) (A) (A) (A)
                 (A) (A) (A) (A) (A) (A) (A) (A) (A) (A) (A) (A)
                 (A) (A) (A) (A) (A) (A) (A) (A) (A) (A) (A) (A)
                 (A)
       Virtual   (A) (A) (A) (A) (A) (A) (A) (A) (A) (A) (A) (A)
                 (A) (A) (A) (A) (A) (A) (A) (A) (A) (A) (A) (A)
                 (A) (A) (A) (A) (A) (A) (A) (A) (A) (A) (A) (A)
                 (A) (A) (A) (A) (A) (A) (A) (A) (A) (A) (A) (A)
                 (A) (A) (A) (A) (A) (A) (A) (A) (A) (A) (A) (A)
                 (A) (A) (A) (A) (A) (A) (A) (A) (A) (A) (A) (A)
                 (A) (A) (A) (A) (A) (A) (A) (A) (A) (A) (A) (A)
                 (A) (A) (A) (A) (A) (A) (A) (A) (A) (A) (A) (A)
                 (A) (A) (A) (A) (A) (A) (A) (A) (A) (A) (A) (A)
                 (A) (A) (A) (A) (A) (A) (A) (A) (A) (A) (A) (A)
                 (A) (A) (A) (A) (A) (A) (A) (A) (A) (A) (A) (A)
                 (A) (A) (A) (A) (A) (A) (A) (A) (A) (A) (A) (A)
                 (A) (A) (A) (A) (A) (A) (A) (A) (A) (A) (A) (A)
                 (A) (A) (A) (A) (A) (A) (A) (A) (A) (A) (A) (A)
                 (A) (A) (A) (A) (A) (A) (A) (A) (A) (A) (A) (A)
                 (A) (A) (A) (A) (A) (A) (A) (A) (A) (A) (A) (A)
                 (A) (A) (A) (A) (A) (A) (A) (A) (A) (A) (A) (A)
                 (A) (A) (A) (A) (A) (A) (A) (A) (A) (A) (A) (A)
[...]
    19   Atom        0.000471      0.000940     -0.001411
    20   Atom        0.000327     -0.000116     -0.000211
    21   Atom        0.000387     -0.000180     -0.000207
    22   Atom        0.000245     -0.000150     -0.000095
    23   Atom       -0.001559      0.014591     -0.013033
    24   Atom       -0.403666     -0.454582      0.858248
    25   Atom       -0.011707     -0.008014      0.019721
    26   Atom        0.010954     -0.007519     -0.003435
    27   Atom       -0.022322      0.031728     -0.009406
    28   Atom        0.009127     -0.001553     -0.007573
    29   Atom        0.003492      0.006896     -0.010388
    30   Atom       -0.036585     -0.011728      0.048313
    31   Atom        0.001318     -0.000550     -0.000768
    32   Atom        0.001898     -0.001216     -0.000682
    33   Atom        0.000767     -0.000349     -0.000418
    34   Atom        0.000242      0.000118     -0.000359
    35   Atom       -0.011556      0.000280      0.011276
    36   Atom        0.074709     -0.041030     -0.033679
    37   Atom        0.047801     -0.016614     -0.031187
    38   Atom       -0.000611      0.004412     -0.003801
    39   Atom       -0.008105      0.011044     -0.002939
    40   Atom        0.036784     -0.041255      0.004471
    41   Atom       -0.000837     -0.001463      0.002300
    42   Atom       -0.000905     -0.001365      0.002271
    43   Atom       -0.001129      0.000342      0.000787
    44   Atom       -0.001347      0.000684      0.000663
    45   Atom        0.085782     -0.076651     -0.009131
    46   Atom        0.000815     -0.003436      0.002621
    47   Atom       -0.058270     -0.009063      0.067333
    48   Atom       -0.004126      0.002950      0.001177
 --------------------------------------------------------
                        XY            XZ            YZ
 --------------------------------------------------------
     1   Atom        0.000765     -0.000942     -0.001769
     2   Atom       -0.001564      0.002028     -0.000450
     3   Atom        0.005771     -0.040800     -0.033305
     4   Atom        0.004787     -0.003893     -0.002799
     5   Atom       -0.004452      0.001424      0.018098
     6   Atom       -0.008774      0.008732     -0.097731
     7   Atom        0.000378     -0.000088      0.000045
     8   Atom       -0.000232      0.001471      0.001385
     9   Atom        0.000613      0.000622      0.000806
    10   Atom        0.010515     -0.007702     -0.068473
    11   Atom       -0.000049      0.000079      0.024096
    12   Atom       -0.003153      0.000545     -0.096792
    13   Atom       -0.006323      0.001496      0.002201
    14   Atom        0.001104      0.000049      0.004584
    15   Atom        0.000206      0.000081      0.001742
    16   Atom        0.004755      0.003797      0.003677
    17   Atom        0.000724     -0.000532     -0.003430
    18   Atom       -0.000349     -0.000046      0.000084
    19   Atom       -0.001423     -0.000254      0.000537
    20   Atom       -0.000098      0.000072      0.000020
    21   Atom        0.000237      0.000275      0.000189
    22   Atom        0.000370      0.000304      0.000071
    23   Atom        0.012505     -0.001248     -0.006399
    24   Atom        0.010179      0.265052      0.050863
    25   Atom        0.009303     -0.005034      0.008248
    26   Atom       -0.037328     -0.039339      0.035050
    27   Atom       -0.041532     -0.029478      0.047959
    28   Atom        0.003329      0.000779     -0.011107
    29   Atom        0.004968      0.007186     -0.006355
    30   Atom       -0.020340     -0.038028      0.062202
    31   Atom       -0.002143      0.003161     -0.003306
    32   Atom       -0.001954      0.003904     -0.002507
    33   Atom        0.000515      0.001323     -0.001328
    34   Atom        0.000569      0.001054     -0.001661
    35   Atom       -0.000762      0.016987      0.008248
    36   Atom        0.012484      0.030968      0.006439
    37   Atom        0.042089      0.025998      0.009685
    38   Atom       -0.007289     -0.007172     -0.005095
    39   Atom       -0.000538     -0.011926     -0.000288
    40   Atom        0.022507      0.071667      0.019170
    41   Atom        0.000601     -0.004381     -0.002378
    42   Atom        0.000386     -0.004459     -0.001099
    43   Atom       -0.000787     -0.001691     -0.000128
    44   Atom       -0.000532     -0.001433     -0.000600
    45   Atom        0.046178      0.117825      0.033053
    46   Atom       -0.002093     -0.004653      0.003241
    47   Atom       -0.050027     -0.071087      0.109985
    48   Atom       -0.002261      0.001061     -0.005136
 --------------------------------------------------------


 ---------------------------------------------------------------------------------
              Anisotropic Spin Dipole Couplings in Principal Axis System
 ---------------------------------------------------------------------------------

       Atom             a.u.   MegaHertz   Gauss  10(-4) cm-1        Axes

              Baa    -0.0017    -0.234    -0.083    -0.078 -0.0236  0.7948  0.6065
     1 C(13)  Bbb    -0.0007    -0.098    -0.035    -0.033  0.9084 -0.2363  0.3450
              Bcc     0.0025     0.331     0.118     0.111 -0.4175 -0.5590  0.7164
 
              Baa    -0.0039    -0.525    -0.187    -0.175  0.5169  0.8519 -0.0839
     2 C(13)  Bbb    -0.0009    -0.126    -0.045    -0.042  0.7794 -0.5089 -0.3655
              Bcc     0.0048     0.651     0.232     0.217  0.3540 -0.1235  0.9270
 
              Baa    -0.0671    -2.750    -0.981    -0.917  0.9358  0.2387  0.2595
     3 S(33)  Bbb    -0.0594    -2.434    -0.868    -0.812 -0.2765  0.9534  0.1204
              Bcc     0.1264     5.184     1.850     1.729 -0.2187 -0.1844  0.9582
 
              Baa    -0.0054    -0.722    -0.258    -0.241  0.7615 -0.6170  0.1983
     4 C(13)  Bbb    -0.0023    -0.306    -0.109    -0.102  0.2431  0.5556  0.7951
              Bcc     0.0077     1.029     0.367     0.343  0.6008  0.5573 -0.5731
 
              Baa    -0.0273    -3.659    -1.306    -1.221 -0.0874 -0.5292  0.8440
     5 C(13)  Bbb     0.0106     1.423     0.508     0.475  0.6902  0.5788  0.4343
              Bcc     0.0167     2.236     0.798     0.746  0.7184 -0.6205 -0.3146
 
              Baa    -0.0843   -11.312    -4.037    -3.773  0.3391  0.8427  0.4182
     6 C(13)  Bbb    -0.0725    -9.731    -3.472    -3.246  0.9393 -0.2791 -0.1993
              Bcc     0.1568    21.043     7.509     7.019  0.0512 -0.4604  0.8862
 
              Baa    -0.0008    -0.109    -0.039    -0.036  0.0800 -0.0784  0.9937
     7 C(13)  Bbb    -0.0001    -0.007    -0.002    -0.002 -0.4584  0.8824  0.1065
              Bcc     0.0009     0.115     0.041     0.038  0.8852  0.4640 -0.0346
 
              Baa    -0.0024    -0.322    -0.115    -0.107 -0.3567 -0.5559  0.7509
     8 C(13)  Bbb     0.0004     0.051     0.018     0.017 -0.4938  0.7945  0.3536
              Bcc     0.0020     0.271     0.097     0.091  0.7931  0.2447  0.5578
 
              Baa    -0.0011    -0.606    -0.216    -0.202 -0.0616 -0.6181  0.7837
     9 H(1)   Bbb    -0.0003    -0.161    -0.058    -0.054  0.6789 -0.6015 -0.4211
              Bcc     0.0014     0.767     0.274     0.256  0.7317  0.5061  0.4567
 
              Baa    -0.0483    -6.480    -2.312    -2.162 -0.5250  0.6489  0.5507
    10 C(13)  Bbb    -0.0432    -5.793    -2.067    -1.932  0.8458  0.3258  0.4225
              Bcc     0.0915    12.274     4.379     4.094 -0.0947 -0.6876  0.7199
 
              Baa    -0.0398    -5.345    -1.907    -1.783 -0.0015 -0.4734  0.8808
    11 C(13)  Bbb     0.0180     2.409     0.860     0.804  0.0015  0.8808  0.4734
              Bcc     0.0219     2.936     1.048     0.979  1.0000 -0.0020  0.0006
 
              Baa    -0.0675    -9.056    -3.231    -3.021  0.8950  0.3309  0.2992
    12 C(13)  Bbb    -0.0627    -8.415    -3.003    -2.807 -0.4459  0.6440  0.6216
              Bcc     0.1302    17.470     6.234     5.827  0.0131 -0.6898  0.7239
 
              Baa    -0.0168    -2.250    -0.803    -0.751  0.2797  0.9552 -0.0965
    13 C(13)  Bbb     0.0069     0.929     0.331     0.310  0.9095 -0.2958 -0.2921
              Bcc     0.0098     1.322     0.472     0.441  0.3075  0.0061  0.9515
 
              Baa    -0.0042    -2.243    -0.800    -0.748  0.2812 -0.5124  0.8114
    14 H(1)   Bbb    -0.0023    -1.221    -0.436    -0.407  0.9533  0.0522 -0.2974
              Bcc     0.0065     3.465     1.236     1.156  0.1101  0.8571  0.5032
 
              Baa    -0.0028    -1.483    -0.529    -0.495  0.0113 -0.5772  0.8165
    15 H(1)   Bbb     0.0009     0.465     0.166     0.155 -0.2131  0.7964  0.5659
              Bcc     0.0019     1.018     0.363     0.339  0.9770  0.1805  0.1140
 
              Baa    -0.0050    -2.656    -0.948    -0.886 -0.6001 -0.0125  0.7998
    16 H(1)   Bbb    -0.0035    -1.886    -0.673    -0.629 -0.5519  0.7302 -0.4027
              Bcc     0.0085     4.542     1.621     1.515  0.5790  0.6831  0.4451
 
              Baa    -0.0028    -0.377    -0.134    -0.126 -0.5258  0.7391  0.4210
    17 C(13)  Bbb    -0.0021    -0.285    -0.102    -0.095  0.8424  0.3842  0.3777
              Bcc     0.0049     0.661     0.236     0.221 -0.1175 -0.5533  0.8247
 
              Baa    -0.0004    -0.216    -0.077    -0.072 -0.2002 -0.6409  0.7411
    18 H(1)   Bbb    -0.0003    -0.150    -0.054    -0.050  0.3216  0.6715  0.6676
              Bcc     0.0007     0.366     0.131     0.122  0.9255 -0.3720 -0.0716
 
              Baa    -0.0015    -0.817    -0.291    -0.272 -0.0457 -0.2372  0.9704
    19 H(1)   Bbb    -0.0007    -0.378    -0.135    -0.126  0.7727  0.6072  0.1848
              Bcc     0.0022     1.194     0.426     0.398 -0.6331  0.7583  0.1556
 
              Baa    -0.0002    -0.123    -0.044    -0.041 -0.1753 -0.3124  0.9336
    20 H(1)   Bbb    -0.0001    -0.066    -0.024    -0.022  0.1475  0.9293  0.3387
              Bcc     0.0004     0.190     0.068     0.063  0.9734 -0.1971  0.1169
 
              Baa    -0.0004    -0.206    -0.074    -0.069 -0.0919 -0.6121  0.7854
    21 H(1)   Bbb    -0.0002    -0.115    -0.041    -0.039 -0.5033  0.7092  0.4937
              Bcc     0.0006     0.322     0.115     0.107  0.8592  0.3499  0.3732
 
              Baa    -0.0004    -0.220    -0.079    -0.074 -0.5818  0.7103  0.3962
    22 H(1)   Bbb    -0.0002    -0.098    -0.035    -0.033 -0.1105 -0.5516  0.8267
              Bcc     0.0006     0.318     0.114     0.106  0.8058  0.4372  0.3995
 
              Baa    -0.0147    -0.603    -0.215    -0.201 -0.1789  0.2822  0.9425
    23 S(33)  Bbb    -0.0078    -0.319    -0.114    -0.106  0.8690 -0.4039  0.2859
              Bcc     0.0225     0.922     0.329     0.308  0.4614  0.8702 -0.1729
 
              Baa    -0.4571   -17.629    -6.290    -5.880  0.9713  0.1274 -0.2007
    24 N(14)  Bbb    -0.4565   -17.608    -6.283    -5.873 -0.1324  0.9911 -0.0116
              Bcc     0.9136    35.237    12.573    11.754  0.1974  0.0379  0.9796
 
              Baa    -0.0214    -2.871    -1.024    -0.958  0.7327 -0.6444  0.2190
    25 C(13)  Bbb    -0.0008    -0.105    -0.037    -0.035  0.6761  0.7259 -0.1260
              Bcc     0.0222     2.976     1.062     0.993 -0.0777  0.2404  0.9676
 
              Baa    -0.0406    -5.447    -1.943    -1.817  0.0162  0.7358 -0.6770
    26 C(13)  Bbb    -0.0347    -4.661    -1.663    -1.555  0.7646  0.4272  0.4826
              Bcc     0.0753    10.107     3.607     3.371  0.6443 -0.5254 -0.5557
 
              Baa    -0.0465    -6.237    -2.225    -2.080  0.8710  0.1830  0.4558
    27 C(13)  Bbb    -0.0406    -5.443    -1.942    -1.816 -0.2514 -0.6312  0.7338
              Bcc     0.0870    11.680     4.168     3.896 -0.4220  0.7537  0.5038
 
              Baa    -0.0163    -2.194    -0.783    -0.732 -0.1040  0.6120  0.7840
    28 C(13)  Bbb     0.0057     0.764     0.272     0.255 -0.4993  0.6496 -0.5733
              Bcc     0.0107     1.430     0.510     0.477  0.8602  0.4511 -0.2380
 
              Baa    -0.0161    -2.160    -0.771    -0.721 -0.3970  0.3232  0.8590
    29 C(13)  Bbb     0.0056     0.748     0.267     0.249  0.7569 -0.4141  0.5056
              Bcc     0.0105     1.412     0.504     0.471  0.5191  0.8509 -0.0802
 
              Baa    -0.0533    -7.152    -2.552    -2.386  0.6321 -0.5327  0.5627
    30 C(13)  Bbb    -0.0475    -6.379    -2.276    -2.128  0.7149  0.6811 -0.1583
              Bcc     0.1008    13.531     4.828     4.513 -0.2989  0.5024  0.8114
 
              Baa    -0.0041    -2.212    -0.789    -0.738 -0.2217  0.5850  0.7801
    31 H(1)   Bbb    -0.0017    -0.886    -0.316    -0.295  0.7319  0.6285 -0.2633
              Bcc     0.0058     3.098     1.105     1.033  0.6444 -0.5125  0.5675
 
              Baa    -0.0040    -2.119    -0.756    -0.707 -0.3803  0.4603  0.8022
    32 H(1)   Bbb    -0.0021    -1.094    -0.390    -0.365  0.5761  0.7964 -0.1839
              Bcc     0.0060     3.213     1.146     1.072  0.7236 -0.3921  0.5680
 
              Baa    -0.0023    -1.221    -0.436    -0.407 -0.4029  0.5874  0.7019
    33 H(1)   Bbb     0.0006     0.322     0.115     0.107  0.5027  0.7829 -0.3666
              Bcc     0.0017     0.899     0.321     0.300  0.7648 -0.2051  0.6107
 
              Baa    -0.0023    -1.245    -0.444    -0.415 -0.4155  0.5744  0.7052
    34 H(1)   Bbb     0.0007     0.377     0.135     0.126  0.8733  0.4689  0.1326
              Bcc     0.0016     0.868     0.310     0.289  0.2545 -0.6710  0.6965
 
              Baa    -0.0216    -2.899    -1.035    -0.967  0.8449  0.2142 -0.4902
    35 C(13)  Bbb    -0.0009    -0.124    -0.044    -0.041 -0.3317  0.9287 -0.1660
              Bcc     0.0225     3.023     1.079     1.008  0.4197  0.3028  0.8557
 
              Baa    -0.0452    -6.070    -2.166    -2.025  0.0954  0.7387 -0.6672
    36 C(13)  Bbb    -0.0392    -5.260    -1.877    -1.755 -0.2629  0.6652  0.6989
              Bcc     0.0844    11.330     4.043     3.779  0.9601  0.1088  0.2577
 
              Baa    -0.0406    -5.453    -1.946    -1.819 -0.4540  0.4975  0.7392
    37 C(13)  Bbb    -0.0351    -4.708    -1.680    -1.570 -0.1884  0.7573 -0.6253
              Bcc     0.0757    10.161     3.626     3.389  0.8708  0.4232  0.2501
 
              Baa    -0.0137    -1.833    -0.654    -0.611  0.6077  0.4328  0.6658
    38 C(13)  Bbb     0.0040     0.543     0.194     0.181 -0.5408 -0.3883  0.7461
              Bcc     0.0096     1.290     0.460     0.430 -0.5815  0.8135  0.0019
 
              Baa    -0.0177    -2.380    -0.849    -0.794  0.7782  0.0208  0.6276
    39 C(13)  Bbb     0.0067     0.896     0.320     0.299 -0.6271 -0.0259  0.7785
              Bcc     0.0111     1.484     0.530     0.495 -0.0325  0.9994  0.0071
 
              Baa    -0.0530    -7.110    -2.537    -2.372 -0.5921 -0.1561  0.7906
    40 C(13)  Bbb    -0.0473    -6.345    -2.264    -2.116 -0.2572  0.9664 -0.0018
              Bcc     0.1003    13.454     4.801     4.488  0.7637  0.2044  0.6123
 
              Baa    -0.0043    -2.275    -0.812    -0.759  0.7099  0.3610  0.6047
    41 H(1)   Bbb    -0.0018    -0.973    -0.347    -0.324 -0.4646  0.8853  0.0169
              Bcc     0.0061     3.247     1.159     1.083 -0.5293 -0.2929  0.7963
 
              Baa    -0.0041    -2.182    -0.779    -0.728  0.8027  0.1217  0.5838
    42 H(1)   Bbb    -0.0015    -0.804    -0.287    -0.268 -0.1915  0.9797  0.0590
              Bcc     0.0056     2.986     1.066     0.996 -0.5648 -0.1592  0.8097
 
              Baa    -0.0023    -1.240    -0.442    -0.414  0.8411  0.2707  0.4683
    43 H(1)   Bbb     0.0005     0.262     0.093     0.087 -0.1264  0.9401 -0.3165
              Bcc     0.0018     0.978     0.349     0.326 -0.5260  0.2070  0.8249
 
              Baa    -0.0023    -1.218    -0.435    -0.406  0.8508  0.2464  0.4642
    44 H(1)   Bbb     0.0008     0.403     0.144     0.134 -0.3881  0.8901  0.2389
              Bcc     0.0015     0.815     0.291     0.272 -0.3543 -0.3835  0.8529
 
              Baa    -0.0905     6.552     2.338     2.185  0.2158  0.7552 -0.6189
    45 O(17)  Bbb    -0.0875     6.328     2.258     2.111 -0.5480  0.6183  0.5634
              Bcc     0.1780   -12.880    -4.596    -4.296  0.8082  0.2176  0.5473
 
              Baa    -0.0048    -2.585    -0.922    -0.862  0.0244  0.9225 -0.3853
    46 H(1)   Bbb    -0.0029    -1.561    -0.557    -0.521  0.8060  0.2099  0.5535
              Bcc     0.0078     4.146     1.479     1.383 -0.5915  0.3240  0.7384
 
              Baa    -0.0904     6.538     2.333     2.181  0.9300  0.0905  0.3561
    47 O(17)  Bbb    -0.0872     6.313     2.252     2.106  0.1243  0.8346 -0.5367
              Bcc     0.1776   -12.851    -4.586    -4.287 -0.3458  0.5434  0.7649
 
              Baa    -0.0049    -2.588    -0.924    -0.863  0.9194  0.3643  0.1485
    48 H(1)   Bbb    -0.0029    -1.555    -0.555    -0.519 -0.3391  0.5424  0.7687
              Bcc     0.0078     4.144     1.479     1.382 -0.1994  0.7571 -0.6222
 

 ---------------------------------------------------------------------------------

 No NMR shielding tensors so no spin-rotation constants.
 Leave Link  601 at Mon Jan 18 09:24:03 2021, MaxMem=  4026531840 cpu:               6.3 elap:               0.9
 (Enter /opt/ohpc/pub/libs/gaussian/g16-A.03/sandybridge/g16/l9999.exe)

 Test job not archived.
 1\1\GINC-CASCADEB025\SP\ULC-wHPBE\TZVP\C24H19N1O2S2(1+,2)\RDU230\18-Ja
 n-2021\0\\#P LC-wHPBE/TZVP iop(3/107=0156200000, 3/108=0156200000) scf
 =(conver=6,fermi,ndamp=35,noincfock,novaracc,vshift=500,xqc)\\H19 C24 
 S2 N1 O2\\1,2\C,0,-6.54463,-1.193879,0.12701\C,0,-5.283469,-0.647909,0
 .131523\S,0,-3.665919,-1.107322,1.042984\C,0,-4.996815,0.486583,-0.537
 83\C,0,-1.475687,0.036886,0.221747\C,0,-1.772288,-1.094442,0.892846\C,
 0,-7.517398,-0.549399,-0.618903\C,0,-5.951198,1.159916,-1.262339\H,0,-
 2.843406,1.345523,-1.332578\C,0,-0.186077,0.430997,-0.028463\C,0,-0.77
 363,-1.912541,1.366813\C,0,0.53691,-1.552052,1.124661\C,0,0.845585,-0.
 387156,0.425435\H,0,0.045427,1.33981,-0.567415\H,0,-0.986976,-2.816418
 ,1.923251\H,0,1.342687,-2.175375,1.48462\C,0,-7.223748,0.615229,-1.306
 247\H,0,-6.782458,-2.097666,0.673346\H,0,-3.815781,-2.43941,0.928305\H
 ,0,-8.517553,-0.958288,-0.663525\H,0,-5.730059,2.077989,-1.791552\H,0,
 -7.997253,1.105431,-1.881471\S,0,-3.166075,0.851646,-0.124057\N,0,2.18
 2887,-0.044483,0.184905\C,0,3.146505,-1.044921,-0.067172\C,0,4.392012,
 -0.989098,0.539344\C,0,2.878694,-2.090316,-0.930362\C,0,5.345494,-1.94
 6131,0.285899\C,0,3.822608,-3.066997,-1.170354\C,0,5.062274,-2.995295,
 -0.567641\H,0,4.612943,-0.17489,1.215121\H,0,1.913696,-2.145516,-1.414
 069\H,0,6.317156,-1.901598,0.755555\H,0,3.591387,-3.881585,-1.84538\C,
 0,2.575405,1.310294,0.123192\C,0,3.391681,1.763268,-0.894977\C,0,2.164
 04,2.211964,1.09371\C,0,3.796835,3.081396,-0.942072\C,0,2.544098,3.531
 176,1.038879\C,0,3.368807,3.972023,0.020733\H,0,3.723839,1.07184,-1.65
 6403\H,0,1.529535,1.868488,1.898614\H,0,4.442764,3.41523,-1.744528\H,0
 ,2.220724,4.234697,1.791974\O,0,3.726245,5.28132,0.019257\H,0,4.294203
 ,5.466041,-0.728132\O,0,6.032969,-3.920806,-0.776143\H,0,5.721078,-4.5
 93785,-1.380389\\Version=EM64L-G16RevA.03\State=2-A\HF=-1926.1684075\S
 2=0.761198\S2-1=0.\S2A=0.750111\RMSD=7.366e-08\Dipole=2.7793413,-0.563
 5395,-1.1928656\Quadrupole=28.930086,0.848032,-29.7781179,4.8217697,-5
 .4213295,-3.4607255\PG=C01 [X(C24H19N1O2S2)]\\@


 "TIGER, TIGER BURNING BRIGHT
 IN THE FOREST OF THE NIGHT.
 WHAT IMMORTAL HAND OR EYE
 CAN FRAME THY FEARFUL SYMMETRYE?"
                     - WILLIAM BLAKE
 Job cpu time:       0 days 10 hours 12 minutes  4.7 seconds.
 Elapsed time:       0 days  1 hours 16 minutes 46.5 seconds.
 File lengths (MBytes):  RWF=    524 Int=      0 D2E=      0 Chk=     36 Scr=      8
 Normal termination of Gaussian 16 at Mon Jan 18 09:24:03 2021.
