 Entering Gaussian System, Link 0=g16
 Input=mol_ta_ma_half_tune_c1.gjf
 Output=mol_ta_ma_half_tune_c1.log
 Initial command:
 /opt/ohpc/pub/libs/gaussian/g16-A.03/sandybridge/g16/l1.exe "/mnt/gpfs2_4m/scratch/rdu230/ondemand/projects/init_structures/wtuning/mol_ta_ma_half/tuning_mol_ta_ma_half_ocycle0/Gau-130765.inp" -scrdir="/mnt/gpfs2_4m/scratch/rdu230/ondemand/projects/init_structures/wtuning/mol_ta_ma_half/tuning_mol_ta_ma_half_ocycle0/"
 Entering Link 1 = /opt/ohpc/pub/libs/gaussian/g16-A.03/sandybridge/g16/l1.exe PID=    130766.
  
 Copyright (c) 1988,1990,1992,1993,1995,1998,2003,2009,2016,
            Gaussian, Inc.  All Rights Reserved.
  
 This is part of the Gaussian(R) 16 program.  It is based on
 the Gaussian(R) 09 system (copyright 2009, Gaussian, Inc.),
 the Gaussian(R) 03 system (copyright 2003, Gaussian, Inc.),
 the Gaussian(R) 98 system (copyright 1998, Gaussian, Inc.),
 the Gaussian(R) 94 system (copyright 1995, Gaussian, Inc.),
 the Gaussian 92(TM) system (copyright 1992, Gaussian, Inc.),
 the Gaussian 90(TM) system (copyright 1990, Gaussian, Inc.),
 the Gaussian 88(TM) system (copyright 1988, Gaussian, Inc.),
 the Gaussian 86(TM) system (copyright 1986, Carnegie Mellon
 University), and the Gaussian 82(TM) system (copyright 1983,
 Carnegie Mellon University). Gaussian is a federally registered
 trademark of Gaussian, Inc.
  
 This software contains proprietary and confidential information,
 including trade secrets, belonging to Gaussian, Inc.
  
 This software is provided under written license and may be
 used, copied, transmitted, or stored only in accord with that
 written license.
  
 The following legend is applicable only to US Government
 contracts under FAR:
  
                    RESTRICTED RIGHTS LEGEND
  
 Use, reproduction and disclosure by the US Government is
 subject to restrictions as set forth in subparagraphs (a)
 and (c) of the Commercial Computer Software - Restricted
 Rights clause in FAR 52.227-19.
  
 Gaussian, Inc.
 340 Quinnipiac St., Bldg. 40, Wallingford CT 06492
  
  
 ---------------------------------------------------------------
 Warning -- This program may not be used in any manner that
 competes with the business of Gaussian, Inc. or will provide
 assistance to any competitor of Gaussian, Inc.  The licensee
 of this program is prohibited from giving any competitor of
 Gaussian, Inc. access to this program.  By using this program,
 the user acknowledges that Gaussian, Inc. is engaged in the
 business of creating and licensing software in the field of
 computational chemistry and represents and warrants to the
 licensee that it is not a competitor of Gaussian, Inc. and that
 it will not use this program in any manner prohibited above.
 ---------------------------------------------------------------
  

 Cite this work as:
 Gaussian 16, Revision A.03,
 M. J. Frisch, G. W. Trucks, H. B. Schlegel, G. E. Scuseria, 
 M. A. Robb, J. R. Cheeseman, G. Scalmani, V. Barone, 
 G. A. Petersson, H. Nakatsuji, X. Li, M. Caricato, A. V. Marenich, 
 J. Bloino, B. G. Janesko, R. Gomperts, B. Mennucci, H. P. Hratchian, 
 J. V. Ortiz, A. F. Izmaylov, J. L. Sonnenberg, D. Williams-Young, 
 F. Ding, F. Lipparini, F. Egidi, J. Goings, B. Peng, A. Petrone, 
 T. Henderson, D. Ranasinghe, V. G. Zakrzewski, J. Gao, N. Rega, 
 G. Zheng, W. Liang, M. Hada, M. Ehara, K. Toyota, R. Fukuda, 
 J. Hasegawa, M. Ishida, T. Nakajima, Y. Honda, O. Kitao, H. Nakai, 
 T. Vreven, K. Throssell, J. A. Montgomery, Jr., J. E. Peralta, 
 F. Ogliaro, M. J. Bearpark, J. J. Heyd, E. N. Brothers, K. N. Kudin, 
 V. N. Staroverov, T. A. Keith, R. Kobayashi, J. Normand, 
 K. Raghavachari, A. P. Rendell, J. C. Burant, S. S. Iyengar, 
 J. Tomasi, M. Cossi, J. M. Millam, M. Klene, C. Adamo, R. Cammi, 
 J. W. Ochterski, R. L. Martin, K. Morokuma, O. Farkas, 
 J. B. Foresman, and D. J. Fox, Gaussian, Inc., Wallingford CT, 2016.
 
 ******************************************
 Gaussian 16:  EM64L-G16RevA.03 25-Dec-2016
                18-Jan-2021 
 ******************************************
 %mem=30GB
 %nproc=8
 Will use up to    8 processors via shared memory.
 ----------------------------------------------------------------------
 #P LC-wHPBE/TZVP iop(3/107=0328100000, 3/108=0328100000) scf=(conver=6
 ,fermi,ndamp=35,noincfock,novaracc,vshift=500,xqc)
 ----------------------------------------------------------------------
 1/38=1,172=1/1;
 2/12=2,17=6,18=5,40=1/2;
 3/5=19,7=101,11=2,25=1,30=1,74=-71,107=328100000,108=328100000/1,2,3;
 4//1;
 5/5=100002,6=6,8=3,10=500,13=1,18=-1,22=13,38=1,93=35/2,8;
 6/7=2,8=2,9=2,10=2,28=1/1;
 99/5=1,9=1/99;
 Leave Link    1 at Mon Jan 18 06:47:28 2021, MaxMem=  4026531840 cpu:               2.0 elap:               0.3
 (Enter /opt/ohpc/pub/libs/gaussian/g16-A.03/sandybridge/g16/l101.exe)
 ----------------
 H19 C24 S2 N1 O2
 ----------------
 Symbolic Z-matrix:
 Charge =  1 Multiplicity = 2
 C                    -6.54463  -1.19388   0.12701 
 C                    -5.28347  -0.64791   0.13152 
 S                    -3.66592  -1.10732   1.04298 
 C                    -4.99682   0.48658  -0.53783 
 C                    -1.47569   0.03689   0.22175 
 C                    -1.77229  -1.09444   0.89285 
 C                    -7.5174   -0.5494   -0.6189 
 C                    -5.9512    1.15992  -1.26234 
 H                    -2.84341   1.34552  -1.33258 
 C                    -0.18608   0.431    -0.02846 
 C                    -0.77363  -1.91254   1.36681 
 C                     0.53691  -1.55205   1.12466 
 C                     0.84559  -0.38716   0.42544 
 H                     0.04543   1.33981  -0.56742 
 H                    -0.98698  -2.81642   1.92325 
 H                     1.34269  -2.17537   1.48462 
 C                    -7.22375   0.61523  -1.30625 
 H                    -6.78246  -2.09767   0.67335 
 H                    -3.81578  -2.43941   0.92831 
 H                    -8.51755  -0.95829  -0.66353 
 H                    -5.73006   2.07799  -1.79155 
 H                    -7.99725   1.10543  -1.88147 
 S                    -3.16608   0.85165  -0.12406 
 N                     2.18289  -0.04448   0.18491 
 C                     3.1465   -1.04492  -0.06717 
 C                     4.39201  -0.9891    0.53934 
 C                     2.87869  -2.09032  -0.93036 
 C                     5.34549  -1.94613   0.2859 
 C                     3.82261  -3.067    -1.17035 
 C                     5.06227  -2.9953   -0.56764 
 H                     4.61294  -0.17489   1.21512 
 H                     1.9137   -2.14552  -1.41407 
 H                     6.31716  -1.9016    0.75556 
 H                     3.59139  -3.88159  -1.84538 
 C                     2.5754    1.31029   0.12319 
 C                     3.39168   1.76327  -0.89498 
 C                     2.16404   2.21196   1.09371 
 C                     3.79684   3.0814   -0.94207 
 C                     2.5441    3.53118   1.03888 
 C                     3.36881   3.97202   0.02073 
 H                     3.72384   1.07184  -1.6564 
 H                     1.52954   1.86849   1.89861 
 H                     4.44276   3.41523  -1.74453 
 H                     2.22072   4.2347    1.79197 
 O                     3.72625   5.28132   0.01926 
 H                     4.2942    5.46604  -0.72813 
 O                     6.03297  -3.92081  -0.77614 
 H                     5.72108  -4.59379  -1.38039 
 
 ITRead=  0  0  0  0  0  0  0  0  0  0  0  0  0  0  0  0  0  0  0  0
 ITRead=  0  0  0  0  0  0  0  0  0  0  0  0  0  0  0  0  0  0  0  0
 ITRead=  0  0  0  0  0  0  0  0
 MicOpt= -1 -1 -1 -1 -1 -1 -1 -1 -1 -1 -1 -1 -1 -1 -1 -1 -1 -1 -1 -1
 MicOpt= -1 -1 -1 -1 -1 -1 -1 -1 -1 -1 -1 -1 -1 -1 -1 -1 -1 -1 -1 -1
 MicOpt= -1 -1 -1 -1 -1 -1 -1 -1
 NAtoms=     48 NQM=       48 NQMF=       0 NMMI=      0 NMMIF=      0
                NMic=       0 NMicF=      0.
                    Isotopes and Nuclear Properties:
 (Nuclear quadrupole moments (NQMom) in fm**2, nuclear magnetic moments (NMagM)
  in nuclear magnetons)

  Atom         1           2           3           4           5           6           7           8           9          10
 IAtWgt=          12          12          32          12          12          12          12          12           1          12
 AtmWgt=  12.0000000  12.0000000  31.9720718  12.0000000  12.0000000  12.0000000  12.0000000  12.0000000   1.0078250  12.0000000
 NucSpn=           0           0           0           0           0           0           0           0           1           0
 AtZEff=  -0.0000000  -0.0000000  -0.0000000  -0.0000000  -0.0000000  -0.0000000  -0.0000000  -0.0000000  -0.0000000  -0.0000000
 NQMom=    0.0000000   0.0000000   0.0000000   0.0000000   0.0000000   0.0000000   0.0000000   0.0000000   0.0000000   0.0000000
 NMagM=    0.0000000   0.0000000   0.0000000   0.0000000   0.0000000   0.0000000   0.0000000   0.0000000   2.7928460   0.0000000
 AtZNuc=   6.0000000   6.0000000  16.0000000   6.0000000   6.0000000   6.0000000   6.0000000   6.0000000   1.0000000   6.0000000

  Atom        11          12          13          14          15          16          17          18          19          20
 IAtWgt=          12          12          12           1           1           1          12           1           1           1
 AtmWgt=  12.0000000  12.0000000  12.0000000   1.0078250   1.0078250   1.0078250  12.0000000   1.0078250   1.0078250   1.0078250
 NucSpn=           0           0           0           1           1           1           0           1           1           1
 AtZEff=  -0.0000000  -0.0000000  -0.0000000  -0.0000000  -0.0000000  -0.0000000  -0.0000000  -0.0000000  -0.0000000  -0.0000000
 NQMom=    0.0000000   0.0000000   0.0000000   0.0000000   0.0000000   0.0000000   0.0000000   0.0000000   0.0000000   0.0000000
 NMagM=    0.0000000   0.0000000   0.0000000   2.7928460   2.7928460   2.7928460   0.0000000   2.7928460   2.7928460   2.7928460
 AtZNuc=   6.0000000   6.0000000   6.0000000   1.0000000   1.0000000   1.0000000   6.0000000   1.0000000   1.0000000   1.0000000

  Atom        21          22          23          24          25          26          27          28          29          30
 IAtWgt=           1           1          32          14          12          12          12          12          12          12
 AtmWgt=   1.0078250   1.0078250  31.9720718  14.0030740  12.0000000  12.0000000  12.0000000  12.0000000  12.0000000  12.0000000
 NucSpn=           1           1           0           2           0           0           0           0           0           0
 AtZEff=  -0.0000000  -0.0000000  -0.0000000  -0.0000000  -0.0000000  -0.0000000  -0.0000000  -0.0000000  -0.0000000  -0.0000000
 NQMom=    0.0000000   0.0000000   0.0000000   2.0440000   0.0000000   0.0000000   0.0000000   0.0000000   0.0000000   0.0000000
 NMagM=    2.7928460   2.7928460   0.0000000   0.4037610   0.0000000   0.0000000   0.0000000   0.0000000   0.0000000   0.0000000
 AtZNuc=   1.0000000   1.0000000  16.0000000   7.0000000   6.0000000   6.0000000   6.0000000   6.0000000   6.0000000   6.0000000

  Atom        31          32          33          34          35          36          37          38          39          40
 IAtWgt=           1           1           1           1          12          12          12          12          12          12
 AtmWgt=   1.0078250   1.0078250   1.0078250   1.0078250  12.0000000  12.0000000  12.0000000  12.0000000  12.0000000  12.0000000
 NucSpn=           1           1           1           1           0           0           0           0           0           0
 AtZEff=  -0.0000000  -0.0000000  -0.0000000  -0.0000000  -0.0000000  -0.0000000  -0.0000000  -0.0000000  -0.0000000  -0.0000000
 NQMom=    0.0000000   0.0000000   0.0000000   0.0000000   0.0000000   0.0000000   0.0000000   0.0000000   0.0000000   0.0000000
 NMagM=    2.7928460   2.7928460   2.7928460   2.7928460   0.0000000   0.0000000   0.0000000   0.0000000   0.0000000   0.0000000
 AtZNuc=   1.0000000   1.0000000   1.0000000   1.0000000   6.0000000   6.0000000   6.0000000   6.0000000   6.0000000   6.0000000

  Atom        41          42          43          44          45          46          47          48
 IAtWgt=           1           1           1           1          16           1          16           1
 AtmWgt=   1.0078250   1.0078250   1.0078250   1.0078250  15.9949146   1.0078250  15.9949146   1.0078250
 NucSpn=           1           1           1           1           0           1           0           1
 AtZEff=  -0.0000000  -0.0000000  -0.0000000  -0.0000000  -0.0000000  -0.0000000  -0.0000000  -0.0000000
 NQMom=    0.0000000   0.0000000   0.0000000   0.0000000   0.0000000   0.0000000   0.0000000   0.0000000
 NMagM=    2.7928460   2.7928460   2.7928460   2.7928460   0.0000000   2.7928460   0.0000000   2.7928460
 AtZNuc=   1.0000000   1.0000000   1.0000000   1.0000000   8.0000000   1.0000000   8.0000000   1.0000000
 Leave Link  101 at Mon Jan 18 06:47:28 2021, MaxMem=  4026531840 cpu:               0.6 elap:               0.1
 (Enter /opt/ohpc/pub/libs/gaussian/g16-A.03/sandybridge/g16/l202.exe)
                          Input orientation:                          
 ---------------------------------------------------------------------
 Center     Atomic      Atomic             Coordinates (Angstroms)
 Number     Number       Type             X           Y           Z
 ---------------------------------------------------------------------
      1          6           0       -6.544630   -1.193879    0.127010
      2          6           0       -5.283469   -0.647909    0.131523
      3         16           0       -3.665919   -1.107322    1.042984
      4          6           0       -4.996815    0.486583   -0.537830
      5          6           0       -1.475687    0.036886    0.221747
      6          6           0       -1.772288   -1.094442    0.892846
      7          6           0       -7.517398   -0.549399   -0.618903
      8          6           0       -5.951198    1.159916   -1.262339
      9          1           0       -2.843406    1.345523   -1.332578
     10          6           0       -0.186077    0.430997   -0.028463
     11          6           0       -0.773630   -1.912541    1.366813
     12          6           0        0.536910   -1.552052    1.124661
     13          6           0        0.845585   -0.387156    0.425435
     14          1           0        0.045427    1.339810   -0.567415
     15          1           0       -0.986976   -2.816418    1.923251
     16          1           0        1.342687   -2.175375    1.484620
     17          6           0       -7.223748    0.615229   -1.306247
     18          1           0       -6.782458   -2.097666    0.673346
     19          1           0       -3.815781   -2.439410    0.928305
     20          1           0       -8.517553   -0.958288   -0.663525
     21          1           0       -5.730059    2.077989   -1.791552
     22          1           0       -7.997253    1.105431   -1.881471
     23         16           0       -3.166075    0.851646   -0.124057
     24          7           0        2.182887   -0.044483    0.184905
     25          6           0        3.146505   -1.044921   -0.067172
     26          6           0        4.392012   -0.989098    0.539344
     27          6           0        2.878694   -2.090316   -0.930362
     28          6           0        5.345494   -1.946131    0.285899
     29          6           0        3.822608   -3.066997   -1.170354
     30          6           0        5.062274   -2.995295   -0.567641
     31          1           0        4.612943   -0.174890    1.215121
     32          1           0        1.913696   -2.145516   -1.414069
     33          1           0        6.317156   -1.901598    0.755555
     34          1           0        3.591387   -3.881585   -1.845380
     35          6           0        2.575405    1.310294    0.123192
     36          6           0        3.391681    1.763268   -0.894977
     37          6           0        2.164040    2.211964    1.093710
     38          6           0        3.796835    3.081396   -0.942072
     39          6           0        2.544098    3.531176    1.038879
     40          6           0        3.368807    3.972023    0.020733
     41          1           0        3.723839    1.071840   -1.656403
     42          1           0        1.529535    1.868488    1.898614
     43          1           0        4.442764    3.415230   -1.744528
     44          1           0        2.220724    4.234697    1.791974
     45          8           0        3.726245    5.281320    0.019257
     46          1           0        4.294203    5.466041   -0.728132
     47          8           0        6.032969   -3.920806   -0.776143
     48          1           0        5.721078   -4.593785   -1.380389
 ---------------------------------------------------------------------
                    Distance matrix (angstroms):
                    1          2          3          4          5
     1  C    0.000000
     2  C    1.374275   0.000000
     3  S    3.022164   1.912666   0.000000
     4  C    2.379432   1.348064   2.609749   0.000000
     5  C    5.217082   3.869921   2.603989   3.630086   0.000000
     6  C    4.834422   3.620414   1.899617   3.865753   1.348425
     7  C    1.384925   2.358661   4.231671   2.726384   6.128025
     8  C    2.796927   2.378433   3.959467   1.374459   4.847051
     9  H    4.719960   3.474373   3.512303   2.450831   2.449309
    10  C    6.564723   5.212777   3.952686   4.837948   1.371504
    11  C    5.946262   4.843953   3.019698   5.217159   2.367346
    12  C    7.160433   5.973325   4.227083   6.127154   2.718552
    13  C    7.440103   6.141635   4.610171   5.985394   2.368460
    14  H    7.094410   5.730329   4.728206   5.114008   2.152713
    15  H    6.061900   5.135423   3.297365   5.748525   3.357871
    16  H    8.063263   6.933251   5.140225   7.166981   3.798971
    17  C    2.405888   2.725323   4.598284   2.359289   5.975739
    18  H    1.082532   2.154608   3.290931   3.366573   5.737776
    19  H    3.104841   2.449172   1.345388   3.479343   3.479555
    20  H    2.138428   3.344807   5.145166   3.807761   7.166726
    21  H    3.879372   3.365736   4.737243   2.154539   5.130220
    22  H    3.380967   3.806701   5.675312   3.345291   6.935138
    23  S    3.957504   2.607172   2.334392   1.912090   1.908095
    24  N    8.803069   7.490891   6.006202   7.235503   3.659664
    25  C    9.694225   8.441656   6.902569   8.299439   4.755885
    26  C   10.946328   9.690081   8.074521   9.564937   5.965183
    27  C    9.524740   8.356377   6.905963   8.295669   4.981263
    28  C   11.914956  10.709065   9.081979  10.656453   7.103871
    29  C   10.614676   9.511441   8.050915   9.529441   6.296345
    30  C   11.766387  10.631719   9.074134  10.644700   7.249979
    31  H   11.256721   9.966790   8.332984   9.790701   6.172767
    32  H    8.650076   7.512048   6.184421   7.446536   4.350482
    33  H   12.896568  11.684847  10.018746  11.635385   8.048048
    34  H   10.670189   9.650278   8.289009   9.723569   6.730726
    35  C    9.457586   8.099168   6.756109   7.645519   4.247661
    36  C   10.417267   9.062323   7.861660   8.492605   5.283819
    37  C    9.400809   8.035550   6.708849   7.544316   4.328845
    38  C   11.241299   9.874829   8.785130   9.177404   6.198629
    39  C   10.284096   8.919577   7.751128   8.283775   5.388547
    40  C   11.179180   9.809074   8.736825   9.079863   6.244584
    41  H   10.665622   9.342688   8.163575   8.811557   5.624380
    42  H    8.815260   7.474750   6.048164   7.102054   3.898462
    43  H   12.061068  10.706459   9.694041   9.956844   7.092779
    44  H   10.443801   9.105485   7.984405   8.459859   5.809534
    45  O   12.142104  10.786255   9.823790   9.969535   7.389532
    46  H   12.750141  11.395227  10.474230  10.542971   7.979325
    47  O   12.901466  11.815138  10.261254  11.880152   8.546287
    48  H   12.817145  11.787954  10.302615  11.890890   8.706514
                    6          7          8          9         10
     6  C    0.000000
     7  C    5.965630   0.000000
     8  C    5.214426   2.405982   0.000000
     9  H    3.471777   5.093747   3.114122   0.000000
    10  C    2.385758   7.420112   5.940572   3.098140   0.000000
    11  C    1.375227   7.160980   6.569600   4.710166   2.790015
    12  C    2.365489   8.301639   7.426176   5.085322   2.405180
    13  C    2.751724   8.429499   7.172048   4.438631   1.392740
    14  H    3.370761   7.795389   6.039436   2.988455   1.081667
    15  H    2.154913   7.365347   7.113559   5.600760   3.872510
    16  H    3.349878   9.250390   8.477659   6.152780   3.379307
    17  C    6.121879   1.383846   1.384917   4.440880   7.155102
    18  H    5.114337   2.146433   3.879396   5.603161   7.099219
    19  H    2.446643   4.434858   4.723778   4.514734   4.725399
    20  H    6.923830   1.081430   3.381057   6.160448   8.470355
    21  H    5.738838   3.387160   1.082510   3.013292   6.046222
    22  H    7.161457   2.136071   2.138372   5.188551   8.056238
    23  S    2.600768   4.598023   3.024504   1.344824   3.011058
    24  N    4.152951   9.746619   8.349157   5.431251   2.425613
    25  C    5.011847  10.689657   9.437051   6.572253   3.644988
    26  C    6.175326  11.973676  10.716637   7.829803   4.826797
    27  C    5.093867  10.514284   9.414946   6.686494   4.069799
    28  C    7.194205  12.970101  11.817776   8.972878   6.028917
    29  C    6.280974  11.629193  10.649063   7.995773   5.441455
    30  C    7.242755  12.815349  11.791732   9.051387   6.290896
    31  H    6.459149  12.273918  10.932547   8.024934   4.994416
    32  H    4.473599   9.598198   8.532612   5.901187   3.601023
    33  H    8.130772  13.968266  12.804580   9.940824   6.953253
    34  H    6.635892  11.662453  10.808219   8.306153   6.014049
    35  C    5.027679  10.289501   8.639749   5.611062   2.902059
    36  C    6.166798  11.154938   9.369545   6.264369   3.914862
    37  C    5.144642  10.212170   8.515566   5.631351   3.155022
    38  C    7.198589  11.886925   9.940765   6.874485   4.870614
    39  C    6.328417  10.983307   9.115291   6.279020   4.266636
    40  C    7.270523  11.805162   9.819201   6.879066   5.017817
    41  H    6.434195  11.404834   9.683459   6.580917   4.283493
    42  H    4.548907   9.696962   8.151998   5.462299   2.953529
    43  H    8.119098  12.650328  10.646755   7.585622   5.768596
    44  H    6.719546  11.114447   9.250049   6.614799   4.855390
    45  O    8.464477  12.681642  10.596290   7.776778   6.231707
    46  H    9.081290  13.255616  11.126380   8.263745   6.775995
    47  O    8.467343  13.964367  13.025758  10.336047   7.627172
    48  H    8.576919  13.863411  13.013879  10.422478   7.872142
                   11         12         13         14         15
    11  C    0.000000
    12  C    1.380618   0.000000
    13  C    2.415543   1.393262   0.000000
    14  H    3.871677   3.386376   2.146722   0.000000
    15  H    1.082651   2.135087   3.391614   4.954140   0.000000
    16  H    2.135827   1.080453   2.136986   4.272032   2.455741
    17  C    7.425557   8.416308   8.313702   7.342465   7.816853
    18  H    6.051544   7.353538   7.821403   7.744401   5.972142
    19  H    3.118423   4.446558   5.117906   5.606122   3.022282
    20  H    8.062333   9.248430   9.443536   8.866517   8.176408
    21  H    7.103928   7.807458   7.364174   5.949761   7.762204
    22  H    8.475862   9.430323   9.259882   8.152691   8.888239
    23  S    3.948065   4.587936   4.234382   3.278508   4.732297
    24  N    3.691550   2.421806   1.401305   2.655370   4.555601
    25  C    4.263395   2.913354   2.443266   3.943839   4.917891
    26  C    5.312373   3.939711   3.598952   5.053863   5.847034
    27  C    4.318343   3.161772   2.978669   4.463731   4.859397
    28  C    6.213951   4.897071   4.764352   6.294145   6.598371
    29  C    5.375443   4.284619   4.311700   5.835287   5.724096
    30  C    6.242775   5.042396   5.056585   6.630376   6.544461
    31  H    5.661944   4.303348   3.855081   5.131662   6.232031
    32  H    3.874184   2.948371   2.759795   4.044101   4.472327
    33  H    7.117092   5.802557   5.686880   7.182727   7.453238
    34  H    5.766168   4.855687   4.990698   6.439720   6.024829
    35  C    4.811371   3.653960   2.442328   2.622708   5.741126
    36  C    5.998090   4.818714   3.584748   3.388809   6.934592
    37  C    5.071098   4.100771   2.990040   2.829931   5.991800
    38  C    7.152587   6.030534   4.755082   4.152897   8.116596
    39  C    6.383488   5.465837   4.314462   3.691290   7.317277
    40  C    7.321189   6.305054   5.053006   4.280107   8.287059
    41  H    6.186565   4.977514   3.840191   3.845571   7.079848
    42  H    4.459099   3.644777   2.779564   2.926325   5.318062
    43  H    8.079378   6.939873   5.666266   5.002953   9.042572
    44  H    6.850945   6.063580   5.011982   4.321921   7.747567
    45  O    8.591648   7.621598   6.371405   5.424768   9.561015
    46  H    9.193215   8.173354   6.890834   5.924838  10.174469
    47  O    7.413176   6.279388   6.390573   7.972974   7.601712
    48  H    7.544363   6.511760   6.687837   8.251151   7.685770
                   16         17         18         19         20
    16  H    0.000000
    17  C    9.431872   0.000000
    18  H    8.165916   3.387230   0.000000
    19  H    5.195093   5.092964   2.997160   0.000000
    20  H   10.164653   2.136113   2.469000   5.180184   0.000000
    21  H    8.879648   2.146228   4.961790   5.609722   4.273353
    22  H   10.456038   1.081430   4.273482   6.159988   2.452150
    23  S    5.663888   4.232987   4.734186   3.515769   5.674963
    24  N    2.633609   9.546912   9.210404   6.501718  10.772850
    25  C    2.634339  10.575138  10.012040   7.170007  11.679614
    26  C    3.405757  11.870381  11.230123   8.344014  12.965520
    27  C    2.863336  10.465209   9.793354   6.956472  11.455441
    28  C    4.184728  12.925995  12.135085   9.197009  13.930589
    29  C    3.740840  11.644709  10.807694   7.946271  12.529290
    30  C    4.326589  12.826837  11.943344   9.020351  13.732090
    31  H    3.843064  12.128019  11.569172   8.732337  13.287323
    32  H    2.954546   9.546006   8.943304   6.196773  10.525388
    33  H    5.035060  13.926289  13.101339  10.148670  14.932254
    34  H    4.365399  11.725150  10.823262   8.039859  12.512748
    35  C    3.939920   9.927226   9.974290   7.453573  11.349850
    36  C    5.037238  10.685245  10.994524   8.540162  12.218441
    37  C    4.480644   9.820383   9.939288   7.577658  11.279840
    38  C    6.288507  11.299020  11.889226   9.587989  12.963055
    39  C    5.848658  10.460075  10.899639   8.724000  12.058756
    40  C    6.636161  11.190673  11.845472   9.672046  12.886494
    41  H    5.106889  10.962699  11.218546   8.709504  12.448249
    42  H    4.069291   9.405411   9.290903   6.933389  10.747055
    43  H    7.161895  12.005815  12.737494  10.470168  13.721007
    44  H    6.477225  10.578165  11.063789   9.040410  12.178143
    45  O    7.964354  11.976298  12.857298  10.831352  13.758978
    46  H    8.485220  12.511107  13.485779  11.446038  14.332385
    47  O    5.491477  14.021311  13.025361  10.104333  14.849474
    48  H    5.764312  13.953775  12.914598  10.046048  14.712897
                   21         22         23         24         25
    21  H    0.000000
    22  H    2.468628   0.000000
    23  S    3.295219   5.147154   0.000000
    24  N    8.427692  10.451194   5.432301   0.000000
    25  C    9.566579  11.493435   6.591576   1.411729   0.000000
    26  C   10.830347  12.796143   7.807248   2.428612   1.386458
    27  C    9.603491  11.375572   6.770857   2.431748   1.381908
    28  C   11.965668  13.857793   8.968970   3.691686   2.402580
    29  C   10.867852  12.554838   8.080358   3.696079   2.400608
    30  C   11.987936  13.751122   9.094034   4.191001   2.779316
    31  H   11.004237  13.047802   7.959918   2.642636   2.133464
    32  H    8.741137  10.440978   6.037482   2.653963   2.131961
    33  H   12.940644  14.862652   9.913916   4.568008   3.385824
    34  H   11.063850  12.616188   8.427913   4.563911   3.377367
    35  C    8.557823  10.762980   5.765074   1.411843   2.430932
    36  C    9.171098  11.450491   6.665548   2.428022   2.937907
    37  C    8.405920  10.645562   5.634141   2.432660   3.594466
    38  C    9.617180  11.995308   7.356837   3.694053   4.267888
    39  C    8.864805  11.204140   6.413921   3.693925   4.746252
    40  C    9.468955  11.875313   7.243093   4.191143   5.022636
    41  H    9.508248  11.723301   7.061691   2.647853   2.709178
    42  H    8.146344  10.277694   5.212861   2.650118   3.868702
    43  H   10.260446  12.653377   8.190990   4.560633   4.938295
    44  H    8.983763  11.300157   6.643328   4.571158   5.673435
    45  O   10.147021  12.589330   8.194304   5.547393   6.353337
    46  H   10.634641  13.092937   8.792798   5.971362   6.644299
    47  O   13.243316  14.944294  10.383830   5.547308   4.135823
    48  H   13.259342  14.863538  10.498218   5.972026   4.576833
                   26         27         28         29         30
    26  C    0.000000
    27  C    2.379674   0.000000
    28  C    1.374509   2.754121   0.000000
    29  C    2.750446   1.379303   2.386670   0.000000
    30  C    2.387361   2.391354   1.381843   1.380281   0.000000
    31  H    1.080935   3.358508   2.130112   3.831371   3.366723
    32  H    3.360830   1.080852   3.834955   2.133652   3.369289
    33  H    2.141397   3.834182   1.080133   3.360067   2.126441
    34  H    3.833326   2.133971   3.371235   1.082902   2.140476
    35  C    2.959805   3.572969   4.278337   4.731749   5.019947
    36  C    3.260898   3.887739   4.355628   4.857262   5.053905
    37  C    3.939287   4.808036   5.297543   5.978651   6.186711
    38  C    4.372385   5.252592   5.402063   6.152683   6.218336
    39  C    4.908890   5.965822   6.198039   7.074686   7.177530
    40  C    5.092016   6.156033   6.245170   7.153490   7.194271
    41  H    3.084676   3.352706   3.938331   4.168449   4.417963
    42  H    4.266988   5.049303   5.631493   6.247860   6.497618
    43  H    4.961527   5.781022   5.803598   6.537089   6.547036
    44  H    5.794101   6.917357   7.087671   8.040905   8.118804
    45  O    6.327075   7.480718   7.411418   8.433200   8.404271
    46  H    6.579125   7.690455   7.554718   8.557494   8.497641
    47  O    3.608068   3.650196   2.345186   2.402101   1.357311
    48  H    4.294829   3.814319   3.150817   2.445278   1.910432
                   31         32         33         34         35
    31  H    0.000000
    32  H    4.252287   0.000000
    33  H    2.469223   4.915000   0.000000
    34  H    4.914248   2.452471   4.256175   0.000000
    35  C    2.747661   3.839746   4.971603   5.644741   0.000000
    36  C    3.114555   4.210996   4.971308   5.727784   1.381362
    37  C    3.421833   5.033812   5.855264   6.914254   1.387132
    38  C    3.990352   5.575805   5.836453   7.024335   2.400725
    39  C    4.248071   6.216043   6.620519   8.022767   2.402453
    40  C    4.491250   6.449829   6.613029   8.075338   2.779350
    41  H    3.254304   3.699557   4.624302   4.958798   2.131366
    42  H    3.761643   5.218590   6.200117   7.164640   2.134841
    43  H    4.655904   6.117784   6.167043   7.347008   3.377301
    44  H    5.049745   7.147034   7.450439   8.999061   3.385671
    45  O    5.655665   7.778024   7.671327   9.351678   4.135732
    46  H    5.974774   8.004569   7.783044   9.440355   4.577035
    47  O    4.473644   4.530675   2.550306   2.665732   6.334663
    48  H    5.243212   4.526733   3.487899   2.293257   6.856687
                   36         37         38         39         40
    36  C    0.000000
    37  C    2.379770   0.000000
    38  C    1.379793   2.750698   0.000000
    39  C    2.753851   1.373962   2.386591   0.000000
    40  C    2.391160   2.387583   1.379644   1.382430   0.000000
    41  H    1.080820   3.360949   2.133990   3.834667   3.368960
    42  H    3.358989   1.080945   3.831617   2.129088   3.366633
    43  H    2.134360   3.833540   1.082869   3.371310   2.139988
    44  H    3.833902   2.140615   3.359946   1.080123   2.127061
    45  O    3.650267   3.607753   2.401833   2.345230   1.357211
    46  H    3.814828   4.294848   2.445338   3.151015   1.910300
    47  O    6.268909   7.488380   7.352459   8.426064   8.368364
    48  H    6.787771   8.067955   7.924849   9.053234   8.992741
                   41         42         43         44         45
    41  H    0.000000
    42  H    4.252971   0.000000
    43  H    2.452773   4.914448   0.000000
    44  H    4.914705   2.467399   4.256270   0.000000
    45  O    4.530735   4.472688   2.665826   2.550400   0.000000
    46  H    4.527251   5.242668   2.293678   3.488045   0.956707
    47  O    5.570768   7.807123   7.568616   9.361659   9.520124
    48  H    6.013689   8.371491   8.118559  10.012915  10.171336
                   46         47         48
    46  H    0.000000
    47  O    9.546649   0.000000
    48  H   10.181430   0.956708   0.000000
 Stoichiometry    C24H19NO2S2(1+,2)
 Framework group  C1[X(C24H19NO2S2)]
 Deg. of freedom   138
 Full point group                 C1      NOp   1
 Largest Abelian subgroup         C1      NOp   1
 Largest concise Abelian subgroup C1      NOp   1
                         Standard orientation:                         
 ---------------------------------------------------------------------
 Center     Atomic      Atomic             Coordinates (Angstroms)
 Number     Number       Type             X           Y           Z
 ---------------------------------------------------------------------
      1          6           0        6.544630   -1.193879   -0.127010
      2          6           0        5.283469   -0.647909   -0.131523
      3         16           0        3.665919   -1.107322   -1.042984
      4          6           0        4.996815    0.486583    0.537830
      5          6           0        1.475687    0.036886   -0.221747
      6          6           0        1.772288   -1.094442   -0.892846
      7          6           0        7.517398   -0.549399    0.618903
      8          6           0        5.951198    1.159916    1.262339
      9          1           0        2.843406    1.345523    1.332578
     10          6           0        0.186077    0.430997    0.028463
     11          6           0        0.773630   -1.912541   -1.366813
     12          6           0       -0.536910   -1.552052   -1.124661
     13          6           0       -0.845585   -0.387156   -0.425435
     14          1           0       -0.045427    1.339810    0.567415
     15          1           0        0.986976   -2.816418   -1.923251
     16          1           0       -1.342687   -2.175375   -1.484620
     17          6           0        7.223748    0.615229    1.306247
     18          1           0        6.782458   -2.097666   -0.673346
     19          1           0        3.815781   -2.439410   -0.928305
     20          1           0        8.517553   -0.958288    0.663525
     21          1           0        5.730059    2.077989    1.791552
     22          1           0        7.997253    1.105431    1.881471
     23         16           0        3.166075    0.851646    0.124057
     24          7           0       -2.182887   -0.044483   -0.184905
     25          6           0       -3.146505   -1.044921    0.067172
     26          6           0       -4.392012   -0.989098   -0.539344
     27          6           0       -2.878694   -2.090316    0.930362
     28          6           0       -5.345494   -1.946131   -0.285899
     29          6           0       -3.822608   -3.066997    1.170354
     30          6           0       -5.062274   -2.995295    0.567641
     31          1           0       -4.612943   -0.174890   -1.215121
     32          1           0       -1.913696   -2.145516    1.414069
     33          1           0       -6.317156   -1.901598   -0.755555
     34          1           0       -3.591387   -3.881585    1.845380
     35          6           0       -2.575405    1.310294   -0.123192
     36          6           0       -3.391681    1.763268    0.894977
     37          6           0       -2.164040    2.211964   -1.093710
     38          6           0       -3.796835    3.081396    0.942072
     39          6           0       -2.544098    3.531176   -1.038879
     40          6           0       -3.368807    3.972023   -0.020733
     41          1           0       -3.723839    1.071840    1.656403
     42          1           0       -1.529535    1.868488   -1.898614
     43          1           0       -4.442764    3.415230    1.744528
     44          1           0       -2.220724    4.234697   -1.791974
     45          8           0       -3.726245    5.281320   -0.019257
     46          1           0       -4.294203    5.466041    0.728132
     47          8           0       -6.032969   -3.920806    0.776143
     48          1           0       -5.721078   -4.593785    1.380389
 ---------------------------------------------------------------------
 Rotational constants (GHZ):           0.2280536           0.0702108           0.0568934
 Leave Link  202 at Mon Jan 18 06:47:28 2021, MaxMem=  4026531840 cpu:               0.1 elap:               0.0
 (Enter /opt/ohpc/pub/libs/gaussian/g16-A.03/sandybridge/g16/l301.exe)
 Standard basis: TZVP (5D, 7F)
 Ernie: Thresh=  0.10000D-02 Tol=  0.10000D-05 Strict=F.
 There are   700 symmetry adapted cartesian basis functions of A   symmetry.
 There are   671 symmetry adapted basis functions of A   symmetry.
   671 basis functions,  1191 primitive gaussians,   700 cartesian basis functions
   109 alpha electrons      108 beta electrons
       nuclear repulsion energy      2827.2462800785 Hartrees.
 IExCor=33909 DFT=T Ex+Corr=LC-wHPBE ExCW=0 ScaHFX=  1.000000
 ScaDFX=  1.000000  1.000000  1.000000  1.000000 ScalE2=  1.000000  1.000000
 IRadAn=      5 IRanWt=     -1 IRanGd=            0 ICorTp=0 IEmpDi=  4
 HFx  wShort=  0.000000 wLong=  0.328100 cFull=  0.000000 cShort=  0.000000 cLong=  1.000000
 DFx  wShort=  0.000000 wLong=  0.328100 cFull=  0.000000 cShort=  1.000000 cLong=  0.000000
 NAtoms=   48 NActive=   48 NUniq=   48 SFac= 1.00D+00 NAtFMM=   60 NAOKFM=F Big=F
 Integral buffers will be    131072 words long.
 Raffenetti 2 integral format.
 Two-electron integral symmetry is turned on.
 Leave Link  301 at Mon Jan 18 06:47:28 2021, MaxMem=  4026531840 cpu:               0.4 elap:               0.1
 (Enter /opt/ohpc/pub/libs/gaussian/g16-A.03/sandybridge/g16/l302.exe)
 NPDir=0 NMtPBC=     1 NCelOv=     1 NCel=       1 NClECP=     1 NCelD=      1
         NCelK=      1 NCelE2=     1 NClLst=     1 CellRange=     0.0.
 One-electron integrals computed using PRISM.
 One-electron integral symmetry used in STVInt
 NBasis=   671 RedAO= T EigKep=  6.34D-06  NBF=   671
 NBsUse=   671 1.00D-06 EigRej= -1.00D+00 NBFU=   671
 Precomputing XC quadrature grid using
 IXCGrd= 4 IRadAn=           5 IRanWt=          -1 IRanGd=           0 AccXCQ= 0.00D+00.
 Generated NRdTot=       0 NPtTot=           0 NUsed=           0 NTot=          32
 NSgBfM=   657   657   657   657   657 MxSgAt=    48 MxSgA2=    48.
 Leave Link  302 at Mon Jan 18 06:47:29 2021, MaxMem=  4026531840 cpu:              10.3 elap:               1.3
 (Enter /opt/ohpc/pub/libs/gaussian/g16-A.03/sandybridge/g16/l303.exe)
 DipDrv:  MaxL=1.
 Leave Link  303 at Mon Jan 18 06:47:29 2021, MaxMem=  4026531840 cpu:               0.8 elap:               0.1
 (Enter /opt/ohpc/pub/libs/gaussian/g16-A.03/sandybridge/g16/l401.exe)
 ExpMin= 9.52D-02 ExpMax= 6.07D+04 ExpMxC= 2.07D+03 IAcc=3 IRadAn=         5 AccDes= 0.00D+00
 Harris functional with IExCor=33909 and IRadAn=       5 diagonalized for initial guess.
 HarFok:  IExCor=33909 AccDes= 0.00D+00 IRadAn=         5 IDoV= 1 UseB2=F ITyADJ=14
 ICtDFT=  3500011 ScaDFX=  1.000000  1.000000  1.000000  1.000000
 FoFCou: FMM=F IPFlag=           0 FMFlag=      100000 FMFlg1=           0
         NFxFlg=           0 DoJE=T BraDBF=F KetDBF=T FulRan=T
         wScrn=  0.000000 ICntrl=       500 IOpCl=  0 I1Cent=   200000004 NGrid=           0
         NMat0=    1 NMatS0=      1 NMatT0=    0 NMatD0=    1 NMtDS0=    0 NMtDT0=    0
 Petite list used in FoFCou.
 Harris En= -1889.94295554210    
 JPrj=0 DoOrth=F DoCkMO=F.
 Initial guess <Sx>= 0.0000 <Sy>= 0.0000 <Sz>= 0.5000 <S**2>= 0.7500 S= 0.5000
 Leave Link  401 at Mon Jan 18 06:47:37 2021, MaxMem=  4026531840 cpu:              57.8 elap:               7.3
 (Enter /opt/ohpc/pub/libs/gaussian/g16-A.03/sandybridge/g16/l502.exe)
 Integral symmetry usage will be decided dynamically.
 UHF open shell SCF:
 Using DIIS extrapolation, IDIIS=    10.
 NGot=  4026531840 LenX=  4025539370 LenY=  4025048670
 Requested convergence on RMS density matrix=1.00D-06 within  32 cycles.
 Requested convergence on MAX density matrix=1.00D-04.
 Requested convergence on             energy=1.00D-04.
 Virtual orbitals will be shifted by   0.500 hartree.
 No special actions if energy rises.
 Dynamic level shift is on during FON iterations.

 Cycle   1  Pass 1  IDiag  1:
 FoFJK:  IHMeth= 1 ICntrl=       0 DoSepK=T KAlg= 0 I1Cent=           0 FoldK=F
 IRaf=         1 NMat=       1 IRICut=       1 DoRegI=T DoRafI=F ISym2E= 0 IDoP0=0 IntGTp=1.
 FoFCou: FMM=F IPFlag=           0 FMFlag=      100000 FMFlg1=           0
         NFxFlg=           0 DoJE=T BraDBF=F KetDBF=F FulRan=T
         wScrn=  0.000000 ICntrl=       500 IOpCl=  0 I1Cent=           0 NGrid=           0
         NMat0=    1 NMatS0=      1 NMatT0=    0 NMatD0=    1 NMtDS0=    0 NMtDT0=    0
 Symmetry not used in FoFCou.
 E= -1925.82056566274    
 DIIS: error= 1.81D-02 at cycle   1 NSaved=   1.
 NSaved= 1 IEnMin= 1 EnMin= -1925.82056566274     IErMin= 1 ErrMin= 1.81D-02
 ErrMax= 1.81D-02  0.00D+00 EMaxC= 1.00D+00 BMatC= 2.31D+00 BMatP= 2.31D+00
 IDIUse=1 WtCom= 1.00D+00 WtEn= 0.00D+00
 Coeff-Com:  0.100D+01
 Coeff:      0.100D+01
 Gap=     0.555 Goal=   None    Shift=    0.500
 T= 1191. Gap= 0.584 NK=0 IS=  110 IE=  671 IFin=  109
          NO(<0.9)=   0  NV(>0.1)=   0    109.00e < EF      0.00e >EF  Err=0.0D+00
 Gap=     0.024 Goal=   None    Shift=    0.500
 T= 1191. Gap= 0.466 NK=0 IS=  109 IE=  671 IFin=  108
          NO(<0.9)=   0  NV(>0.1)=   0    108.00e < EF      0.00e >EF  Err=0.0D+00
 GapD=    0.024 DampG=0.250 DampE=0.500 DampFc=0.1250 IDamp=-1.
 Damping current iteration by 1.25D-01
 RMSDP=3.38D-03 MaxDP=2.82D-01              OVMax= 8.74D-02

 Cycle   2  Pass 1  IDiag  1:
 E= -1925.92200577204     Delta-E=       -0.101440109299 Rises=F Damp=T
 DIIS: error= 1.56D-02 at cycle   2 NSaved=   2.
 NSaved= 2 IEnMin= 2 EnMin= -1925.92200577204     IErMin= 2 ErrMin= 1.56D-02
 ErrMax= 1.56D-02  0.00D+00 EMaxC= 1.00D+00 BMatC= 1.64D+00 BMatP= 2.31D+00
 IDIUse=1 WtCom= 1.00D+00 WtEn= 0.00D+00
 Coeff-Com: -0.517D+01 0.617D+01
 Coeff:     -0.517D+01 0.617D+01
 Gap=     0.262 Goal=   None    Shift=    0.500
 T= 1163. Gap= 0.740 NK=0 IS=  110 IE=  671 IFin=  109
          NO(<0.9)=   0  NV(>0.1)=   0    109.00e < EF      0.00e >EF  Err=0.0D+00
 Gap=     0.112 Goal=   None    Shift=    0.500
 T= 1163. Gap= 0.596 NK=0 IS=  109 IE=  671 IFin=  108
          NO(<0.9)=   0  NV(>0.1)=   0    108.00e < EF      0.00e >EF  Err=0.0D+00
 GapD=    0.112 DampG=1.000 DampE=0.500 DampFc=0.5000 IDamp=-1.
 Damping current iteration by 5.00D-01
 RMSDP=2.95D-03 MaxDP=2.08D-01 DE=-1.01D-01 OVMax= 2.11D-02

 Cycle   3  Pass 1  IDiag  1:
 E= -1926.19196368057     Delta-E=       -0.269957908532 Rises=F Damp=T
 DIIS: error= 7.62D-03 at cycle   3 NSaved=   3.
 NSaved= 3 IEnMin= 3 EnMin= -1926.19196368057     IErMin= 3 ErrMin= 7.62D-03
 ErrMax= 7.62D-03  0.00D+00 EMaxC= 1.00D+00 BMatC= 3.48D-01 BMatP= 1.64D+00
 IDIUse=1 WtCom= 1.00D+00 WtEn= 0.00D+00
 Coeff-Com:  0.308D+00-0.125D+01 0.194D+01
 Coeff:      0.308D+00-0.125D+01 0.194D+01
 Gap=     0.267 Goal=   None    Shift=    0.500
 T= 1028. Gap= 0.766 NK=0 IS=  110 IE=  671 IFin=  109
          NO(<0.9)=   0  NV(>0.1)=   0    109.00e < EF      0.00e >EF  Err=0.0D+00
 Gap=     0.119 Goal=   None    Shift=    0.500
 T= 1028. Gap= 0.619 NK=0 IS=  109 IE=  671 IFin=  108
          NO(<0.9)=   0  NV(>0.1)=   0    108.00e < EF      0.00e >EF  Err=0.0D+00
 GapD=    0.119 DampG=1.000 DampE=1.000 DampFc=1.0000 IDamp=-1.
 RMSDP=1.76D-03 MaxDP=7.80D-02 DE=-2.70D-01 OVMax= 1.21D-02

 Cycle   4  Pass 1  IDiag  1:
 E= -1926.37107843334     Delta-E=       -0.179114752772 Rises=F Damp=F
 DIIS: error= 1.35D-03 at cycle   4 NSaved=   4.
 NSaved= 4 IEnMin= 4 EnMin= -1926.37107843334     IErMin= 4 ErrMin= 1.35D-03
 ErrMax= 1.35D-03  0.00D+00 EMaxC= 1.00D+00 BMatC= 4.13D-03 BMatP= 3.48D-01
 IDIUse=1 WtCom= 1.00D+00 WtEn= 0.00D+00
 Coeff-Com:  0.424D+00-0.516D+00 0.840D-01 0.101D+01
 Coeff:      0.424D+00-0.516D+00 0.840D-01 0.101D+01
 Gap=     0.267 Goal=   None    Shift=    0.500
 T=  716. Gap= 0.767 NK=0 IS=  110 IE=  671 IFin=  109
          NO(<0.9)=   0  NV(>0.1)=   0    109.00e < EF      0.00e >EF  Err=0.0D+00
 Gap=     0.120 Goal=   None    Shift=    0.500
 T=  716. Gap= 0.621 NK=0 IS=  109 IE=  671 IFin=  108
          NO(<0.9)=   0  NV(>0.1)=   0    108.00e < EF      0.00e >EF  Err=0.0D+00
 GapD=    0.120 DampG=1.000 DampE=1.000 DampFc=1.0000 IDamp=-1.
 RMSDP=4.67D-04 MaxDP=2.92D-02 DE=-1.79D-01 OVMax= 9.50D-03

 Cycle   5  Pass 1  IDiag  1:
 E= -1926.37319635851     Delta-E=       -0.002117925163 Rises=F Damp=F
 DIIS: error= 1.29D-03 at cycle   5 NSaved=   5.
 NSaved= 5 IEnMin= 5 EnMin= -1926.37319635851     IErMin= 5 ErrMin= 1.29D-03
 ErrMax= 1.29D-03  0.00D+00 EMaxC= 1.00D+00 BMatC= 1.14D-03 BMatP= 4.13D-03
 IDIUse=1 WtCom= 1.00D+00 WtEn= 0.00D+00
 Coeff-Com: -0.849D-01 0.250D+00-0.331D+00-0.265D+00 0.143D+01
 Coeff:     -0.849D-01 0.250D+00-0.331D+00-0.265D+00 0.143D+01
 Gap=     0.269 Goal=   None    Shift=    0.500
 T=  192. Gap= 0.769 NK=0 IS=  110 IE=  671 IFin=  109
          NO(<0.9)=   0  NV(>0.1)=   0    109.00e < EF      0.00e >EF  Err=0.0D+00
 Gap=     0.123 Goal=   None    Shift=    0.500
 T=  192. Gap= 0.624 NK=0 IS=  109 IE=  671 IFin=  108
          NO(<0.9)=   0  NV(>0.1)=   0    108.00e < EF      0.00e >EF  Err=0.0D+00
 GapD=    0.123 DampG=1.000 DampE=1.000 DampFc=1.0000 IDamp=-1.
 RMSDP=2.98D-04 MaxDP=2.22D-02 DE=-2.12D-03 OVMax= 9.35D-03

 Cycle   6  Pass 1  IDiag  1:
 E= -1926.37427071452     Delta-E=       -0.001074356016 Rises=F Damp=F
 DIIS: error= 1.21D-03 at cycle   6 NSaved=   6.
 NSaved= 6 IEnMin= 6 EnMin= -1926.37427071452     IErMin= 6 ErrMin= 1.21D-03
 ErrMax= 1.21D-03  0.00D+00 EMaxC= 1.00D+00 BMatC= 5.07D-04 BMatP= 1.14D-03
 IDIUse=1 WtCom= 1.00D+00 WtEn= 0.00D+00
 Coeff-Com: -0.749D-01 0.719D-01 0.171D-01-0.356D+00-0.274D+00 0.162D+01
 Coeff:     -0.749D-01 0.719D-01 0.171D-01-0.356D+00-0.274D+00 0.162D+01
 Gap=     0.270 Goal=   None    Shift=    0.500
 Gap=     0.125 Goal=   None    Shift=    0.500
 GapD=    0.125 DampG=1.000 DampE=1.000 DampFc=1.0000 IDamp=-1.
 RMSDP=1.77D-04 MaxDP=1.46D-02 DE=-1.07D-03 OVMax= 8.84D-03

 Cycle   7  Pass 1  IDiag  1:
 E= -1926.37489428714     Delta-E=       -0.000623572620 Rises=F Damp=F
 DIIS: error= 1.09D-03 at cycle   7 NSaved=   7.
 NSaved= 7 IEnMin= 7 EnMin= -1926.37489428714     IErMin= 7 ErrMin= 1.09D-03
 ErrMax= 1.09D-03  0.00D+00 EMaxC= 1.00D+00 BMatC= 2.58D-04 BMatP= 5.07D-04
 IDIUse=1 WtCom= 1.00D+00 WtEn= 0.00D+00
 Coeff-Com:  0.173D-01-0.698D-01 0.101D+00-0.505D-01-0.487D+00-0.952D-01
 Coeff-Com:  0.158D+01
 Coeff:      0.173D-01-0.698D-01 0.101D+00-0.505D-01-0.487D+00-0.952D-01
 Coeff:      0.158D+01
 Gap=     0.269 Goal=   None    Shift=    0.500
 Gap=     0.126 Goal=   None    Shift=    0.500
 GapD=    0.126 DampG=1.000 DampE=1.000 DampFc=1.0000 IDamp=-1.
 RMSDP=1.02D-04 MaxDP=9.00D-03 DE=-6.24D-04 OVMax= 8.30D-03

 Cycle   8  Pass 1  IDiag  1:
 E= -1926.37526804837     Delta-E=       -0.000373761222 Rises=F Damp=F
 DIIS: error= 9.64D-04 at cycle   8 NSaved=   8.
 NSaved= 8 IEnMin= 8 EnMin= -1926.37526804837     IErMin= 8 ErrMin= 9.64D-04
 ErrMax= 9.64D-04  0.00D+00 EMaxC= 1.00D+00 BMatC= 1.50D-04 BMatP= 2.58D-04
 IDIUse=1 WtCom= 1.00D+00 WtEn= 0.00D+00
 Coeff-Com:  0.321D-01-0.479D-01 0.278D-01 0.188D+00-0.706D-01-0.110D+01
 Coeff-Com:  0.126D+00 0.185D+01
 Coeff:      0.321D-01-0.479D-01 0.278D-01 0.188D+00-0.706D-01-0.110D+01
 Coeff:      0.126D+00 0.185D+01
 Gap=     0.269 Goal=   None    Shift=    0.500
 Gap=     0.127 Goal=   None    Shift=    0.500
 RMSDP=6.76D-05 MaxDP=6.32D-03 DE=-3.74D-04 OVMax= 8.48D-03

 Cycle   9  Pass 1  IDiag  1:
 E= -1926.37553780438     Delta-E=       -0.000269756016 Rises=F Damp=F
 DIIS: error= 8.50D-04 at cycle   9 NSaved=   9.
 NSaved= 9 IEnMin= 9 EnMin= -1926.37553780438     IErMin= 9 ErrMin= 8.50D-04
 ErrMax= 8.50D-04  0.00D+00 EMaxC= 1.00D+00 BMatC= 9.41D-05 BMatP= 1.50D-04
 IDIUse=1 WtCom= 1.00D+00 WtEn= 0.00D+00
 Coeff-Com: -0.978D-02 0.258D-01-0.283D-01 0.823D-01 0.168D+00-0.411D+00
 Coeff-Com: -0.567D+00-0.137D+00 0.188D+01
 Coeff:     -0.978D-02 0.258D-01-0.283D-01 0.823D-01 0.168D+00-0.411D+00
 Coeff:     -0.567D+00-0.137D+00 0.188D+01
 Gap=     0.269 Goal=   None    Shift=    0.500
 Gap=     0.128 Goal=   None    Shift=    0.500
 RMSDP=4.54D-05 MaxDP=3.41D-03 DE=-2.70D-04 OVMax= 7.80D-03

 Cycle  10  Pass 1  IDiag  1:
 E= -1926.37572697098     Delta-E=       -0.000189166596 Rises=F Damp=F
 DIIS: error= 7.32D-04 at cycle  10 NSaved=  10.
 NSaved=10 IEnMin=10 EnMin= -1926.37572697098     IErMin=10 ErrMin= 7.32D-04
 ErrMax= 7.32D-04  0.00D+00 EMaxC= 1.00D+00 BMatC= 6.64D-05 BMatP= 9.41D-05
 IDIUse=1 WtCom= 1.00D+00 WtEn= 0.00D+00
 Coeff-Com: -0.103D-01 0.630D-02 0.744D-02-0.125D+00 0.508D-01 0.729D+00
 Coeff-Com: -0.219D+00-0.151D+01-0.782D+00 0.285D+01
 Coeff:     -0.103D-01 0.630D-02 0.744D-02-0.125D+00 0.508D-01 0.729D+00
 Coeff:     -0.219D+00-0.151D+01-0.782D+00 0.285D+01
 Gap=     0.269 Goal=   None    Shift=    0.500
 Gap=     0.129 Goal=   None    Shift=    0.500
 RMSDP=4.04D-05 MaxDP=2.99D-03 DE=-1.89D-04 OVMax= 8.16D-03

 Cycle  11  Pass 1  IDiag  1:
 E= -1926.37588792767     Delta-E=       -0.000160956693 Rises=F Damp=F
 DIIS: error= 6.19D-04 at cycle  11 NSaved=  11.
 NSaved=11 IEnMin=11 EnMin= -1926.37588792767     IErMin=11 ErrMin= 6.19D-04
 ErrMax= 6.19D-04  0.00D+00 EMaxC= 1.00D+00 BMatC= 5.08D-05 BMatP= 6.64D-05
 IDIUse=1 WtCom= 1.00D+00 WtEn= 0.00D+00
 Coeff-Com:  0.597D-02-0.206D-01 0.268D-01-0.516D-01-0.857D-01 0.323D+00
 Coeff-Com:  0.180D+00-0.305D+00-0.109D+01-0.105D+00 0.212D+01
 Coeff:      0.597D-02-0.206D-01 0.268D-01-0.516D-01-0.857D-01 0.323D+00
 Coeff:      0.180D+00-0.305D+00-0.109D+01-0.105D+00 0.212D+01
 Gap=     0.268 Goal=   None    Shift=    0.500
 Gap=     0.129 Goal=   None    Shift=    0.500
 RMSDP=3.10D-05 MaxDP=2.21D-03 DE=-1.61D-04 OVMax= 6.83D-03

 Cycle  12  Pass 1  IDiag  1:
 E= -1926.37600772433     Delta-E=       -0.000119796657 Rises=F Damp=F
 DIIS: error= 5.89D-04 at cycle  12 NSaved=  12.
 NSaved=12 IEnMin=12 EnMin= -1926.37600772433     IErMin=12 ErrMin= 5.89D-04
 ErrMax= 5.89D-04  0.00D+00 EMaxC= 1.00D+00 BMatC= 4.14D-05 BMatP= 5.08D-05
 IDIUse=1 WtCom= 1.00D+00 WtEn= 0.00D+00
 Coeff-Com:  0.215D-02-0.492D-02 0.779D-02 0.777D-01-0.769D-01-0.445D+00
 Coeff-Com:  0.254D+00 0.113D+01-0.966D-02-0.237D+01-0.809D+00 0.325D+01
 Coeff:      0.215D-02-0.492D-02 0.779D-02 0.777D-01-0.769D-01-0.445D+00
 Coeff:      0.254D+00 0.113D+01-0.966D-02-0.237D+01-0.809D+00 0.325D+01
 Gap=     0.267 Goal=   None    Shift=    0.500
 Gap=     0.129 Goal=   None    Shift=    0.500
 RMSDP=3.62D-05 MaxDP=2.73D-03 DE=-1.20D-04 OVMax= 7.79D-03

 Cycle  13  Pass 1  IDiag  1:
 E= -1926.37612411313     Delta-E=       -0.000116388807 Rises=F Damp=F
 DIIS: error= 6.19D-04 at cycle  13 NSaved=  13.
 NSaved=13 IEnMin=13 EnMin= -1926.37612411313     IErMin=12 ErrMin= 5.89D-04
 ErrMax= 6.19D-04  0.00D+00 EMaxC= 1.00D+00 BMatC= 3.76D-05 BMatP= 4.14D-05
 IDIUse=1 WtCom= 1.00D+00 WtEn= 0.00D+00
 Coeff-Com: -0.277D-02 0.606D-02-0.313D-02 0.753D-01-0.349D-01-0.440D+00
 Coeff-Com:  0.171D+00 0.886D+00 0.403D+00-0.176D+01-0.173D+01 0.265D+01
 Coeff-Com:  0.774D+00
 Coeff:     -0.277D-02 0.606D-02-0.313D-02 0.753D-01-0.349D-01-0.440D+00
 Coeff:      0.171D+00 0.886D+00 0.403D+00-0.176D+01-0.173D+01 0.265D+01
 Coeff:      0.774D+00
 Gap=     0.267 Goal=   None    Shift=    0.500
 Gap=     0.130 Goal=   None    Shift=    0.500
 RMSDP=2.56D-05 MaxDP=1.45D-03 DE=-1.16D-04 OVMax= 6.85D-03

 Cycle  14  Pass 1  IDiag  1:
 E= -1926.37620967525     Delta-E=       -0.000085562120 Rises=F Damp=F
 DIIS: error= 6.22D-04 at cycle  14 NSaved=  14.
 NSaved=14 IEnMin=14 EnMin= -1926.37620967525     IErMin=12 ErrMin= 5.89D-04
 ErrMax= 6.22D-04  0.00D+00 EMaxC= 1.00D+00 BMatC= 3.16D-05 BMatP= 3.76D-05
 IDIUse=1 WtCom= 1.00D+00 WtEn= 0.00D+00
 Coeff-Com: -0.805D-02 0.773D-02 0.217D-02-0.686D-01 0.550D-01 0.350D+00
 Coeff-Com: -0.150D+00-0.101D+01 0.277D+00 0.232D+01-0.182D+01-0.582D+00
 Coeff-Com: -0.273D+01 0.436D+01
 Coeff:     -0.805D-02 0.773D-02 0.217D-02-0.686D-01 0.550D-01 0.350D+00
 Coeff:     -0.150D+00-0.101D+01 0.277D+00 0.232D+01-0.182D+01-0.582D+00
 Coeff:     -0.273D+01 0.436D+01
 Gap=     0.266 Goal=   None    Shift=    0.500
 Gap=     0.130 Goal=   None    Shift=    0.500
 RMSDP=3.54D-05 MaxDP=2.38D-03 DE=-8.56D-05 OVMax= 8.83D-03

 Cycle  15  Pass 1  IDiag  1:
 E= -1926.37630718064     Delta-E=       -0.000097505386 Rises=F Damp=F
 DIIS: error= 6.50D-04 at cycle  15 NSaved=  15.
 NSaved=15 IEnMin=15 EnMin= -1926.37630718064     IErMin=12 ErrMin= 5.89D-04
 ErrMax= 6.50D-04  0.00D+00 EMaxC= 1.00D+00 BMatC= 3.23D-05 BMatP= 3.16D-05
 IDIUse=1 WtCom= 1.00D+00 WtEn= 0.00D+00
 Coeff-Com: -0.213D-02-0.366D-02 0.113D-01-0.762D-01 0.383D-02 0.429D+00
 Coeff-Com: -0.424D-01-0.104D+01-0.170D+00 0.211D+01-0.129D+00-0.797D+00
 Coeff-Com: -0.442D+01 0.391D+01 0.121D+01
 Coeff:     -0.213D-02-0.366D-02 0.113D-01-0.762D-01 0.383D-02 0.429D+00
 Coeff:     -0.424D-01-0.104D+01-0.170D+00 0.211D+01-0.129D+00-0.797D+00
 Coeff:     -0.442D+01 0.391D+01 0.121D+01
 Gap=     0.265 Goal=   None    Shift=    0.500
 Gap=     0.130 Goal=   None    Shift=    0.500
 RMSDP=2.91D-05 MaxDP=2.11D-03 DE=-9.75D-05 OVMax= 8.24D-03

 Cycle  16  Pass 1  IDiag  1:
 E= -1926.37638739654     Delta-E=       -0.000080215903 Rises=F Damp=F
 DIIS: error= 6.55D-04 at cycle  16 NSaved=  16.
 NSaved=16 IEnMin=16 EnMin= -1926.37638739654     IErMin=12 ErrMin= 5.89D-04
 ErrMax= 6.55D-04  0.00D+00 EMaxC= 1.00D+00 BMatC= 2.88D-05 BMatP= 3.16D-05
 IDIUse=1 WtCom= 1.00D+00 WtEn= 0.00D+00
 Coeff-Com:  0.170D-02-0.824D-02 0.134D-01-0.391D-02-0.812D-01 0.711D-01
 Coeff-Com:  0.188D+00 0.491D-01-0.555D+00-0.515D+00 0.169D+01 0.671D+00
 Coeff-Com: -0.298D+01 0.111D+01-0.220D+01 0.355D+01
 Coeff:      0.170D-02-0.824D-02 0.134D-01-0.391D-02-0.812D-01 0.711D-01
 Coeff:      0.188D+00 0.491D-01-0.555D+00-0.515D+00 0.169D+01 0.671D+00
 Coeff:     -0.298D+01 0.111D+01-0.220D+01 0.355D+01
 Gap=     0.264 Goal=   None    Shift=    0.500
 Gap=     0.131 Goal=   None    Shift=    0.500
 RMSDP=3.31D-05 MaxDP=2.72D-03 DE=-8.02D-05 OVMax= 8.99D-03

 Cycle  17  Pass 1  IDiag  1:
 E= -1926.37646634462     Delta-E=       -0.000078948080 Rises=F Damp=F
 DIIS: error= 6.62D-04 at cycle  17 NSaved=  17.
 NSaved=17 IEnMin=17 EnMin= -1926.37646634462     IErMin=12 ErrMin= 5.89D-04
 ErrMax= 6.62D-04  0.00D+00 EMaxC= 1.00D+00 BMatC= 2.84D-05 BMatP= 2.88D-05
 IDIUse=1 WtCom= 1.00D+00 WtEn= 0.00D+00
 Coeff-Com: -0.188D-02-0.609D-03 0.656D-02 0.134D-01-0.598D-01-0.502D-01
 Coeff-Com:  0.183D+00 0.155D+00-0.230D+00-0.707D+00 0.591D+00 0.131D+01
 Coeff-Com: -0.146D+01 0.967D+00-0.331D+01 0.148D+01 0.211D+01
 Coeff:     -0.188D-02-0.609D-03 0.656D-02 0.134D-01-0.598D-01-0.502D-01
 Coeff:      0.183D+00 0.155D+00-0.230D+00-0.707D+00 0.591D+00 0.131D+01
 Coeff:     -0.146D+01 0.967D+00-0.331D+01 0.148D+01 0.211D+01
 Gap=     0.264 Goal=   None    Shift=    0.500
 Gap=     0.131 Goal=   None    Shift=    0.500
 RMSDP=3.10D-05 MaxDP=2.70D-03 DE=-7.89D-05 OVMax= 8.74D-03

 Cycle  18  Pass 1  IDiag  1:
 E= -1926.37653681336     Delta-E=       -0.000070468731 Rises=F Damp=F
 DIIS: error= 6.60D-04 at cycle  18 NSaved=  18.
 NSaved=18 IEnMin=18 EnMin= -1926.37653681336     IErMin=12 ErrMin= 5.89D-04
 ErrMax= 6.60D-04  0.00D+00 EMaxC= 1.00D+00 BMatC= 2.68D-05 BMatP= 2.84D-05
 IDIUse=1 WtCom= 1.00D+00 WtEn= 0.00D+00
 Coeff-Com: -0.647D-02 0.464D-02 0.561D-02-0.354D-01 0.144D-01 0.159D+00
 Coeff-Com:  0.139D-01-0.579D+00 0.218D+00 0.107D+01-0.143D+01 0.564D+00
 Coeff-Com: -0.121D+01 0.267D+01-0.748D+00-0.157D+01-0.259D+01 0.445D+01
 Coeff:     -0.647D-02 0.464D-02 0.561D-02-0.354D-01 0.144D-01 0.159D+00
 Coeff:      0.139D-01-0.579D+00 0.218D+00 0.107D+01-0.143D+01 0.564D+00
 Coeff:     -0.121D+01 0.267D+01-0.748D+00-0.157D+01-0.259D+01 0.445D+01
 Gap=     0.263 Goal=   None    Shift=    0.500
 Gap=     0.131 Goal=   None    Shift=    0.500
 RMSDP=3.72D-05 MaxDP=3.42D-03 DE=-7.05D-05 OVMax= 9.85D-03

 Cycle  19  Pass 1  IDiag  1:
 E= -1926.37660970598     Delta-E=       -0.000072892627 Rises=F Damp=F
 DIIS: error= 6.61D-04 at cycle  19 NSaved=  19.
 NSaved=19 IEnMin=19 EnMin= -1926.37660970598     IErMin=12 ErrMin= 5.89D-04
 ErrMax= 6.61D-04  0.00D+00 EMaxC= 1.00D+00 BMatC= 2.91D-05 BMatP= 2.68D-05
 IDIUse=1 WtCom= 1.00D+00 WtEn= 0.00D+00
 Coeff-Com: -0.507D-02 0.178D-02 0.797D-02-0.512D-01 0.118D-01 0.252D+00
 Coeff-Com:  0.789D-02-0.757D+00 0.924D-01 0.145D+01-0.112D+01 0.227D+00
 Coeff-Com: -0.237D+01 0.346D+01 0.324D-01-0.804D+00-0.407D+01 0.340D+01
 Coeff-Com:  0.124D+01
 Coeff:     -0.507D-02 0.178D-02 0.797D-02-0.512D-01 0.118D-01 0.252D+00
 Coeff:      0.789D-02-0.757D+00 0.924D-01 0.145D+01-0.112D+01 0.227D+00
 Coeff:     -0.237D+01 0.346D+01 0.324D-01-0.804D+00-0.407D+01 0.340D+01
 Coeff:      0.124D+01
 Gap=     0.262 Goal=   None    Shift=    0.500
 Gap=     0.132 Goal=   None    Shift=    0.500
 RMSDP=2.84D-05 MaxDP=2.48D-03 DE=-7.29D-05 OVMax= 8.56D-03

 Cycle  20  Pass 1  IDiag  1:
 E= -1926.37666963780     Delta-E=       -0.000059931823 Rises=F Damp=F
 DIIS: error= 6.44D-04 at cycle  20 NSaved=  20.
 NSaved=20 IEnMin=20 EnMin= -1926.37666963780     IErMin=12 ErrMin= 5.89D-04
 ErrMax= 6.44D-04  0.00D+00 EMaxC= 1.00D+00 BMatC= 2.52D-05 BMatP= 2.68D-05
 IDIUse=1 WtCom= 1.00D+00 WtEn= 0.00D+00
 Coeff-Com:  0.361D-02-0.942D-02 0.112D-01-0.101D-01-0.554D-01 0.860D-01
 Coeff-Com:  0.768D-01 0.631D-01-0.428D+00-0.269D+00 0.133D+01-0.157D+00
 Coeff-Com: -0.169D+01 0.566D+00-0.559D-01 0.231D+01-0.892D+00-0.158D+01
 Coeff-Com: -0.445D+01 0.613D+01
 Coeff:      0.361D-02-0.942D-02 0.112D-01-0.101D-01-0.554D-01 0.860D-01
 Coeff:      0.768D-01 0.631D-01-0.428D+00-0.269D+00 0.133D+01-0.157D+00
 Coeff:     -0.169D+01 0.566D+00-0.559D-01 0.231D+01-0.892D+00-0.158D+01
 Coeff:     -0.445D+01 0.613D+01
 Gap=     0.261 Goal=   None    Shift=    0.500
 Gap=     0.132 Goal=   None    Shift=    0.500
 RMSDP=4.27D-05 MaxDP=3.80D-03 DE=-5.99D-05 OVMax= 1.13D-02

 Cycle  21  Pass 1  IDiag  1:
 E= -1926.37674118708     Delta-E=       -0.000071549272 Rises=F Damp=F
 DIIS: error= 6.41D-04 at cycle  21 NSaved=  20.
 NSaved=20 IEnMin=20 EnMin= -1926.37674118708     IErMin=11 ErrMin= 5.89D-04
 ErrMax= 6.41D-04  0.00D+00 EMaxC= 1.00D+00 BMatC= 3.16D-05 BMatP= 2.52D-05
 IDIUse=1 WtCom= 1.00D+00 WtEn= 0.00D+00
 Coeff-Com: -0.302D-02 0.702D-02 0.744D-02-0.767D-01 0.977D-02 0.139D+00
 Coeff-Com:  0.245D+00-0.431D+00-0.832D+00 0.171D+01 0.139D+00-0.140D+01
 Coeff-Com: -0.815D-01-0.117D+01 0.288D+01 0.207D+01-0.275D+01-0.712D+01
 Coeff-Com:  0.642D+01 0.123D+01
 Coeff:     -0.302D-02 0.702D-02 0.744D-02-0.767D-01 0.977D-02 0.139D+00
 Coeff:      0.245D+00-0.431D+00-0.832D+00 0.171D+01 0.139D+00-0.140D+01
 Coeff:     -0.815D-01-0.117D+01 0.288D+01 0.207D+01-0.275D+01-0.712D+01
 Coeff:      0.642D+01 0.123D+01
 Gap=     0.261 Goal=   None    Shift=    0.500
 Gap=     0.132 Goal=   None    Shift=    0.500
 RMSDP=3.52D-05 MaxDP=2.97D-03 DE=-7.15D-05 OVMax= 1.03D-02

 Cycle  22  Pass 1  IDiag  1:
 E= -1926.37680307832     Delta-E=       -0.000061891242 Rises=F Damp=F
 DIIS: error= 6.20D-04 at cycle  22 NSaved=  20.
 NSaved=20 IEnMin=20 EnMin= -1926.37680307832     IErMin=10 ErrMin= 5.89D-04
 ErrMax= 6.20D-04  0.00D+00 EMaxC= 1.00D+00 BMatC= 2.97D-05 BMatP= 2.52D-05
 IDIUse=1 WtCom= 1.00D+00 WtEn= 0.00D+00
 Coeff-Com:  0.802D-03 0.206D-01-0.341D-01-0.815D-01 0.107D+00 0.172D+00
 Coeff-Com: -0.609D-01-0.571D+00 0.271D+00 0.778D+00-0.438D+00 0.126D+00
 Coeff-Com: -0.156D+01 0.729D+00 0.200D+01 0.220D+00-0.455D+01 0.310D+01
 Coeff-Com: -0.283D+01 0.360D+01
 Coeff:      0.802D-03 0.206D-01-0.341D-01-0.815D-01 0.107D+00 0.172D+00
 Coeff:     -0.609D-01-0.571D+00 0.271D+00 0.778D+00-0.438D+00 0.126D+00
 Coeff:     -0.156D+01 0.729D+00 0.200D+01 0.220D+00-0.455D+01 0.310D+01
 Coeff:     -0.283D+01 0.360D+01
 Gap=     0.260 Goal=   None    Shift=    0.500
 Gap=     0.132 Goal=   None    Shift=    0.500
 RMSDP=3.20D-05 MaxDP=2.62D-03 DE=-6.19D-05 OVMax= 9.68D-03

 Cycle  23  Pass 1  IDiag  1:
 E= -1926.37685748082     Delta-E=       -0.000054402497 Rises=F Damp=F
 DIIS: error= 5.92D-04 at cycle  23 NSaved=  20.
 NSaved=20 IEnMin=20 EnMin= -1926.37685748082     IErMin= 9 ErrMin= 5.89D-04
 ErrMax= 5.92D-04  0.00D+00 EMaxC= 1.00D+00 BMatC= 2.56D-05 BMatP= 2.52D-05
 IDIUse=1 WtCom= 1.00D+00 WtEn= 0.00D+00
 Coeff-Com: -0.819D-02 0.296D-01 0.340D-01-0.663D-01-0.190D+00 0.155D+00
 Coeff-Com:  0.518D+00-0.795D+00 0.274D+00-0.212D+00 0.742D+00-0.308D-01
 Coeff-Com: -0.731D+00-0.123D+01 0.213D+01 0.610D-01 0.604D+00-0.338D+01
 Coeff-Com: -0.683D+00 0.378D+01
 Coeff:     -0.819D-02 0.296D-01 0.340D-01-0.663D-01-0.190D+00 0.155D+00
 Coeff:      0.518D+00-0.795D+00 0.274D+00-0.212D+00 0.742D+00-0.308D-01
 Coeff:     -0.731D+00-0.123D+01 0.213D+01 0.610D-01 0.604D+00-0.338D+01
 Coeff:     -0.683D+00 0.378D+01
 Gap=     0.260 Goal=   None    Shift=    0.500
 Gap=     0.133 Goal=   None    Shift=    0.500
 RMSDP=3.42D-05 MaxDP=2.91D-03 DE=-5.44D-05 OVMax= 9.99D-03

 Cycle  24  Pass 1  IDiag  1:
 E= -1926.37690787945     Delta-E=       -0.000050398631 Rises=F Damp=F
 DIIS: error= 5.66D-04 at cycle  24 NSaved=  20.
 NSaved=20 IEnMin=20 EnMin= -1926.37690787945     IErMin=20 ErrMin= 5.66D-04
 ErrMax= 5.66D-04  0.00D+00 EMaxC= 1.00D+00 BMatC= 2.56D-05 BMatP= 2.52D-05
 IDIUse=1 WtCom= 1.00D+00 WtEn= 0.00D+00
 Coeff-Com: -0.751D-02 0.158D-01-0.330D-01 0.959D-01-0.124D+00-0.984D-01
 Coeff-Com:  0.334D+00 0.801D-01-0.473D+00 0.192D+00-0.394D+00 0.111D+01
 Coeff-Com: -0.787D+00 0.198D+00-0.205D+01 0.319D+01-0.468D+00-0.327D+01
 Coeff-Com:  0.111D+01 0.237D+01
 Coeff:     -0.751D-02 0.158D-01-0.330D-01 0.959D-01-0.124D+00-0.984D-01
 Coeff:      0.334D+00 0.801D-01-0.473D+00 0.192D+00-0.394D+00 0.111D+01
 Coeff:     -0.787D+00 0.198D+00-0.205D+01 0.319D+01-0.468D+00-0.327D+01
 Coeff:      0.111D+01 0.237D+01
 Gap=     0.259 Goal=   None    Shift=    0.500
 Gap=     0.133 Goal=   None    Shift=    0.500
 RMSDP=2.85D-05 MaxDP=2.39D-03 DE=-5.04D-05 OVMax= 8.93D-03

 Cycle  25  Pass 1  IDiag  1:
 E= -1926.37694994332     Delta-E=       -0.000042063874 Rises=F Damp=F
 DIIS: error= 5.35D-04 at cycle  25 NSaved=  20.
 NSaved=20 IEnMin=20 EnMin= -1926.37694994332     IErMin=20 ErrMin= 5.35D-04
 ErrMax= 5.35D-04  0.00D+00 EMaxC= 1.00D+00 BMatC= 2.27D-05 BMatP= 2.52D-05
 IDIUse=1 WtCom= 1.00D+00 WtEn= 0.00D+00
 Coeff-Com:  0.328D-01-0.358D-01-0.558D-02-0.116D+00 0.594D-01 0.282D+00
 Coeff-Com: -0.787D-01-0.622D+00 0.456D+00-0.804D-02 0.115D+01-0.593D+00
 Coeff-Com: -0.740D+00-0.353D+01 0.471D+01 0.111D+01-0.174D+01-0.193D+01
 Coeff-Com: -0.100D+01 0.360D+01
 Coeff:      0.328D-01-0.358D-01-0.558D-02-0.116D+00 0.594D-01 0.282D+00
 Coeff:     -0.787D-01-0.622D+00 0.456D+00-0.804D-02 0.115D+01-0.593D+00
 Coeff:     -0.740D+00-0.353D+01 0.471D+01 0.111D+01-0.174D+01-0.193D+01
 Coeff:     -0.100D+01 0.360D+01
 Gap=     0.259 Goal=   None    Shift=    0.500
 Gap=     0.133 Goal=   None    Shift=    0.500
 RMSDP=2.56D-05 MaxDP=2.16D-03 DE=-4.21D-05 OVMax= 8.26D-03

 Cycle  26  Pass 1  IDiag  1:
 E= -1926.37698597062     Delta-E=       -0.000036027304 Rises=F Damp=F
 DIIS: error= 4.99D-04 at cycle  26 NSaved=  20.
 NSaved=20 IEnMin=20 EnMin= -1926.37698597062     IErMin=20 ErrMin= 4.99D-04
 ErrMax= 4.99D-04  0.00D+00 EMaxC= 1.00D+00 BMatC= 1.86D-05 BMatP= 2.27D-05
 IDIUse=1 WtCom= 1.00D+00 WtEn= 0.00D+00
 Coeff-Com:  0.191D-01 0.215D-01-0.420D-01-0.270D+00 0.278D+00 0.213D+00
 Coeff-Com: -0.162D+00-0.877D-01-0.374D+00 0.536D+00 0.135D+01-0.119D+01
 Coeff-Com: -0.338D+01 0.324D+01-0.644D-01 0.177D+01-0.108D+01-0.363D+01
 Coeff-Com:  0.108D+01 0.278D+01
 Coeff:      0.191D-01 0.215D-01-0.420D-01-0.270D+00 0.278D+00 0.213D+00
 Coeff:     -0.162D+00-0.877D-01-0.374D+00 0.536D+00 0.135D+01-0.119D+01
 Coeff:     -0.338D+01 0.324D+01-0.644D-01 0.177D+01-0.108D+01-0.363D+01
 Coeff:      0.108D+01 0.278D+01
 Gap=     0.259 Goal=   None    Shift=    0.500
 Gap=     0.133 Goal=   None    Shift=    0.500
 RMSDP=2.33D-05 MaxDP=1.94D-03 DE=-3.60D-05 OVMax= 7.68D-03

 Cycle  27  Pass 1  IDiag  1:
 E= -1926.37701658209     Delta-E=       -0.000030611463 Rises=F Damp=F
 DIIS: error= 4.63D-04 at cycle  27 NSaved=  20.
 NSaved=20 IEnMin=20 EnMin= -1926.37701658209     IErMin=20 ErrMin= 4.63D-04
 ErrMax= 4.63D-04  0.00D+00 EMaxC= 1.00D+00 BMatC= 1.56D-05 BMatP= 1.86D-05
 IDIUse=1 WtCom= 1.00D+00 WtEn= 0.00D+00
 Coeff-Com: -0.104D+00 0.248D+00 0.194D+00-0.809D+00 0.323D+00-0.674D-01
 Coeff-Com:  0.670D+00 0.117D+00-0.126D+01 0.121D+00 0.960D+00 0.478D+00
 Coeff-Com: -0.708D+00-0.215D+01 0.204D+01 0.191D+01-0.184D+01-0.184D+01
 Coeff-Com: -0.574D+00 0.331D+01
 Coeff:     -0.104D+00 0.248D+00 0.194D+00-0.809D+00 0.323D+00-0.674D-01
 Coeff:      0.670D+00 0.117D+00-0.126D+01 0.121D+00 0.960D+00 0.478D+00
 Coeff:     -0.708D+00-0.215D+01 0.204D+01 0.191D+01-0.184D+01-0.184D+01
 Coeff:     -0.574D+00 0.331D+01
 Gap=     0.259 Goal=   None    Shift=    0.500
 Gap=     0.133 Goal=   None    Shift=    0.500
 RMSDP=2.33D-05 MaxDP=1.97D-03 DE=-3.06D-05 OVMax= 7.46D-03

 Cycle  28  Pass 1  IDiag  1:
 E= -1926.37704329866     Delta-E=       -0.000026716577 Rises=F Damp=F
 DIIS: error= 4.30D-04 at cycle  28 NSaved=  20.
 NSaved=20 IEnMin=20 EnMin= -1926.37704329866     IErMin=20 ErrMin= 4.30D-04
 ErrMax= 4.30D-04  0.00D+00 EMaxC= 1.00D+00 BMatC= 1.43D-05 BMatP= 1.56D-05
 IDIUse=1 WtCom= 1.00D+00 WtEn= 0.00D+00
 Coeff-Com: -0.204D-01 0.957D-01-0.493D-01 0.165D+00-0.911D+00 0.875D+00
 Coeff-Com: -0.467D-01 0.286D+00-0.861D+00 0.565D+00-0.242D+00 0.667D+00
 Coeff-Com: -0.736D+00-0.868D+00 0.127D+01 0.117D+01-0.946D+00-0.251D+01
 Coeff-Com:  0.188D+00 0.292D+01
 Coeff:     -0.204D-01 0.957D-01-0.493D-01 0.165D+00-0.911D+00 0.875D+00
 Coeff:     -0.467D-01 0.286D+00-0.861D+00 0.565D+00-0.242D+00 0.667D+00
 Coeff:     -0.736D+00-0.868D+00 0.127D+01 0.117D+01-0.946D+00-0.251D+01
 Coeff:      0.188D+00 0.292D+01
 Gap=     0.258 Goal=   None    Shift=    0.500
 Gap=     0.133 Goal=   None    Shift=    0.500
 RMSDP=1.97D-05 MaxDP=1.64D-03 DE=-2.67D-05 OVMax= 6.64D-03

 Cycle  29  Pass 1  IDiag  1:
 E= -1926.37706564659     Delta-E=       -0.000022347927 Rises=F Damp=F
 DIIS: error= 3.96D-04 at cycle  29 NSaved=  20.
 NSaved=20 IEnMin=20 EnMin= -1926.37706564659     IErMin=20 ErrMin= 3.96D-04
 ErrMax= 3.96D-04  0.00D+00 EMaxC= 1.00D+00 BMatC= 1.18D-05 BMatP= 1.43D-05
 IDIUse=1 WtCom= 1.00D+00 WtEn= 0.00D+00
 Coeff-Com: -0.557D-01 0.218D+00 0.652D-01-0.699D+00 0.421D+00-0.384D+00
 Coeff-Com:  0.102D+01-0.110D+00-0.283D+00-0.223D+01 0.245D+01 0.654D+00
 Coeff-Com: -0.164D+01-0.252D+00 0.149D+01 0.665D+00-0.158D+01-0.205D+01
 Coeff-Com:  0.902D+00 0.240D+01
 Coeff:     -0.557D-01 0.218D+00 0.652D-01-0.699D+00 0.421D+00-0.384D+00
 Coeff:      0.102D+01-0.110D+00-0.283D+00-0.223D+01 0.245D+01 0.654D+00
 Coeff:     -0.164D+01-0.252D+00 0.149D+01 0.665D+00-0.158D+01-0.205D+01
 Coeff:      0.902D+00 0.240D+01
 Gap=     0.258 Goal=   None    Shift=    0.500
 Gap=     0.134 Goal=   None    Shift=    0.500
 RMSDP=1.91D-05 MaxDP=1.54D-03 DE=-2.23D-05 OVMax= 6.33D-03

 Cycle  30  Pass 1  IDiag  1:
 E= -1926.37708512942     Delta-E=       -0.000019482824 Rises=F Damp=F
 DIIS: error= 3.65D-04 at cycle  30 NSaved=  20.
 NSaved=20 IEnMin=20 EnMin= -1926.37708512942     IErMin=20 ErrMin= 3.65D-04
 ErrMax= 3.65D-04  0.00D+00 EMaxC= 1.00D+00 BMatC= 1.06D-05 BMatP= 1.18D-05
 IDIUse=1 WtCom= 1.00D+00 WtEn= 0.00D+00
 Coeff-Com: -0.115D+00 0.196D+00-0.340D-01 0.188D-01-0.255D+00 0.586D+00
 Coeff-Com:  0.222D+00-0.792D+00-0.247D+01 0.315D+01 0.645D+00-0.269D+00
 Coeff-Com: -0.161D+01-0.133D+01 0.223D+01 0.184D+01-0.157D+01-0.284D+01
 Coeff-Com:  0.507D+00 0.288D+01
 Coeff:     -0.115D+00 0.196D+00-0.340D-01 0.188D-01-0.255D+00 0.586D+00
 Coeff:      0.222D+00-0.792D+00-0.247D+01 0.315D+01 0.645D+00-0.269D+00
 Coeff:     -0.161D+01-0.133D+01 0.223D+01 0.184D+01-0.157D+01-0.284D+01
 Coeff:      0.507D+00 0.288D+01
 Gap=     0.258 Goal=   None    Shift=    0.500
 Gap=     0.134 Goal=   None    Shift=    0.500
 RMSDP=2.05D-05 MaxDP=1.75D-03 DE=-1.95D-05 OVMax= 6.48D-03

 Cycle  31  Pass 1  IDiag  1:
 E= -1926.37710300976     Delta-E=       -0.000017880342 Rises=F Damp=F
 DIIS: error= 3.36D-04 at cycle  31 NSaved=  20.
 NSaved=20 IEnMin=20 EnMin= -1926.37710300976     IErMin=20 ErrMin= 3.36D-04
 ErrMax= 3.36D-04  0.00D+00 EMaxC= 1.00D+00 BMatC= 1.03D-05 BMatP= 1.06D-05
 IDIUse=1 WtCom= 1.00D+00 WtEn= 0.00D+00
 Coeff-Com:  0.125D+00-0.320D+00 0.257D+00-0.184D+00 0.349D+00 0.526D+00
 Coeff-Com: -0.766D+00-0.205D+01 0.233D+01-0.237D+00 0.132D+01-0.822D+00
 Coeff-Com: -0.246D+01 0.683D+00 0.211D+01 0.885D+00-0.265D+01-0.837D+00
 Coeff-Com:  0.707D+00 0.202D+01
 Coeff:      0.125D+00-0.320D+00 0.257D+00-0.184D+00 0.349D+00 0.526D+00
 Coeff:     -0.766D+00-0.205D+01 0.233D+01-0.237D+00 0.132D+01-0.822D+00
 Coeff:     -0.246D+01 0.683D+00 0.211D+01 0.885D+00-0.265D+01-0.837D+00
 Coeff:      0.707D+00 0.202D+01
 Gap=     0.258 Goal=   None    Shift=    0.500
 Gap=     0.134 Goal=   None    Shift=    0.500
 RMSDP=1.65D-05 MaxDP=1.37D-03 DE=-1.79D-05 OVMax= 5.59D-03

 Cycle  32  Pass 1  IDiag  1:
 E= -1926.37711766052     Delta-E=       -0.000014650765 Rises=F Damp=F
 DIIS: error= 3.06D-04 at cycle  32 NSaved=  20.
 NSaved=20 IEnMin=20 EnMin= -1926.37711766052     IErMin=20 ErrMin= 3.06D-04
 ErrMax= 3.06D-04  0.00D+00 EMaxC= 1.00D+00 BMatC= 8.36D-06 BMatP= 1.03D-05
 IDIUse=1 WtCom= 1.00D+00 WtEn= 0.00D+00
 Coeff-Com: -0.467D+00 0.735D+00 0.497D-01-0.277D+00-0.322D+00 0.455D+00
 Coeff-Com:  0.987D-02-0.610D-01-0.834D+00 0.440D+00 0.122D+01-0.129D+00
 Coeff-Com: -0.185D+01-0.136D+01 0.323D+01 0.112D+01-0.146D+01-0.259D+01
 Coeff-Com: -0.353D+00 0.343D+01
 Coeff:     -0.467D+00 0.735D+00 0.497D-01-0.277D+00-0.322D+00 0.455D+00
 Coeff:      0.987D-02-0.610D-01-0.834D+00 0.440D+00 0.122D+01-0.129D+00
 Coeff:     -0.185D+01-0.136D+01 0.323D+01 0.112D+01-0.146D+01-0.259D+01
 Coeff:     -0.353D+00 0.343D+01
 Gap=     0.258 Goal=   None    Shift=    0.500
 Gap=     0.134 Goal=   None    Shift=    0.500
 RMSDP=1.69D-05 MaxDP=1.49D-03 DE=-1.47D-05 OVMax= 5.54D-03

 >>>>>>>>>> Convergence criterion not met.
 SCF Done:  E(ULC-wHPBE) =  -1926.37711766     A.U. after   33 cycles
            NFock= 32  Conv=0.17D-04     -V/T= 2.0037
 <Sx>= 0.0000 <Sy>= 0.0000 <Sz>= 0.5000 <S**2>= 0.7598 S= 0.5049
 <L.S>= 0.000000000000E+00
 KE= 1.919260120761D+03 PE=-1.015197594592D+04 EE= 3.479092427424D+03
 Annihilation of the first spin contaminant:
 S**2 before annihilation     0.7598,   after     0.7501
 Leave Link  502 at Mon Jan 18 07:22:03 2021, MaxMem=  4026531840 cpu:           16485.0 elap:            2066.1
 (Enter /opt/ohpc/pub/libs/gaussian/g16-A.03/sandybridge/g16/l508.exe)
 Integral symmetry usage will be decided dynamically.
 Tight linear equation convergence will be used.
 ULC-wHPBE wavefunction.
 Quadratic Convergence SCF Method.
 Line search only if initial step raises energy.
 FoFJK:  IHMeth= 1 ICntrl=       0 DoSepK=T KAlg= 0 I1Cent=           0 FoldK=F
 IRaf=         1 NMat=       1 IRICut=       1 DoRegI=T DoRafI=F ISym2E= 1 IDoP0=0 IntGTp=1.
 FoFCou: FMM=F IPFlag=           0 FMFlag=      100000 FMFlg1=           0
         NFxFlg=           0 DoJE=T BraDBF=F KetDBF=F FulRan=T
         wScrn=  0.000000 ICntrl=       500 IOpCl=  0 I1Cent=           0 NGrid=           0
         NMat0=    1 NMatS0=      1 NMatT0=    0 NMatD0=    1 NMtDS0=    0 NMtDT0=    0
 Petite list used in FoFCou.
 Iteration   1 EE= -1926.37713076412                                    Grad=1.887D-03 Max rot=    0.0698 deg.
 QCNR:  CnvC1=1.89D-08 CnvC2=1.89D-07
 LinEq1:  Iter=  0 NonCon=     1 RMS=2.69D-05 Max=9.10D-03 NDo=     1
 AX will form     1 AO Fock derivatives at one time.
 LinEq1:  Iter=  1 NonCon=     1 RMS=9.18D-06 Max=5.69D-04 NDo=     1
 LinEq1:  Iter=  2 NonCon=     1 RMS=6.23D-06 Max=1.18D-03 NDo=     1
 LinEq1:  Iter=  3 NonCon=     1 RMS=3.10D-06 Max=3.04D-04 NDo=     1
 LinEq1:  Iter=  4 NonCon=     1 RMS=1.73D-06 Max=1.68D-04 NDo=     1
 LinEq1:  Iter=  5 NonCon=     1 RMS=1.12D-06 Max=1.01D-04 NDo=     1
 LinEq1:  Iter=  6 NonCon=     1 RMS=5.72D-07 Max=5.43D-05 NDo=     1
 LinEq1:  Iter=  7 NonCon=     1 RMS=3.28D-07 Max=1.68D-05 NDo=     1
 LinEq1:  Iter=  8 NonCon=     1 RMS=2.06D-07 Max=1.13D-05 NDo=     1
 LinEq1:  Iter=  9 NonCon=     1 RMS=1.04D-07 Max=5.38D-06 NDo=     1
 LinEq1:  Iter= 10 NonCon=     1 RMS=5.82D-08 Max=4.39D-06 NDo=     1
 LinEq1:  Iter= 11 NonCon=     1 RMS=3.14D-08 Max=3.60D-06 NDo=     1
 LinEq1:  Iter= 12 NonCon=     1 RMS=1.28D-08 Max=1.18D-06 NDo=     1
 LinEq1:  Iter= 13 NonCon=     1 RMS=7.41D-09 Max=5.23D-07 NDo=     1
 LinEq1:  Iter= 14 NonCon=     1 RMS=3.57D-09 Max=2.05D-07 NDo=     1
 LinEq1:  Iter= 15 NonCon=     0 RMS=1.85D-09 Max=1.35D-07 NDo=     1
 Linear equations converged to 1.887D-08 1.887D-07 after    15 iterations.
 Angle between quadratic step and gradient=  52.28 degrees.
     ILin= 1 X=0.000D+00 Y=-1.926377130764D+03 DE= 0.00D+00 F= -1.11D-04
     ILin= 2 X=1.000D+00 Y=-1.926377185383D+03 DE=-5.46D-05
 Iteration   2 EE= -1926.37718538334     Delta-E=       -0.000054619217 Grad=6.389D-04 Max rot=    0.0040 deg.
 QCNR:  CnvC1=6.39D-09 CnvC2=6.39D-08
 LinEq1:  Iter=  0 NonCon=     1 RMS=2.67D-06 Max=1.69D-04 NDo=     1
 LinEq1:  Iter=  1 NonCon=     1 RMS=1.84D-06 Max=2.96D-04 NDo=     1
 LinEq1:  Iter=  2 NonCon=     1 RMS=1.02D-06 Max=1.50D-04 NDo=     1
 LinEq1:  Iter=  3 NonCon=     1 RMS=5.93D-07 Max=8.04D-05 NDo=     1
 LinEq1:  Iter=  4 NonCon=     1 RMS=3.90D-07 Max=3.05D-05 NDo=     1
 LinEq1:  Iter=  5 NonCon=     1 RMS=2.07D-07 Max=1.41D-05 NDo=     1
 LinEq1:  Iter=  6 NonCon=     1 RMS=1.06D-07 Max=8.61D-06 NDo=     1
 LinEq1:  Iter=  7 NonCon=     1 RMS=6.47D-08 Max=6.32D-06 NDo=     1
 LinEq1:  Iter=  8 NonCon=     1 RMS=3.25D-08 Max=2.92D-06 NDo=     1
 LinEq1:  Iter=  9 NonCon=     1 RMS=1.73D-08 Max=1.64D-06 NDo=     1
 LinEq1:  Iter= 10 NonCon=     1 RMS=9.99D-09 Max=7.52D-07 NDo=     1
 LinEq1:  Iter= 11 NonCon=     1 RMS=4.29D-09 Max=2.58D-07 NDo=     1
 LinEq1:  Iter= 12 NonCon=     1 RMS=2.42D-09 Max=1.80D-07 NDo=     1
 LinEq1:  Iter= 13 NonCon=     1 RMS=1.29D-09 Max=7.05D-08 NDo=     1
 LinEq1:  Iter= 14 NonCon=     0 RMS=7.26D-10 Max=3.76D-08 NDo=     1
 Linear equations converged to 6.389D-09 6.389D-08 after    14 iterations.
 Angle between quadratic step and gradient=  68.73 degrees.
     ILin= 1 X=0.000D+00 Y=-1.926377185383D+03 DE= 0.00D+00 F= -7.13D-07
     ILin= 2 X=1.000D+00 Y=-1.926377185740D+03 DE=-3.57D-07
 Iteration   3 EE= -1926.37718574041     Delta-E=       -0.000000357070 Grad=1.289D-06 Max rot=    0.0000 deg.
 Rotation gradient small -- convergence achieved.
 SCF Done:  E(ULC-wHPBE) =  -1926.37718574     a.u. after    3 cycles
            Convg  =    0.1289D-05                    32 Fock formations.
              S**2 =  0.7598                  -V/T =  2.0037
 <Sx>= 0.0000 <Sy>= 0.0000 <Sz>= 0.5000 <S**2>= 0.7598 S= 0.5049
 <L.S>= 0.000000000000E+00
 Annihilation of the first spin contaminant:
 S**2 before annihilation     0.7598,   after     0.7501
 Leave Link  508 at Mon Jan 18 07:51:41 2021, MaxMem=  4026531840 cpu:           14167.5 elap:            1778.3
 (Enter /opt/ohpc/pub/libs/gaussian/g16-A.03/sandybridge/g16/l601.exe)
 Copying SCF densities to generalized density rwf, IOpCl= 1 IROHF=0.

 **********************************************************************

            Population analysis using the SCF density.

 **********************************************************************

 Orbital symmetries:
 Alpha Orbitals:
       Occupied  (A) (A) (A) (A) (A) (A) (A) (A) (A) (A) (A) (A)
                 (A) (A) (A) (A) (A) (A) (A) (A) (A) (A) (A) (A)
                 (A) (A) (A) (A) (A) (A) (A) (A) (A) (A) (A) (A)
                 (A) (A) (A) (A) (A) (A) (A) (A) (A) (A) (A) (A)
                 (A) (A) (A) (A) (A) (A) (A) (A) (A) (A) (A) (A)
                 (A) (A) (A) (A) (A) (A) (A) (A) (A) (A) (A) (A)
                 (A) (A) (A) (A) (A) (A) (A) (A) (A) (A) (A) (A)
                 (A) (A) (A) (A) (A) (A) (A) (A) (A) (A) (A) (A)
                 (A) (A) (A) (A) (A) (A) (A) (A) (A) (A) (A) (A)
                 (A)
       Virtual   (A) (A) (A) (A) (A) (A) (A) (A) (A) (A) (A) (A)
                 (A) (A) (A) (A) (A) (A) (A) (A) (A) (A) (A) (A)
                 (A) (A) (A) (A) (A) (A) (A) (A) (A) (A) (A) (A)
                 (A) (A) (A) (A) (A) (A) (A) (A) (A) (A) (A) (A)
                 (A) (A) (A) (A) (A) (A) (A) (A) (A) (A) (A) (A)
                 (A) (A) (A) (A) (A) (A) (A) (A) (A) (A) (A) (A)
                 (A) (A) (A) (A) (A) (A) (A) (A) (A) (A) (A) (A)
                 (A) (A) (A) (A) (A) (A) (A) (A) (A) (A) (A) (A)
                 (A) (A) (A) (A) (A) (A) (A) (A) (A) (A) (A) (A)
                 (A) (A) (A) (A) (A) (A) (A) (A) (A) (A) (A) (A)
                 (A) (A) (A) (A) (A) (A) (A) (A) (A) (A) (A) (A)
                 (A) (A) (A) (A) (A) (A) (A) (A) (A) (A) (A) (A)
                 (A) (A) (A) (A) (A) (A) (A) (A) (A) (A) (A) (A)
                 (A) (A) (A) (A) (A) (A) (A) (A) (A) (A) (A) (A)
                 (A) (A) (A) (A) (A) (A) (A) (A) (A) (A) (A) (A)
                 (A) (A) (A) (A) (A) (A) (A) (A) (A) (A) (A) (A)
                 (A) (A) (A) (A) (A) (A) (A) (A) (A) (A) (A) (A)
                 (A) (A) (A) (A) (A) (A) (A) (A) (A) (A) (A) (A)
                 (A) (A) (A) (A) (A) (A) (A) (A) (A) (A) (A) (A)
                 (A) (A) (A) (A) (A) (A) (A) (A) (A) (A) (A) (A)
                 (A) (A) (A) (A) (A) (A) (A) (A) (A) (A) (A) (A)
                 (A) (A) (A) (A) (A) (A) (A) (A) (A) (A) (A) (A)
                 (A) (A) (A) (A) (A) (A) (A) (A) (A) (A) (A) (A)
                 (A) (A) (A) (A) (A) (A) (A) (A) (A) (A) (A) (A)
                 (A) (A) (A) (A) (A) (A) (A) (A) (A) (A) (A) (A)
                 (A) (A) (A) (A) (A) (A) (A) (A) (A) (A) (A) (A)
                 (A) (A) (A) (A) (A) (A) (A) (A) (A) (A) (A) (A)
                 (A) (A) (A) (A) (A) (A) (A) (A) (A) (A) (A) (A)
                 (A) (A) (A) (A) (A) (A) (A) (A) (A) (A) (A) (A)
                 (A) (A) (A) (A) (A) (A) (A) (A) (A) (A) (A) (A)
                 (A) (A) (A) (A) (A) (A) (A) (A) (A) (A) (A) (A)
                 (A) (A) (A) (A) (A) (A) (A) (A) (A) (A) (A) (A)
                 (A) (A) (A) (A) (A) (A) (A) (A) (A) (A) (A) (A)
                 (A) (A) (A) (A) (A) (A) (A) (A) (A) (A) (A) (A)
                 (A) (A) (A) (A) (A) (A) (A) (A) (A) (A) (A) (A)
                 (A) (A) (A) (A) (A) (A) (A) (A) (A) (A) (A) (A)
                 (A) (A) (A) (A) (A) (A) (A) (A) (A) (A) (A) (A)
                 (A) (A) (A) (A) (A) (A) (A) (A) (A) (A) (A) (A)
                 (A) (A) (A) (A) (A) (A) (A) (A) (A) (A) (A) (A)
                 (A) (A) (A) (A) (A) (A) (A) (A) (A) (A) (A) (A)
[...]
    17   Atom        0.010603     -0.004000     -0.006602
    18   Atom        0.003030      0.001012     -0.004042
    19   Atom       -0.002919      0.009501     -0.006582
    20   Atom        0.002993     -0.001453     -0.001541
    21   Atom       -0.001125      0.000848      0.000276
    22   Atom        0.001652     -0.000609     -0.001043
    23   Atom       -0.368588      0.460731     -0.092142
    24   Atom        0.004622     -0.000530     -0.004092
    25   Atom        0.002655     -0.001792     -0.000863
    26   Atom        0.000278     -0.000402      0.000124
    27   Atom        0.000663     -0.000677      0.000015
    28   Atom        0.000375     -0.000057     -0.000318
    29   Atom        0.000798     -0.000156     -0.000642
    30   Atom       -0.000111     -0.000203      0.000314
    31   Atom        0.000650     -0.000341     -0.000309
    32   Atom        0.000953     -0.000610     -0.000343
    33   Atom        0.000352     -0.000161     -0.000191
    34   Atom        0.000346     -0.000112     -0.000234
    35   Atom        0.001469     -0.000536     -0.000933
    36   Atom        0.000348     -0.000027     -0.000321
    37   Atom        0.000341      0.000070     -0.000412
    38   Atom        0.000515     -0.000210     -0.000305
    39   Atom        0.000578     -0.000096     -0.000482
    40   Atom        0.000093      0.000255     -0.000348
    41   Atom        0.000652     -0.000342     -0.000309
    42   Atom        0.000845     -0.000179     -0.000666
    43   Atom        0.000290     -0.000096     -0.000194
    44   Atom        0.000188      0.000139     -0.000326
    45   Atom       -0.000094      0.000297     -0.000203
    46   Atom        0.000134      0.000046     -0.000180
    47   Atom       -0.000373     -0.000202      0.000575
    48   Atom        0.000149     -0.000030     -0.000119
 --------------------------------------------------------
                        XY            XZ            YZ
 --------------------------------------------------------
     1   Atom       -0.010103      0.011572      0.005866
     2   Atom        0.159247      0.106059      0.088560
     3   Atom       -0.082246     -0.160268      0.204534
     4   Atom       -0.112028     -0.048393      0.016390
     5   Atom        0.137956      0.147812      0.102721
     6   Atom       -0.137904      0.006729      0.001502
     7   Atom       -0.000775      0.016513      0.005564
     8   Atom       -0.001568      0.017674      0.008494
     9   Atom       -0.003481     -0.001985      0.011746
    10   Atom        0.001256     -0.006267      0.009252
    11   Atom        0.011507     -0.004460      0.009190
    12   Atom        0.006840     -0.014655     -0.000176
    13   Atom        0.015593     -0.005068     -0.001624
    14   Atom       -0.004549     -0.002740      0.002281
    15   Atom        0.003739      0.002470      0.003748
    16   Atom        0.002369      0.001190      0.001510
    17   Atom       -0.010536      0.013772     -0.003015
    18   Atom       -0.005023     -0.001282      0.001184
    19   Atom       -0.003439     -0.000444      0.008753
    20   Atom       -0.001487      0.000726      0.000520
    21   Atom        0.003317      0.002744      0.004877
    22   Atom        0.001208      0.002304      0.001204
    23   Atom       -0.129848     -0.066689     -0.004790
    24   Atom        0.000148     -0.005668      0.000262
    25   Atom        0.000659     -0.001617     -0.000652
    26   Atom        0.000046      0.000001      0.000644
    27   Atom       -0.000032     -0.001258      0.000730
    28   Atom        0.000234      0.000138      0.000066
    29   Atom        0.000633      0.000114     -0.000671
    30   Atom       -0.000131     -0.000626      0.000879
    31   Atom       -0.000080      0.000153     -0.000038
    32   Atom        0.000770     -0.000775     -0.000384
    33   Atom        0.000072      0.000041     -0.000009
    34   Atom        0.000380     -0.000228     -0.000133
    35   Atom       -0.000481      0.000247      0.000317
    36   Atom       -0.000565     -0.000624      0.000048
    37   Atom       -0.001183      0.000126     -0.000341
    38   Atom       -0.000331      0.000004      0.000138
    39   Atom       -0.000536      0.000399     -0.000054
    40   Atom       -0.000603     -0.000422     -0.000095
    41   Atom       -0.000240     -0.000349      0.000137
    42   Atom       -0.001124      0.000898     -0.000571
    43   Atom       -0.000267     -0.000143      0.000095
    44   Atom       -0.000529      0.000211     -0.000202
    45   Atom       -0.000463     -0.000354     -0.000096
    46   Atom       -0.000245     -0.000025      0.000026
    47   Atom       -0.000320     -0.000742      0.001055
    48   Atom        0.000147     -0.000066     -0.000091
 --------------------------------------------------------


 ---------------------------------------------------------------------------------
              Anisotropic Spin Dipole Couplings in Principal Axis System
 ---------------------------------------------------------------------------------

       Atom             a.u.   MegaHertz   Gauss  10(-4) cm-1        Axes

              Baa    -0.0195    -2.619    -0.935    -0.874  0.4289  0.6541 -0.6230
     1 C(13)  Bbb    -0.0006    -0.075    -0.027    -0.025 -0.0686  0.7113  0.6996
              Bcc     0.0201     2.694     0.961     0.899  0.9007 -0.2573  0.3500
 
              Baa    -0.1328   -17.821    -6.359    -5.944  0.1071 -0.6440  0.7575
     2 C(13)  Bbb    -0.1250   -16.776    -5.986    -5.596  0.6832 -0.5059 -0.5266
              Bcc     0.2578    34.597    12.345    11.540  0.7224  0.5739  0.3858
 
              Baa    -0.3781   -15.501    -5.531    -5.171  0.9758  0.1044  0.1924
     3 S(33)  Bbb    -0.0878    -3.599    -1.284    -1.200 -0.0075  0.8944 -0.4473
              Bcc     0.4659    19.100     6.815     6.371 -0.2187  0.4350  0.8735
 
              Baa    -0.1349   -18.107    -6.461    -6.040  0.0706 -0.1975  0.9778
     4 C(13)  Bbb    -0.1294   -17.362    -6.195    -5.791  0.3202  0.9328  0.1654
              Bcc     0.2643    35.469    12.656    11.831  0.9447 -0.3014 -0.1291
 
              Baa    -0.1381   -18.527    -6.611    -6.180 -0.5073 -0.1634  0.8461
     5 C(13)  Bbb    -0.1315   -17.648    -6.297    -5.887 -0.5009  0.8549 -0.1352
              Bcc     0.2696    36.174    12.908    12.067  0.7013  0.4924  0.5155
 
              Baa    -0.1310   -17.585    -6.275    -5.866  0.3128  0.7083 -0.6328
     6 C(13)  Bbb    -0.1228   -16.482    -5.881    -5.498  0.2382  0.5865  0.7742
              Bcc     0.2539    34.067    12.156    11.364  0.9195 -0.3929  0.0147
 
              Baa    -0.0157    -2.103    -0.751    -0.702  0.4457  0.6948 -0.5645
     7 C(13)  Bbb    -0.0065    -0.876    -0.313    -0.292 -0.5353  0.7123  0.4540
              Bcc     0.0222     2.979     1.063     0.994  0.7175  0.0998  0.6893
 
              Baa    -0.0211    -2.831    -1.010    -0.944 -0.4716 -0.4190  0.7759
     8 C(13)  Bbb    -0.0004    -0.056    -0.020    -0.019 -0.3485  0.8968  0.2725
              Bcc     0.0215     2.887     1.030     0.963  0.8100  0.1419  0.5690
 
              Baa    -0.0108    -5.778    -2.062    -1.927 -0.0843 -0.6387  0.7648
     9 H(1)   Bbb    -0.0033    -1.783    -0.636    -0.595  0.9692  0.1258  0.2119
              Bcc     0.0142     7.561     2.698     2.522 -0.2316  0.7591  0.6084
 
              Baa    -0.0234    -3.143    -1.122    -1.048  0.1385 -0.4130  0.9001
    10 C(13)  Bbb     0.0014     0.187     0.067     0.062  0.0715  0.9107  0.4069
              Bcc     0.0220     2.956     1.055     0.986  0.9878 -0.0080 -0.1557
 
              Baa    -0.0213    -2.862    -1.021    -0.955  0.2649 -0.5671  0.7799
    11 C(13)  Bbb    -0.0004    -0.054    -0.019    -0.018 -0.3201  0.7112  0.6259
              Bcc     0.0217     2.916     1.041     0.973  0.9096  0.4154 -0.0069
 
              Baa    -0.0156    -2.094    -0.747    -0.698  0.4166 -0.6371  0.6485
    12 C(13)  Bbb    -0.0101    -1.351    -0.482    -0.451  0.1530  0.7523  0.6408
              Bcc     0.0257     3.445     1.229     1.149  0.8961  0.1677 -0.4109
 
              Baa    -0.0154    -2.069    -0.738    -0.690  0.2790 -0.1414  0.9498
    13 C(13)  Bbb    -0.0081    -1.090    -0.389    -0.364 -0.5834  0.7607  0.2846
              Bcc     0.0235     3.160     1.127     1.054  0.7628  0.6335 -0.1298
 
              Baa    -0.0043    -2.310    -0.824    -0.771  0.2361  0.7703 -0.5923
    14 H(1)   Bbb    -0.0033    -1.751    -0.625    -0.584  0.5512  0.3958  0.7345
              Bcc     0.0076     4.061     1.449     1.355  0.8003 -0.4999 -0.3311
 
              Baa    -0.0043    -2.306    -0.823    -0.769 -0.3621 -0.2658  0.8934
    15 H(1)   Bbb    -0.0031    -1.674    -0.597    -0.559  0.8063 -0.5703  0.1571
              Bcc     0.0075     3.981     1.420     1.328  0.4678  0.7772  0.4209
 
              Baa    -0.0026    -1.401    -0.500    -0.467 -0.2092  0.7287 -0.6521
    16 H(1)   Bbb    -0.0013    -0.713    -0.254    -0.238 -0.5760  0.4471  0.6844
              Bcc     0.0040     2.114     0.754     0.705  0.7903  0.5187  0.3262
 
              Baa    -0.0150    -2.018    -0.720    -0.673 -0.5451 -0.3073  0.7800
    17 C(13)  Bbb    -0.0075    -1.009    -0.360    -0.336  0.1611  0.8747  0.4572
              Bcc     0.0226     3.027     1.080     1.010  0.8227 -0.3749  0.4273
 
              Baa    -0.0043    -2.303    -0.822    -0.768  0.0626 -0.1600  0.9851
    18 H(1)   Bbb    -0.0031    -1.651    -0.589    -0.551  0.6423  0.7619  0.0829
              Bcc     0.0074     3.954     1.411     1.319  0.7639 -0.6276 -0.1504
 
              Baa    -0.0106    -5.634    -2.010    -1.879 -0.1347 -0.4156  0.8995
    19 H(1)   Bbb    -0.0034    -1.836    -0.655    -0.613  0.9718  0.1217  0.2018
              Bcc     0.0140     7.470     2.666     2.492 -0.1934  0.9014  0.3875
 
              Baa    -0.0025    -1.320    -0.471    -0.440  0.2810  0.7282 -0.6251
    20 H(1)   Bbb    -0.0010    -0.550    -0.196    -0.184  0.0926  0.6278  0.7729
              Bcc     0.0035     1.870     0.667     0.624  0.9552 -0.2751  0.1090
 
              Baa    -0.0044    -2.337    -0.834    -0.779 -0.1981  0.7329 -0.6509
    21 H(1)   Bbb    -0.0032    -1.703    -0.608    -0.568  0.8743 -0.1681 -0.4554
              Bcc     0.0076     4.040     1.441     1.347  0.4432  0.6593  0.6074
 
              Baa    -0.0025    -1.337    -0.477    -0.446 -0.3941 -0.3004  0.8686
    22 H(1)   Bbb    -0.0011    -0.595    -0.212    -0.198 -0.4634  0.8811  0.0946
              Bcc     0.0036     1.931     0.689     0.644  0.7937  0.3652  0.4864
 
              Baa    -0.4027   -16.512    -5.892    -5.508  0.9667  0.1465  0.2098
    23 S(33)  Bbb    -0.0779    -3.193    -1.139    -1.065 -0.2060 -0.0410  0.9777
              Bcc     0.4806    19.706     7.031     6.573 -0.1519  0.9884  0.0094
 
              Baa    -0.0069    -0.266    -0.095    -0.089  0.4415 -0.0471  0.8960
    24 N(14)  Bbb    -0.0005    -0.020    -0.007    -0.007  0.0189  0.9989  0.0432
              Bcc     0.0074     0.286     0.102     0.095  0.8971  0.0021 -0.4419
 
              Baa    -0.0021    -0.287    -0.102    -0.096  0.0529  0.8600  0.5075
    25 C(13)  Bbb    -0.0013    -0.173    -0.062    -0.058  0.4000 -0.4839  0.7783
              Bcc     0.0034     0.460     0.164     0.153  0.9150  0.1618 -0.3697
 
              Baa    -0.0008    -0.112    -0.040    -0.037 -0.0333  0.8300 -0.5568
    26 C(13)  Bbb     0.0003     0.037     0.013     0.012  0.9950 -0.0249 -0.0966
              Bcc     0.0006     0.075     0.027     0.025  0.0940  0.5572  0.8250
 
              Baa    -0.0014    -0.191    -0.068    -0.064  0.3919 -0.6352  0.6656
    27 C(13)  Bbb    -0.0003    -0.042    -0.015    -0.014  0.5358  0.7457  0.3961
              Bcc     0.0017     0.233     0.083     0.078  0.7479 -0.2013 -0.6325
 
              Baa    -0.0003    -0.046    -0.017    -0.016 -0.1557 -0.0980  0.9829
    28 C(13)  Bbb    -0.0002    -0.021    -0.008    -0.007 -0.4073  0.9129  0.0265
              Bcc     0.0005     0.068     0.024     0.023  0.8999  0.3963  0.1821
 
              Baa    -0.0012    -0.164    -0.059    -0.055 -0.2345  0.6134  0.7541
    29 C(13)  Bbb     0.0001     0.011     0.004     0.004  0.4475 -0.6205  0.6440
              Bcc     0.0011     0.153     0.055     0.051  0.8630  0.4885 -0.1290
 
              Baa    -0.0010    -0.130    -0.046    -0.043 -0.3655  0.6747 -0.6412
    30 C(13)  Bbb    -0.0003    -0.035    -0.013    -0.012  0.8380  0.5384  0.0889
              Bcc     0.0012     0.165     0.059     0.055 -0.4052  0.5049  0.7622
 
              Baa    -0.0004    -0.196    -0.070    -0.065 -0.0286  0.7957  0.6050
    31 H(1)   Bbb    -0.0003    -0.168    -0.060    -0.056 -0.1742 -0.6000  0.7808
              Bcc     0.0007     0.363     0.130     0.121  0.9843 -0.0830  0.1558
 
              Baa    -0.0009    -0.501    -0.179    -0.167 -0.2847  0.9309  0.2288
    32 H(1)   Bbb    -0.0007    -0.375    -0.134    -0.125  0.4526 -0.0799  0.8881
              Bcc     0.0016     0.877     0.313     0.292  0.8450  0.3565 -0.3986
 
              Baa    -0.0002    -0.107    -0.038    -0.036 -0.1225  0.4300  0.8945
    33 H(1)   Bbb    -0.0002    -0.087    -0.031    -0.029 -0.0902  0.8927 -0.4415
              Bcc     0.0004     0.194     0.069     0.065  0.9884  0.1348  0.0706
 
              Baa    -0.0003    -0.175    -0.062    -0.058 -0.4196  0.8793  0.2254
    34 H(1)   Bbb    -0.0003    -0.167    -0.059    -0.056  0.3606 -0.0664  0.9303
              Bcc     0.0006     0.342     0.122     0.114  0.8330  0.4716 -0.2892
 
              Baa    -0.0012    -0.159    -0.057    -0.053 -0.1733 -0.5313  0.8293
    35 C(13)  Bbb    -0.0004    -0.054    -0.019    -0.018  0.1378  0.8206  0.5546
              Bcc     0.0016     0.213     0.076     0.071  0.9752 -0.2104  0.0691
 
              Baa    -0.0008    -0.107    -0.038    -0.036  0.5801  0.3809  0.7200
    36 C(13)  Bbb    -0.0002    -0.025    -0.009    -0.008  0.1814  0.8013 -0.5700
              Bcc     0.0010     0.132     0.047     0.044  0.7941 -0.4613 -0.3957
 
              Baa    -0.0010    -0.139    -0.050    -0.046  0.6103  0.7402  0.2821
    37 C(13)  Bbb    -0.0004    -0.056    -0.020    -0.019 -0.3139 -0.1009  0.9441
              Bcc     0.0015     0.195     0.070     0.065  0.7273 -0.6648  0.1708
 
              Baa    -0.0005    -0.061    -0.022    -0.020  0.2442  0.7069 -0.6638
    38 C(13)  Bbb    -0.0002    -0.026    -0.009    -0.009  0.2782  0.6047  0.7463
              Bcc     0.0006     0.087     0.031     0.029  0.9290 -0.3669 -0.0489
 
              Baa    -0.0007    -0.088    -0.031    -0.029 -0.4135 -0.3143  0.8546
    39 C(13)  Bbb    -0.0003    -0.042    -0.015    -0.014  0.3002  0.8390  0.4538
              Bcc     0.0010     0.130     0.047     0.044  0.8596 -0.4442  0.2525
 
              Baa    -0.0008    -0.106    -0.038    -0.035  0.6091  0.4147  0.6761
    40 C(13)  Bbb    -0.0000    -0.005    -0.002    -0.002 -0.3933 -0.5823  0.7115
              Bcc     0.0008     0.110     0.039     0.037 -0.6888  0.6992  0.1916
 
              Baa    -0.0005    -0.250    -0.089    -0.084  0.1038 -0.6322  0.7678
    41 H(1)   Bbb    -0.0004    -0.191    -0.068    -0.064  0.3695  0.7412  0.5604
              Bcc     0.0008     0.441     0.158     0.147  0.9234 -0.2256 -0.3105
 
              Baa    -0.0011    -0.582    -0.208    -0.194 -0.3264  0.1787  0.9282
    42 H(1)   Bbb    -0.0009    -0.482    -0.172    -0.161  0.5321  0.8463  0.0241
              Bcc     0.0020     1.064     0.380     0.355  0.7813 -0.5017  0.3713
 
              Baa    -0.0003    -0.135    -0.048    -0.045 -0.1395 -0.6726  0.7267
    43 H(1)   Bbb    -0.0002    -0.115    -0.041    -0.038  0.4913  0.5902  0.6405
              Bcc     0.0005     0.251     0.089     0.084  0.8597 -0.4464 -0.2481
 
              Baa    -0.0004    -0.216    -0.077    -0.072 -0.1753  0.1894  0.9661
    44 H(1)   Bbb    -0.0004    -0.195    -0.070    -0.065  0.6934  0.7204 -0.0154
              Bcc     0.0008     0.411     0.147     0.137  0.6989 -0.6673  0.2576
 
              Baa    -0.0007     0.048     0.017     0.016  0.6908  0.3920  0.6076
    45 O(17)  Bbb     0.0000    -0.003    -0.001    -0.001 -0.4175 -0.4698  0.7778
              Bcc     0.0006    -0.045    -0.016    -0.015 -0.5903  0.7910  0.1609
 
              Baa    -0.0002    -0.098    -0.035    -0.033 -0.0590 -0.1758  0.9827
    46 H(1)   Bbb    -0.0002    -0.084    -0.030    -0.028  0.6415  0.7475  0.1723
              Bcc     0.0003     0.182     0.065     0.061  0.7648 -0.6405 -0.0687
 
              Baa    -0.0010     0.073     0.026     0.024 -0.4012  0.6646 -0.6303
    47 O(17)  Bbb    -0.0006     0.045     0.016     0.015  0.8381  0.5440  0.0403
              Bcc     0.0016    -0.118    -0.042    -0.039 -0.3697  0.5121  0.7753
 
              Baa    -0.0002    -0.095    -0.034    -0.032 -0.1052  0.5941  0.7975
    48 H(1)   Bbb    -0.0001    -0.044    -0.016    -0.015 -0.5572  0.6290 -0.5421
              Bcc     0.0003     0.138     0.049     0.046  0.8237  0.5014 -0.2649
 

 ---------------------------------------------------------------------------------

 No NMR shielding tensors so no spin-rotation constants.
 Leave Link  601 at Mon Jan 18 07:51:42 2021, MaxMem=  4026531840 cpu:               6.2 elap:               0.8
 (Enter /opt/ohpc/pub/libs/gaussian/g16-A.03/sandybridge/g16/l9999.exe)

 Test job not archived.
 1\1\GINC-CASCADEB025\SP\ULC-wHPBE\TZVP\C24H19N1O2S2(1+,2)\RDU230\18-Ja
 n-2021\0\\#P LC-wHPBE/TZVP iop(3/107=0328100000, 3/108=0328100000) scf
 =(conver=6,fermi,ndamp=35,noincfock,novaracc,vshift=500,xqc)\\H19 C24 
 S2 N1 O2\\1,2\C,0,-6.54463,-1.193879,0.12701\C,0,-5.283469,-0.647909,0
 .131523\S,0,-3.665919,-1.107322,1.042984\C,0,-4.996815,0.486583,-0.537
 83\C,0,-1.475687,0.036886,0.221747\C,0,-1.772288,-1.094442,0.892846\C,
 0,-7.517398,-0.549399,-0.618903\C,0,-5.951198,1.159916,-1.262339\H,0,-
 2.843406,1.345523,-1.332578\C,0,-0.186077,0.430997,-0.028463\C,0,-0.77
 363,-1.912541,1.366813\C,0,0.53691,-1.552052,1.124661\C,0,0.845585,-0.
 387156,0.425435\H,0,0.045427,1.33981,-0.567415\H,0,-0.986976,-2.816418
 ,1.923251\H,0,1.342687,-2.175375,1.48462\C,0,-7.223748,0.615229,-1.306
 247\H,0,-6.782458,-2.097666,0.673346\H,0,-3.815781,-2.43941,0.928305\H
 ,0,-8.517553,-0.958288,-0.663525\H,0,-5.730059,2.077989,-1.791552\H,0,
 -7.997253,1.105431,-1.881471\S,0,-3.166075,0.851646,-0.124057\N,0,2.18
 2887,-0.044483,0.184905\C,0,3.146505,-1.044921,-0.067172\C,0,4.392012,
 -0.989098,0.539344\C,0,2.878694,-2.090316,-0.930362\C,0,5.345494,-1.94
 6131,0.285899\C,0,3.822608,-3.066997,-1.170354\C,0,5.062274,-2.995295,
 -0.567641\H,0,4.612943,-0.17489,1.215121\H,0,1.913696,-2.145516,-1.414
 069\H,0,6.317156,-1.901598,0.755555\H,0,3.591387,-3.881585,-1.84538\C,
 0,2.575405,1.310294,0.123192\C,0,3.391681,1.763268,-0.894977\C,0,2.164
 04,2.211964,1.09371\C,0,3.796835,3.081396,-0.942072\C,0,2.544098,3.531
 176,1.038879\C,0,3.368807,3.972023,0.020733\H,0,3.723839,1.07184,-1.65
 6403\H,0,1.529535,1.868488,1.898614\H,0,4.442764,3.41523,-1.744528\H,0
 ,2.220724,4.234697,1.791974\O,0,3.726245,5.28132,0.019257\H,0,4.294203
 ,5.466041,-0.728132\O,0,6.032969,-3.920806,-0.776143\H,0,5.721078,-4.5
 93785,-1.380389\\Version=EM64L-G16RevA.03\State=2-A\HF=-1926.3771857\S
 2=0.759808\S2-1=0.\S2A=0.750076\RMSD=3.690e-09\Dipole=-4.6811212,-1.02
 07638,-1.2134141\Quadrupole=45.7436531,-14.276471,-31.4671821,7.157621
 8,-0.8461601,-7.7679328\PG=C01 [X(C24H19N1O2S2)]\\@


 MUD THROWN IS GROUND LOST -- FROM A TEA BAG
 Job cpu time:       0 days  8 hours 32 minutes 11.5 seconds.
 Elapsed time:       0 days  1 hours  4 minutes 14.6 seconds.
 File lengths (MBytes):  RWF=    264 Int=      0 D2E=      0 Chk=     36 Scr=      8
 Normal termination of Gaussian 16 at Mon Jan 18 07:51:42 2021.
