 Entering Gaussian System, Link 0=g16
 Input=mol_ta_ma_half_tune_c6.gjf
 Output=mol_ta_ma_half_tune_c6.log
 Initial command:
 /opt/ohpc/pub/libs/gaussian/g16-A.03/sandybridge/g16/l1.exe "/mnt/gpfs2_4m/scratch/rdu230/ondemand/projects/init_structures/wtuning/mol_ta_ma_half/tuning_mol_ta_ma_half_ocycle0/Gau-298180.inp" -scrdir="/mnt/gpfs2_4m/scratch/rdu230/ondemand/projects/init_structures/wtuning/mol_ta_ma_half/tuning_mol_ta_ma_half_ocycle0/"
 Entering Link 1 = /opt/ohpc/pub/libs/gaussian/g16-A.03/sandybridge/g16/l1.exe PID=    298181.
  
 Copyright (c) 1988,1990,1992,1993,1995,1998,2003,2009,2016,
            Gaussian, Inc.  All Rights Reserved.
  
 This is part of the Gaussian(R) 16 program.  It is based on
 the Gaussian(R) 09 system (copyright 2009, Gaussian, Inc.),
 the Gaussian(R) 03 system (copyright 2003, Gaussian, Inc.),
 the Gaussian(R) 98 system (copyright 1998, Gaussian, Inc.),
 the Gaussian(R) 94 system (copyright 1995, Gaussian, Inc.),
 the Gaussian 92(TM) system (copyright 1992, Gaussian, Inc.),
 the Gaussian 90(TM) system (copyright 1990, Gaussian, Inc.),
 the Gaussian 88(TM) system (copyright 1988, Gaussian, Inc.),
 the Gaussian 86(TM) system (copyright 1986, Carnegie Mellon
 University), and the Gaussian 82(TM) system (copyright 1983,
 Carnegie Mellon University). Gaussian is a federally registered
 trademark of Gaussian, Inc.
  
 This software contains proprietary and confidential information,
 including trade secrets, belonging to Gaussian, Inc.
  
 This software is provided under written license and may be
 used, copied, transmitted, or stored only in accord with that
 written license.
  
 The following legend is applicable only to US Government
 contracts under FAR:
  
                    RESTRICTED RIGHTS LEGEND
  
 Use, reproduction and disclosure by the US Government is
 subject to restrictions as set forth in subparagraphs (a)
 and (c) of the Commercial Computer Software - Restricted
 Rights clause in FAR 52.227-19.
  
 Gaussian, Inc.
 340 Quinnipiac St., Bldg. 40, Wallingford CT 06492
  
  
 ---------------------------------------------------------------
 Warning -- This program may not be used in any manner that
 competes with the business of Gaussian, Inc. or will provide
 assistance to any competitor of Gaussian, Inc.  The licensee
 of this program is prohibited from giving any competitor of
 Gaussian, Inc. access to this program.  By using this program,
 the user acknowledges that Gaussian, Inc. is engaged in the
 business of creating and licensing software in the field of
 computational chemistry and represents and warrants to the
 licensee that it is not a competitor of Gaussian, Inc. and that
 it will not use this program in any manner prohibited above.
 ---------------------------------------------------------------
  

 Cite this work as:
 Gaussian 16, Revision A.03,
 M. J. Frisch, G. W. Trucks, H. B. Schlegel, G. E. Scuseria, 
 M. A. Robb, J. R. Cheeseman, G. Scalmani, V. Barone, 
 G. A. Petersson, H. Nakatsuji, X. Li, M. Caricato, A. V. Marenich, 
 J. Bloino, B. G. Janesko, R. Gomperts, B. Mennucci, H. P. Hratchian, 
 J. V. Ortiz, A. F. Izmaylov, J. L. Sonnenberg, D. Williams-Young, 
 F. Ding, F. Lipparini, F. Egidi, J. Goings, B. Peng, A. Petrone, 
 T. Henderson, D. Ranasinghe, V. G. Zakrzewski, J. Gao, N. Rega, 
 G. Zheng, W. Liang, M. Hada, M. Ehara, K. Toyota, R. Fukuda, 
 J. Hasegawa, M. Ishida, T. Nakajima, Y. Honda, O. Kitao, H. Nakai, 
 T. Vreven, K. Throssell, J. A. Montgomery, Jr., J. E. Peralta, 
 F. Ogliaro, M. J. Bearpark, J. J. Heyd, E. N. Brothers, K. N. Kudin, 
 V. N. Staroverov, T. A. Keith, R. Kobayashi, J. Normand, 
 K. Raghavachari, A. P. Rendell, J. C. Burant, S. S. Iyengar, 
 J. Tomasi, M. Cossi, J. M. Millam, M. Klene, C. Adamo, R. Cammi, 
 J. W. Ochterski, R. L. Martin, K. Morokuma, O. Farkas, 
 J. B. Foresman, and D. J. Fox, Gaussian, Inc., Wallingford CT, 2016.
 
 ******************************************
 Gaussian 16:  EM64L-G16RevA.03 25-Dec-2016
                18-Jan-2021 
 ******************************************
 %mem=30GB
 %nproc=8
 Will use up to    8 processors via shared memory.
 ----------------------------------------------------------------------
 #P LC-wHPBE/TZVP iop(3/107=0174500000, 3/108=0174500000) scf=(conver=6
 ,fermi,ndamp=35,noincfock,novaracc,vshift=500,xqc)
 ----------------------------------------------------------------------
 1/38=1,172=1/1;
 2/12=2,17=6,18=5,40=1/2;
 3/5=19,7=101,11=2,25=1,30=1,74=-71,107=174500000,108=174500000/1,2,3;
 4//1;
 5/5=100002,6=6,8=3,10=500,13=1,18=-1,22=13,38=1,93=35/2,8;
 6/7=2,8=2,9=2,10=2,28=1/1;
 99/5=1,9=1/99;
 Leave Link    1 at Mon Jan 18 17:19:00 2021, MaxMem=  4026531840 cpu:               1.0 elap:               0.2
 (Enter /opt/ohpc/pub/libs/gaussian/g16-A.03/sandybridge/g16/l101.exe)
 ----------------
 H19 C24 S2 N1 O2
 ----------------
 Symbolic Z-matrix:
 Charge =  1 Multiplicity = 2
 C                    -6.54463  -1.19388   0.12701 
 C                    -5.28347  -0.64791   0.13152 
 S                    -3.66592  -1.10732   1.04298 
 C                    -4.99682   0.48658  -0.53783 
 C                    -1.47569   0.03689   0.22175 
 C                    -1.77229  -1.09444   0.89285 
 C                    -7.5174   -0.5494   -0.6189 
 C                    -5.9512    1.15992  -1.26234 
 H                    -2.84341   1.34552  -1.33258 
 C                    -0.18608   0.431    -0.02846 
 C                    -0.77363  -1.91254   1.36681 
 C                     0.53691  -1.55205   1.12466 
 C                     0.84559  -0.38716   0.42544 
 H                     0.04543   1.33981  -0.56742 
 H                    -0.98698  -2.81642   1.92325 
 H                     1.34269  -2.17537   1.48462 
 C                    -7.22375   0.61523  -1.30625 
 H                    -6.78246  -2.09767   0.67335 
 H                    -3.81578  -2.43941   0.92831 
 H                    -8.51755  -0.95829  -0.66353 
 H                    -5.73006   2.07799  -1.79155 
 H                    -7.99725   1.10543  -1.88147 
 S                    -3.16608   0.85165  -0.12406 
 N                     2.18289  -0.04448   0.18491 
 C                     3.1465   -1.04492  -0.06717 
 C                     4.39201  -0.9891    0.53934 
 C                     2.87869  -2.09032  -0.93036 
 C                     5.34549  -1.94613   0.2859 
 C                     3.82261  -3.067    -1.17035 
 C                     5.06227  -2.9953   -0.56764 
 H                     4.61294  -0.17489   1.21512 
 H                     1.9137   -2.14552  -1.41407 
 H                     6.31716  -1.9016    0.75556 
 H                     3.59139  -3.88159  -1.84538 
 C                     2.5754    1.31029   0.12319 
 C                     3.39168   1.76327  -0.89498 
 C                     2.16404   2.21196   1.09371 
 C                     3.79684   3.0814   -0.94207 
 C                     2.5441    3.53118   1.03888 
 C                     3.36881   3.97202   0.02073 
 H                     3.72384   1.07184  -1.6564 
 H                     1.52954   1.86849   1.89861 
 H                     4.44276   3.41523  -1.74453 
 H                     2.22072   4.2347    1.79197 
 O                     3.72625   5.28132   0.01926 
 H                     4.2942    5.46604  -0.72813 
 O                     6.03297  -3.92081  -0.77614 
 H                     5.72108  -4.59379  -1.38039 
 
 ITRead=  0  0  0  0  0  0  0  0  0  0  0  0  0  0  0  0  0  0  0  0
 ITRead=  0  0  0  0  0  0  0  0  0  0  0  0  0  0  0  0  0  0  0  0
 ITRead=  0  0  0  0  0  0  0  0
 MicOpt= -1 -1 -1 -1 -1 -1 -1 -1 -1 -1 -1 -1 -1 -1 -1 -1 -1 -1 -1 -1
 MicOpt= -1 -1 -1 -1 -1 -1 -1 -1 -1 -1 -1 -1 -1 -1 -1 -1 -1 -1 -1 -1
 MicOpt= -1 -1 -1 -1 -1 -1 -1 -1
 NAtoms=     48 NQM=       48 NQMF=       0 NMMI=      0 NMMIF=      0
                NMic=       0 NMicF=      0.
                    Isotopes and Nuclear Properties:
 (Nuclear quadrupole moments (NQMom) in fm**2, nuclear magnetic moments (NMagM)
  in nuclear magnetons)

  Atom         1           2           3           4           5           6           7           8           9          10
 IAtWgt=          12          12          32          12          12          12          12          12           1          12
 AtmWgt=  12.0000000  12.0000000  31.9720718  12.0000000  12.0000000  12.0000000  12.0000000  12.0000000   1.0078250  12.0000000
 NucSpn=           0           0           0           0           0           0           0           0           1           0
 AtZEff=  -0.0000000  -0.0000000  -0.0000000  -0.0000000  -0.0000000  -0.0000000  -0.0000000  -0.0000000  -0.0000000  -0.0000000
 NQMom=    0.0000000   0.0000000   0.0000000   0.0000000   0.0000000   0.0000000   0.0000000   0.0000000   0.0000000   0.0000000
 NMagM=    0.0000000   0.0000000   0.0000000   0.0000000   0.0000000   0.0000000   0.0000000   0.0000000   2.7928460   0.0000000
 AtZNuc=   6.0000000   6.0000000  16.0000000   6.0000000   6.0000000   6.0000000   6.0000000   6.0000000   1.0000000   6.0000000

  Atom        11          12          13          14          15          16          17          18          19          20
 IAtWgt=          12          12          12           1           1           1          12           1           1           1
 AtmWgt=  12.0000000  12.0000000  12.0000000   1.0078250   1.0078250   1.0078250  12.0000000   1.0078250   1.0078250   1.0078250
 NucSpn=           0           0           0           1           1           1           0           1           1           1
 AtZEff=  -0.0000000  -0.0000000  -0.0000000  -0.0000000  -0.0000000  -0.0000000  -0.0000000  -0.0000000  -0.0000000  -0.0000000
 NQMom=    0.0000000   0.0000000   0.0000000   0.0000000   0.0000000   0.0000000   0.0000000   0.0000000   0.0000000   0.0000000
 NMagM=    0.0000000   0.0000000   0.0000000   2.7928460   2.7928460   2.7928460   0.0000000   2.7928460   2.7928460   2.7928460
 AtZNuc=   6.0000000   6.0000000   6.0000000   1.0000000   1.0000000   1.0000000   6.0000000   1.0000000   1.0000000   1.0000000

  Atom        21          22          23          24          25          26          27          28          29          30
 IAtWgt=           1           1          32          14          12          12          12          12          12          12
 AtmWgt=   1.0078250   1.0078250  31.9720718  14.0030740  12.0000000  12.0000000  12.0000000  12.0000000  12.0000000  12.0000000
 NucSpn=           1           1           0           2           0           0           0           0           0           0
 AtZEff=  -0.0000000  -0.0000000  -0.0000000  -0.0000000  -0.0000000  -0.0000000  -0.0000000  -0.0000000  -0.0000000  -0.0000000
 NQMom=    0.0000000   0.0000000   0.0000000   2.0440000   0.0000000   0.0000000   0.0000000   0.0000000   0.0000000   0.0000000
 NMagM=    2.7928460   2.7928460   0.0000000   0.4037610   0.0000000   0.0000000   0.0000000   0.0000000   0.0000000   0.0000000
 AtZNuc=   1.0000000   1.0000000  16.0000000   7.0000000   6.0000000   6.0000000   6.0000000   6.0000000   6.0000000   6.0000000

  Atom        31          32          33          34          35          36          37          38          39          40
 IAtWgt=           1           1           1           1          12          12          12          12          12          12
 AtmWgt=   1.0078250   1.0078250   1.0078250   1.0078250  12.0000000  12.0000000  12.0000000  12.0000000  12.0000000  12.0000000
 NucSpn=           1           1           1           1           0           0           0           0           0           0
 AtZEff=  -0.0000000  -0.0000000  -0.0000000  -0.0000000  -0.0000000  -0.0000000  -0.0000000  -0.0000000  -0.0000000  -0.0000000
 NQMom=    0.0000000   0.0000000   0.0000000   0.0000000   0.0000000   0.0000000   0.0000000   0.0000000   0.0000000   0.0000000
 NMagM=    2.7928460   2.7928460   2.7928460   2.7928460   0.0000000   0.0000000   0.0000000   0.0000000   0.0000000   0.0000000
 AtZNuc=   1.0000000   1.0000000   1.0000000   1.0000000   6.0000000   6.0000000   6.0000000   6.0000000   6.0000000   6.0000000

  Atom        41          42          43          44          45          46          47          48
 IAtWgt=           1           1           1           1          16           1          16           1
 AtmWgt=   1.0078250   1.0078250   1.0078250   1.0078250  15.9949146   1.0078250  15.9949146   1.0078250
 NucSpn=           1           1           1           1           0           1           0           1
 AtZEff=  -0.0000000  -0.0000000  -0.0000000  -0.0000000  -0.0000000  -0.0000000  -0.0000000  -0.0000000
 NQMom=    0.0000000   0.0000000   0.0000000   0.0000000   0.0000000   0.0000000   0.0000000   0.0000000
 NMagM=    2.7928460   2.7928460   2.7928460   2.7928460   0.0000000   2.7928460   0.0000000   2.7928460
 AtZNuc=   1.0000000   1.0000000   1.0000000   1.0000000   8.0000000   1.0000000   8.0000000   1.0000000
 Leave Link  101 at Mon Jan 18 17:19:00 2021, MaxMem=  4026531840 cpu:               0.8 elap:               0.1
 (Enter /opt/ohpc/pub/libs/gaussian/g16-A.03/sandybridge/g16/l202.exe)
                          Input orientation:                          
 ---------------------------------------------------------------------
 Center     Atomic      Atomic             Coordinates (Angstroms)
 Number     Number       Type             X           Y           Z
 ---------------------------------------------------------------------
      1          6           0       -6.544630   -1.193879    0.127010
      2          6           0       -5.283469   -0.647909    0.131523
      3         16           0       -3.665919   -1.107322    1.042984
      4          6           0       -4.996815    0.486583   -0.537830
      5          6           0       -1.475687    0.036886    0.221747
      6          6           0       -1.772288   -1.094442    0.892846
      7          6           0       -7.517398   -0.549399   -0.618903
      8          6           0       -5.951198    1.159916   -1.262339
      9          1           0       -2.843406    1.345523   -1.332578
     10          6           0       -0.186077    0.430997   -0.028463
     11          6           0       -0.773630   -1.912541    1.366813
     12          6           0        0.536910   -1.552052    1.124661
     13          6           0        0.845585   -0.387156    0.425435
     14          1           0        0.045427    1.339810   -0.567415
     15          1           0       -0.986976   -2.816418    1.923251
     16          1           0        1.342687   -2.175375    1.484620
     17          6           0       -7.223748    0.615229   -1.306247
     18          1           0       -6.782458   -2.097666    0.673346
     19          1           0       -3.815781   -2.439410    0.928305
     20          1           0       -8.517553   -0.958288   -0.663525
     21          1           0       -5.730059    2.077989   -1.791552
     22          1           0       -7.997253    1.105431   -1.881471
     23         16           0       -3.166075    0.851646   -0.124057
     24          7           0        2.182887   -0.044483    0.184905
     25          6           0        3.146505   -1.044921   -0.067172
     26          6           0        4.392012   -0.989098    0.539344
     27          6           0        2.878694   -2.090316   -0.930362
     28          6           0        5.345494   -1.946131    0.285899
     29          6           0        3.822608   -3.066997   -1.170354
     30          6           0        5.062274   -2.995295   -0.567641
     31          1           0        4.612943   -0.174890    1.215121
     32          1           0        1.913696   -2.145516   -1.414069
     33          1           0        6.317156   -1.901598    0.755555
     34          1           0        3.591387   -3.881585   -1.845380
     35          6           0        2.575405    1.310294    0.123192
     36          6           0        3.391681    1.763268   -0.894977
     37          6           0        2.164040    2.211964    1.093710
     38          6           0        3.796835    3.081396   -0.942072
     39          6           0        2.544098    3.531176    1.038879
     40          6           0        3.368807    3.972023    0.020733
     41          1           0        3.723839    1.071840   -1.656403
     42          1           0        1.529535    1.868488    1.898614
     43          1           0        4.442764    3.415230   -1.744528
     44          1           0        2.220724    4.234697    1.791974
     45          8           0        3.726245    5.281320    0.019257
     46          1           0        4.294203    5.466041   -0.728132
     47          8           0        6.032969   -3.920806   -0.776143
     48          1           0        5.721078   -4.593785   -1.380389
 ---------------------------------------------------------------------
                    Distance matrix (angstroms):
                    1          2          3          4          5
     1  C    0.000000
     2  C    1.374275   0.000000
     3  S    3.022164   1.912666   0.000000
     4  C    2.379432   1.348064   2.609749   0.000000
     5  C    5.217082   3.869921   2.603989   3.630086   0.000000
     6  C    4.834422   3.620414   1.899617   3.865753   1.348425
     7  C    1.384925   2.358661   4.231671   2.726384   6.128025
     8  C    2.796927   2.378433   3.959467   1.374459   4.847051
     9  H    4.719960   3.474373   3.512303   2.450831   2.449309
    10  C    6.564723   5.212777   3.952686   4.837948   1.371504
    11  C    5.946262   4.843953   3.019698   5.217159   2.367346
    12  C    7.160433   5.973325   4.227083   6.127154   2.718552
    13  C    7.440103   6.141635   4.610171   5.985394   2.368460
    14  H    7.094410   5.730329   4.728206   5.114008   2.152713
    15  H    6.061900   5.135423   3.297365   5.748525   3.357871
    16  H    8.063263   6.933251   5.140225   7.166981   3.798971
    17  C    2.405888   2.725323   4.598284   2.359289   5.975739
    18  H    1.082532   2.154608   3.290931   3.366573   5.737776
    19  H    3.104841   2.449172   1.345388   3.479343   3.479555
    20  H    2.138428   3.344807   5.145166   3.807761   7.166726
    21  H    3.879372   3.365736   4.737243   2.154539   5.130220
    22  H    3.380967   3.806701   5.675312   3.345291   6.935138
    23  S    3.957504   2.607172   2.334392   1.912090   1.908095
    24  N    8.803069   7.490891   6.006202   7.235503   3.659664
    25  C    9.694225   8.441656   6.902569   8.299439   4.755885
    26  C   10.946328   9.690081   8.074521   9.564937   5.965183
    27  C    9.524740   8.356377   6.905963   8.295669   4.981263
    28  C   11.914956  10.709065   9.081979  10.656453   7.103871
    29  C   10.614676   9.511441   8.050915   9.529441   6.296345
    30  C   11.766387  10.631719   9.074134  10.644700   7.249979
    31  H   11.256721   9.966790   8.332984   9.790701   6.172767
    32  H    8.650076   7.512048   6.184421   7.446536   4.350482
    33  H   12.896568  11.684847  10.018746  11.635385   8.048048
    34  H   10.670189   9.650278   8.289009   9.723569   6.730726
    35  C    9.457586   8.099168   6.756109   7.645519   4.247661
    36  C   10.417267   9.062323   7.861660   8.492605   5.283819
    37  C    9.400809   8.035550   6.708849   7.544316   4.328845
    38  C   11.241299   9.874829   8.785130   9.177404   6.198629
    39  C   10.284096   8.919577   7.751128   8.283775   5.388547
    40  C   11.179180   9.809074   8.736825   9.079863   6.244584
    41  H   10.665622   9.342688   8.163575   8.811557   5.624380
    42  H    8.815260   7.474750   6.048164   7.102054   3.898462
    43  H   12.061068  10.706459   9.694041   9.956844   7.092779
    44  H   10.443801   9.105485   7.984405   8.459859   5.809534
    45  O   12.142104  10.786255   9.823790   9.969535   7.389532
    46  H   12.750141  11.395227  10.474230  10.542971   7.979325
    47  O   12.901466  11.815138  10.261254  11.880152   8.546287
    48  H   12.817145  11.787954  10.302615  11.890890   8.706514
                    6          7          8          9         10
     6  C    0.000000
     7  C    5.965630   0.000000
     8  C    5.214426   2.405982   0.000000
     9  H    3.471777   5.093747   3.114122   0.000000
    10  C    2.385758   7.420112   5.940572   3.098140   0.000000
    11  C    1.375227   7.160980   6.569600   4.710166   2.790015
    12  C    2.365489   8.301639   7.426176   5.085322   2.405180
    13  C    2.751724   8.429499   7.172048   4.438631   1.392740
    14  H    3.370761   7.795389   6.039436   2.988455   1.081667
    15  H    2.154913   7.365347   7.113559   5.600760   3.872510
    16  H    3.349878   9.250390   8.477659   6.152780   3.379307
    17  C    6.121879   1.383846   1.384917   4.440880   7.155102
    18  H    5.114337   2.146433   3.879396   5.603161   7.099219
    19  H    2.446643   4.434858   4.723778   4.514734   4.725399
    20  H    6.923830   1.081430   3.381057   6.160448   8.470355
    21  H    5.738838   3.387160   1.082510   3.013292   6.046222
    22  H    7.161457   2.136071   2.138372   5.188551   8.056238
    23  S    2.600768   4.598023   3.024504   1.344824   3.011058
    24  N    4.152951   9.746619   8.349157   5.431251   2.425613
    25  C    5.011847  10.689657   9.437051   6.572253   3.644988
    26  C    6.175326  11.973676  10.716637   7.829803   4.826797
    27  C    5.093867  10.514284   9.414946   6.686494   4.069799
    28  C    7.194205  12.970101  11.817776   8.972878   6.028917
    29  C    6.280974  11.629193  10.649063   7.995773   5.441455
    30  C    7.242755  12.815349  11.791732   9.051387   6.290896
    31  H    6.459149  12.273918  10.932547   8.024934   4.994416
    32  H    4.473599   9.598198   8.532612   5.901187   3.601023
    33  H    8.130772  13.968266  12.804580   9.940824   6.953253
    34  H    6.635892  11.662453  10.808219   8.306153   6.014049
    35  C    5.027679  10.289501   8.639749   5.611062   2.902059
    36  C    6.166798  11.154938   9.369545   6.264369   3.914862
    37  C    5.144642  10.212170   8.515566   5.631351   3.155022
    38  C    7.198589  11.886925   9.940765   6.874485   4.870614
    39  C    6.328417  10.983307   9.115291   6.279020   4.266636
    40  C    7.270523  11.805162   9.819201   6.879066   5.017817
    41  H    6.434195  11.404834   9.683459   6.580917   4.283493
    42  H    4.548907   9.696962   8.151998   5.462299   2.953529
    43  H    8.119098  12.650328  10.646755   7.585622   5.768596
    44  H    6.719546  11.114447   9.250049   6.614799   4.855390
    45  O    8.464477  12.681642  10.596290   7.776778   6.231707
    46  H    9.081290  13.255616  11.126380   8.263745   6.775995
    47  O    8.467343  13.964367  13.025758  10.336047   7.627172
    48  H    8.576919  13.863411  13.013879  10.422478   7.872142
                   11         12         13         14         15
    11  C    0.000000
    12  C    1.380618   0.000000
    13  C    2.415543   1.393262   0.000000
    14  H    3.871677   3.386376   2.146722   0.000000
    15  H    1.082651   2.135087   3.391614   4.954140   0.000000
    16  H    2.135827   1.080453   2.136986   4.272032   2.455741
    17  C    7.425557   8.416308   8.313702   7.342465   7.816853
    18  H    6.051544   7.353538   7.821403   7.744401   5.972142
    19  H    3.118423   4.446558   5.117906   5.606122   3.022282
    20  H    8.062333   9.248430   9.443536   8.866517   8.176408
    21  H    7.103928   7.807458   7.364174   5.949761   7.762204
    22  H    8.475862   9.430323   9.259882   8.152691   8.888239
    23  S    3.948065   4.587936   4.234382   3.278508   4.732297
    24  N    3.691550   2.421806   1.401305   2.655370   4.555601
    25  C    4.263395   2.913354   2.443266   3.943839   4.917891
    26  C    5.312373   3.939711   3.598952   5.053863   5.847034
    27  C    4.318343   3.161772   2.978669   4.463731   4.859397
    28  C    6.213951   4.897071   4.764352   6.294145   6.598371
    29  C    5.375443   4.284619   4.311700   5.835287   5.724096
    30  C    6.242775   5.042396   5.056585   6.630376   6.544461
    31  H    5.661944   4.303348   3.855081   5.131662   6.232031
    32  H    3.874184   2.948371   2.759795   4.044101   4.472327
    33  H    7.117092   5.802557   5.686880   7.182727   7.453238
    34  H    5.766168   4.855687   4.990698   6.439720   6.024829
    35  C    4.811371   3.653960   2.442328   2.622708   5.741126
    36  C    5.998090   4.818714   3.584748   3.388809   6.934592
    37  C    5.071098   4.100771   2.990040   2.829931   5.991800
    38  C    7.152587   6.030534   4.755082   4.152897   8.116596
    39  C    6.383488   5.465837   4.314462   3.691290   7.317277
    40  C    7.321189   6.305054   5.053006   4.280107   8.287059
    41  H    6.186565   4.977514   3.840191   3.845571   7.079848
    42  H    4.459099   3.644777   2.779564   2.926325   5.318062
    43  H    8.079378   6.939873   5.666266   5.002953   9.042572
    44  H    6.850945   6.063580   5.011982   4.321921   7.747567
    45  O    8.591648   7.621598   6.371405   5.424768   9.561015
    46  H    9.193215   8.173354   6.890834   5.924838  10.174469
    47  O    7.413176   6.279388   6.390573   7.972974   7.601712
    48  H    7.544363   6.511760   6.687837   8.251151   7.685770
                   16         17         18         19         20
    16  H    0.000000
    17  C    9.431872   0.000000
    18  H    8.165916   3.387230   0.000000
    19  H    5.195093   5.092964   2.997160   0.000000
    20  H   10.164653   2.136113   2.469000   5.180184   0.000000
    21  H    8.879648   2.146228   4.961790   5.609722   4.273353
    22  H   10.456038   1.081430   4.273482   6.159988   2.452150
    23  S    5.663888   4.232987   4.734186   3.515769   5.674963
    24  N    2.633609   9.546912   9.210404   6.501718  10.772850
    25  C    2.634339  10.575138  10.012040   7.170007  11.679614
    26  C    3.405757  11.870381  11.230123   8.344014  12.965520
    27  C    2.863336  10.465209   9.793354   6.956472  11.455441
    28  C    4.184728  12.925995  12.135085   9.197009  13.930589
    29  C    3.740840  11.644709  10.807694   7.946271  12.529290
    30  C    4.326589  12.826837  11.943344   9.020351  13.732090
    31  H    3.843064  12.128019  11.569172   8.732337  13.287323
    32  H    2.954546   9.546006   8.943304   6.196773  10.525388
    33  H    5.035060  13.926289  13.101339  10.148670  14.932254
    34  H    4.365399  11.725150  10.823262   8.039859  12.512748
    35  C    3.939920   9.927226   9.974290   7.453573  11.349850
    36  C    5.037238  10.685245  10.994524   8.540162  12.218441
    37  C    4.480644   9.820383   9.939288   7.577658  11.279840
    38  C    6.288507  11.299020  11.889226   9.587989  12.963055
    39  C    5.848658  10.460075  10.899639   8.724000  12.058756
    40  C    6.636161  11.190673  11.845472   9.672046  12.886494
    41  H    5.106889  10.962699  11.218546   8.709504  12.448249
    42  H    4.069291   9.405411   9.290903   6.933389  10.747055
    43  H    7.161895  12.005815  12.737494  10.470168  13.721007
    44  H    6.477225  10.578165  11.063789   9.040410  12.178143
    45  O    7.964354  11.976298  12.857298  10.831352  13.758978
    46  H    8.485220  12.511107  13.485779  11.446038  14.332385
    47  O    5.491477  14.021311  13.025361  10.104333  14.849474
    48  H    5.764312  13.953775  12.914598  10.046048  14.712897
                   21         22         23         24         25
    21  H    0.000000
    22  H    2.468628   0.000000
    23  S    3.295219   5.147154   0.000000
    24  N    8.427692  10.451194   5.432301   0.000000
    25  C    9.566579  11.493435   6.591576   1.411729   0.000000
    26  C   10.830347  12.796143   7.807248   2.428612   1.386458
    27  C    9.603491  11.375572   6.770857   2.431748   1.381908
    28  C   11.965668  13.857793   8.968970   3.691686   2.402580
    29  C   10.867852  12.554838   8.080358   3.696079   2.400608
    30  C   11.987936  13.751122   9.094034   4.191001   2.779316
    31  H   11.004237  13.047802   7.959918   2.642636   2.133464
    32  H    8.741137  10.440978   6.037482   2.653963   2.131961
    33  H   12.940644  14.862652   9.913916   4.568008   3.385824
    34  H   11.063850  12.616188   8.427913   4.563911   3.377367
    35  C    8.557823  10.762980   5.765074   1.411843   2.430932
    36  C    9.171098  11.450491   6.665548   2.428022   2.937907
    37  C    8.405920  10.645562   5.634141   2.432660   3.594466
    38  C    9.617180  11.995308   7.356837   3.694053   4.267888
    39  C    8.864805  11.204140   6.413921   3.693925   4.746252
    40  C    9.468955  11.875313   7.243093   4.191143   5.022636
    41  H    9.508248  11.723301   7.061691   2.647853   2.709178
    42  H    8.146344  10.277694   5.212861   2.650118   3.868702
    43  H   10.260446  12.653377   8.190990   4.560633   4.938295
    44  H    8.983763  11.300157   6.643328   4.571158   5.673435
    45  O   10.147021  12.589330   8.194304   5.547393   6.353337
    46  H   10.634641  13.092937   8.792798   5.971362   6.644299
    47  O   13.243316  14.944294  10.383830   5.547308   4.135823
    48  H   13.259342  14.863538  10.498218   5.972026   4.576833
                   26         27         28         29         30
    26  C    0.000000
    27  C    2.379674   0.000000
    28  C    1.374509   2.754121   0.000000
    29  C    2.750446   1.379303   2.386670   0.000000
    30  C    2.387361   2.391354   1.381843   1.380281   0.000000
    31  H    1.080935   3.358508   2.130112   3.831371   3.366723
    32  H    3.360830   1.080852   3.834955   2.133652   3.369289
    33  H    2.141397   3.834182   1.080133   3.360067   2.126441
    34  H    3.833326   2.133971   3.371235   1.082902   2.140476
    35  C    2.959805   3.572969   4.278337   4.731749   5.019947
    36  C    3.260898   3.887739   4.355628   4.857262   5.053905
    37  C    3.939287   4.808036   5.297543   5.978651   6.186711
    38  C    4.372385   5.252592   5.402063   6.152683   6.218336
    39  C    4.908890   5.965822   6.198039   7.074686   7.177530
    40  C    5.092016   6.156033   6.245170   7.153490   7.194271
    41  H    3.084676   3.352706   3.938331   4.168449   4.417963
    42  H    4.266988   5.049303   5.631493   6.247860   6.497618
    43  H    4.961527   5.781022   5.803598   6.537089   6.547036
    44  H    5.794101   6.917357   7.087671   8.040905   8.118804
    45  O    6.327075   7.480718   7.411418   8.433200   8.404271
    46  H    6.579125   7.690455   7.554718   8.557494   8.497641
    47  O    3.608068   3.650196   2.345186   2.402101   1.357311
    48  H    4.294829   3.814319   3.150817   2.445278   1.910432
                   31         32         33         34         35
    31  H    0.000000
    32  H    4.252287   0.000000
    33  H    2.469223   4.915000   0.000000
    34  H    4.914248   2.452471   4.256175   0.000000
    35  C    2.747661   3.839746   4.971603   5.644741   0.000000
    36  C    3.114555   4.210996   4.971308   5.727784   1.381362
    37  C    3.421833   5.033812   5.855264   6.914254   1.387132
    38  C    3.990352   5.575805   5.836453   7.024335   2.400725
    39  C    4.248071   6.216043   6.620519   8.022767   2.402453
    40  C    4.491250   6.449829   6.613029   8.075338   2.779350
    41  H    3.254304   3.699557   4.624302   4.958798   2.131366
    42  H    3.761643   5.218590   6.200117   7.164640   2.134841
    43  H    4.655904   6.117784   6.167043   7.347008   3.377301
    44  H    5.049745   7.147034   7.450439   8.999061   3.385671
    45  O    5.655665   7.778024   7.671327   9.351678   4.135732
    46  H    5.974774   8.004569   7.783044   9.440355   4.577035
    47  O    4.473644   4.530675   2.550306   2.665732   6.334663
    48  H    5.243212   4.526733   3.487899   2.293257   6.856687
                   36         37         38         39         40
    36  C    0.000000
    37  C    2.379770   0.000000
    38  C    1.379793   2.750698   0.000000
    39  C    2.753851   1.373962   2.386591   0.000000
    40  C    2.391160   2.387583   1.379644   1.382430   0.000000
    41  H    1.080820   3.360949   2.133990   3.834667   3.368960
    42  H    3.358989   1.080945   3.831617   2.129088   3.366633
    43  H    2.134360   3.833540   1.082869   3.371310   2.139988
    44  H    3.833902   2.140615   3.359946   1.080123   2.127061
    45  O    3.650267   3.607753   2.401833   2.345230   1.357211
    46  H    3.814828   4.294848   2.445338   3.151015   1.910300
    47  O    6.268909   7.488380   7.352459   8.426064   8.368364
    48  H    6.787771   8.067955   7.924849   9.053234   8.992741
                   41         42         43         44         45
    41  H    0.000000
    42  H    4.252971   0.000000
    43  H    2.452773   4.914448   0.000000
    44  H    4.914705   2.467399   4.256270   0.000000
    45  O    4.530735   4.472688   2.665826   2.550400   0.000000
    46  H    4.527251   5.242668   2.293678   3.488045   0.956707
    47  O    5.570768   7.807123   7.568616   9.361659   9.520124
    48  H    6.013689   8.371491   8.118559  10.012915  10.171336
                   46         47         48
    46  H    0.000000
    47  O    9.546649   0.000000
    48  H   10.181430   0.956708   0.000000
 Stoichiometry    C24H19NO2S2(1+,2)
 Framework group  C1[X(C24H19NO2S2)]
 Deg. of freedom   138
 Full point group                 C1      NOp   1
 Largest Abelian subgroup         C1      NOp   1
 Largest concise Abelian subgroup C1      NOp   1
                         Standard orientation:                         
 ---------------------------------------------------------------------
 Center     Atomic      Atomic             Coordinates (Angstroms)
 Number     Number       Type             X           Y           Z
 ---------------------------------------------------------------------
      1          6           0        6.544630   -1.193879   -0.127010
      2          6           0        5.283469   -0.647909   -0.131523
      3         16           0        3.665919   -1.107322   -1.042984
      4          6           0        4.996815    0.486583    0.537830
      5          6           0        1.475687    0.036886   -0.221747
      6          6           0        1.772288   -1.094442   -0.892846
      7          6           0        7.517398   -0.549399    0.618903
      8          6           0        5.951198    1.159916    1.262339
      9          1           0        2.843406    1.345523    1.332578
     10          6           0        0.186077    0.430997    0.028463
     11          6           0        0.773630   -1.912541   -1.366813
     12          6           0       -0.536910   -1.552052   -1.124661
     13          6           0       -0.845585   -0.387156   -0.425435
     14          1           0       -0.045427    1.339810    0.567415
     15          1           0        0.986976   -2.816418   -1.923251
     16          1           0       -1.342687   -2.175375   -1.484620
     17          6           0        7.223748    0.615229    1.306247
     18          1           0        6.782458   -2.097666   -0.673346
     19          1           0        3.815781   -2.439410   -0.928305
     20          1           0        8.517553   -0.958288    0.663525
     21          1           0        5.730059    2.077989    1.791552
     22          1           0        7.997253    1.105431    1.881471
     23         16           0        3.166075    0.851646    0.124057
     24          7           0       -2.182887   -0.044483   -0.184905
     25          6           0       -3.146505   -1.044921    0.067172
     26          6           0       -4.392012   -0.989098   -0.539344
     27          6           0       -2.878694   -2.090316    0.930362
     28          6           0       -5.345494   -1.946131   -0.285899
     29          6           0       -3.822608   -3.066997    1.170354
     30          6           0       -5.062274   -2.995295    0.567641
     31          1           0       -4.612943   -0.174890   -1.215121
     32          1           0       -1.913696   -2.145516    1.414069
     33          1           0       -6.317156   -1.901598   -0.755555
     34          1           0       -3.591387   -3.881585    1.845380
     35          6           0       -2.575405    1.310294   -0.123192
     36          6           0       -3.391681    1.763268    0.894977
     37          6           0       -2.164040    2.211964   -1.093710
     38          6           0       -3.796835    3.081396    0.942072
     39          6           0       -2.544098    3.531176   -1.038879
     40          6           0       -3.368807    3.972023   -0.020733
     41          1           0       -3.723839    1.071840    1.656403
     42          1           0       -1.529535    1.868488   -1.898614
     43          1           0       -4.442764    3.415230    1.744528
     44          1           0       -2.220724    4.234697   -1.791974
     45          8           0       -3.726245    5.281320   -0.019257
     46          1           0       -4.294203    5.466041    0.728132
     47          8           0       -6.032969   -3.920806    0.776143
     48          1           0       -5.721078   -4.593785    1.380389
 ---------------------------------------------------------------------
 Rotational constants (GHZ):           0.2280536           0.0702108           0.0568934
 Leave Link  202 at Mon Jan 18 17:19:00 2021, MaxMem=  4026531840 cpu:               0.2 elap:               0.1
 (Enter /opt/ohpc/pub/libs/gaussian/g16-A.03/sandybridge/g16/l301.exe)
 Standard basis: TZVP (5D, 7F)
 Ernie: Thresh=  0.10000D-02 Tol=  0.10000D-05 Strict=F.
 There are   700 symmetry adapted cartesian basis functions of A   symmetry.
 There are   671 symmetry adapted basis functions of A   symmetry.
   671 basis functions,  1191 primitive gaussians,   700 cartesian basis functions
   109 alpha electrons      108 beta electrons
       nuclear repulsion energy      2827.2462800785 Hartrees.
 IExCor=33909 DFT=T Ex+Corr=LC-wHPBE ExCW=0 ScaHFX=  1.000000
 ScaDFX=  1.000000  1.000000  1.000000  1.000000 ScalE2=  1.000000  1.000000
 IRadAn=      5 IRanWt=     -1 IRanGd=            0 ICorTp=0 IEmpDi=  4
 HFx  wShort=  0.000000 wLong=  0.174500 cFull=  0.000000 cShort=  0.000000 cLong=  1.000000
 DFx  wShort=  0.000000 wLong=  0.174500 cFull=  0.000000 cShort=  1.000000 cLong=  0.000000
 NAtoms=   48 NActive=   48 NUniq=   48 SFac= 1.00D+00 NAtFMM=   60 NAOKFM=F Big=F
 Integral buffers will be    131072 words long.
 Raffenetti 2 integral format.
 Two-electron integral symmetry is turned on.
 Leave Link  301 at Mon Jan 18 17:19:00 2021, MaxMem=  4026531840 cpu:               0.5 elap:               0.1
 (Enter /opt/ohpc/pub/libs/gaussian/g16-A.03/sandybridge/g16/l302.exe)
 NPDir=0 NMtPBC=     1 NCelOv=     1 NCel=       1 NClECP=     1 NCelD=      1
         NCelK=      1 NCelE2=     1 NClLst=     1 CellRange=     0.0.
 One-electron integrals computed using PRISM.
 One-electron integral symmetry used in STVInt
 NBasis=   671 RedAO= T EigKep=  6.34D-06  NBF=   671
 NBsUse=   671 1.00D-06 EigRej= -1.00D+00 NBFU=   671
 Precomputing XC quadrature grid using
 IXCGrd= 4 IRadAn=           5 IRanWt=          -1 IRanGd=           0 AccXCQ= 0.00D+00.
 Generated NRdTot=       0 NPtTot=           0 NUsed=           0 NTot=          32
 NSgBfM=   657   657   657   657   657 MxSgAt=    48 MxSgA2=    48.
 Leave Link  302 at Mon Jan 18 17:19:01 2021, MaxMem=  4026531840 cpu:              10.9 elap:               1.4
 (Enter /opt/ohpc/pub/libs/gaussian/g16-A.03/sandybridge/g16/l303.exe)
 DipDrv:  MaxL=1.
 Leave Link  303 at Mon Jan 18 17:19:02 2021, MaxMem=  4026531840 cpu:               0.9 elap:               0.2
 (Enter /opt/ohpc/pub/libs/gaussian/g16-A.03/sandybridge/g16/l401.exe)
 ExpMin= 9.52D-02 ExpMax= 6.07D+04 ExpMxC= 2.07D+03 IAcc=3 IRadAn=         5 AccDes= 0.00D+00
 Harris functional with IExCor=33909 and IRadAn=       5 diagonalized for initial guess.
 HarFok:  IExCor=33909 AccDes= 0.00D+00 IRadAn=         5 IDoV= 1 UseB2=F ITyADJ=14
 ICtDFT=  3500011 ScaDFX=  1.000000  1.000000  1.000000  1.000000
 FoFCou: FMM=F IPFlag=           0 FMFlag=      100000 FMFlg1=           0
         NFxFlg=           0 DoJE=T BraDBF=F KetDBF=T FulRan=T
         wScrn=  0.000000 ICntrl=       500 IOpCl=  0 I1Cent=   200000004 NGrid=           0
         NMat0=    1 NMatS0=      1 NMatT0=    0 NMatD0=    1 NMtDS0=    0 NMtDT0=    0
 Petite list used in FoFCou.
 Harris En= -1905.82467368193    
 JPrj=0 DoOrth=F DoCkMO=F.
 Initial guess <Sx>= 0.0000 <Sy>= 0.0000 <Sz>= 0.5000 <S**2>= 0.7500 S= 0.5000
 Leave Link  401 at Mon Jan 18 17:19:09 2021, MaxMem=  4026531840 cpu:              61.2 elap:               7.7
 (Enter /opt/ohpc/pub/libs/gaussian/g16-A.03/sandybridge/g16/l502.exe)
 Integral symmetry usage will be decided dynamically.
 UHF open shell SCF:
 Using DIIS extrapolation, IDIIS=    10.
 NGot=  4026531840 LenX=  4025539370 LenY=  4025048670
 Requested convergence on RMS density matrix=1.00D-06 within  32 cycles.
 Requested convergence on MAX density matrix=1.00D-04.
 Requested convergence on             energy=1.00D-04.
 Virtual orbitals will be shifted by   0.500 hartree.
 No special actions if energy rises.
 Dynamic level shift is on during FON iterations.

 Cycle   1  Pass 1  IDiag  1:
 FoFJK:  IHMeth= 1 ICntrl=       0 DoSepK=T KAlg= 0 I1Cent=           0 FoldK=F
 IRaf=         1 NMat=       1 IRICut=       1 DoRegI=T DoRafI=F ISym2E= 0 IDoP0=0 IntGTp=1.
 FoFCou: FMM=F IPFlag=           0 FMFlag=      100000 FMFlg1=           0
         NFxFlg=           0 DoJE=T BraDBF=F KetDBF=F FulRan=T
         wScrn=  0.000000 ICntrl=       500 IOpCl=  0 I1Cent=           0 NGrid=           0
         NMat0=    1 NMatS0=      1 NMatT0=    0 NMatD0=    1 NMtDS0=    0 NMtDT0=    0
 Symmetry not used in FoFCou.
 E= -1925.51730886822    
 DIIS: error= 1.98D-02 at cycle   1 NSaved=   1.
 NSaved= 1 IEnMin= 1 EnMin= -1925.51730886822     IErMin= 1 ErrMin= 1.98D-02
 ErrMax= 1.98D-02  0.00D+00 EMaxC= 1.00D+00 BMatC= 2.69D+00 BMatP= 2.69D+00
 IDIUse=1 WtCom= 1.00D+00 WtEn= 0.00D+00
 Coeff-Com:  0.100D+01
 Coeff:      0.100D+01
 Gap=     0.513 Goal=   None    Shift=    0.500
 T= 1246. Gap= 0.522 NK=0 IS=  110 IE=  671 IFin=  109
          NO(<0.9)=   0  NV(>0.1)=   0    109.00e < EF      0.00e >EF  Err=0.0D+00
 Gap=    -0.021 Goal=   None    Shift=    0.500
 T= 1246. Gap= 0.413 NK=0 IS=  109 IE=  671 IFin=  108
          NO(<0.9)=   0  NV(>0.1)=   0    108.00e < EF      0.00e >EF  Err=0.0D+00
 GapD=   -0.021 DampG=0.250 DampE=0.500 DampFc=0.1250 IDamp=-1.
 Damping current iteration by 1.25D-01
 RMSDP=4.31D-03 MaxDP=3.87D-01              OVMax= 1.05D-01

 Cycle   2  Pass 1  IDiag  1:
 E= -1925.64848496870     Delta-E=       -0.131176100484 Rises=F Damp=T
 DIIS: error= 1.70D-02 at cycle   2 NSaved=   2.
 NSaved= 2 IEnMin= 2 EnMin= -1925.64848496870     IErMin= 2 ErrMin= 1.70D-02
 ErrMax= 1.70D-02  0.00D+00 EMaxC= 1.00D+00 BMatC= 1.87D+00 BMatP= 2.69D+00
 IDIUse=1 WtCom= 1.00D+00 WtEn= 0.00D+00
 Coeff-Com: -0.476D+01 0.576D+01
 Coeff:     -0.476D+01 0.576D+01
 Gap=     0.211 Goal=   None    Shift=    0.500
 T= 1218. Gap= 0.684 NK=4 IS=  110 IE=  120 IFin=  109
          NO(<0.9)=   0  NV(>0.1)=   0    109.00e < EF      0.00e >EF  Err=0.0D+00
 Gap=     0.074 Goal=   None    Shift=    0.500
 T= 1218. Gap= 0.555 NK=4 IS=  109 IE=  120 IFin=  108
          NO(<0.9)=   0  NV(>0.1)=   0    108.00e < EF      0.00e >EF  Err=0.0D+00
 GapD=    0.074 DampG=0.500 DampE=0.500 DampFc=0.2500 IDamp=-1.
 Damping current iteration by 2.50D-01
 RMSDP=3.53D-03 MaxDP=3.35D-01 DE=-1.31D-01 OVMax= 2.80D-02

 Cycle   3  Pass 1  IDiag  1:
 E= -1925.83189896566     Delta-E=       -0.183413996956 Rises=F Damp=T
 DIIS: error= 1.24D-02 at cycle   3 NSaved=   3.
 NSaved= 3 IEnMin= 3 EnMin= -1925.83189896566     IErMin= 3 ErrMin= 1.24D-02
 ErrMax= 1.24D-02  0.00D+00 EMaxC= 1.00D+00 BMatC= 9.65D-01 BMatP= 1.87D+00
 IDIUse=1 WtCom= 1.00D+00 WtEn= 0.00D+00
 Coeff-Com:  0.121D+00-0.271D+01 0.359D+01
 Coeff:      0.121D+00-0.271D+01 0.359D+01
 Gap=     0.213 Goal=   None    Shift=    0.500
 T= 1134. Gap= 0.712 NK=4 IS=  110 IE=  121 IFin=  109
          NO(<0.9)=   0  NV(>0.1)=   0    109.00e < EF      0.00e >EF  Err=0.0D+00
 Gap=     0.080 Goal=   None    Shift=    0.500
 T= 1134. Gap= 0.579 NK=4 IS=  109 IE=  121 IFin=  108
          NO(<0.9)=   0  NV(>0.1)=   0    108.00e < EF      0.00e >EF  Err=0.0D+00
 GapD=    0.080 DampG=0.500 DampE=0.500 DampFc=0.2500 IDamp=-1.
 Damping current iteration by 2.50D-01
 RMSDP=2.48D-03 MaxDP=2.22D-01 DE=-1.83D-01 OVMax= 1.55D-02

 Cycle   4  Pass 1  IDiag  1:
 E= -1925.94221991124     Delta-E=       -0.110320945581 Rises=F Damp=T
 DIIS: error= 9.25D-03 at cycle   4 NSaved=   4.
 NSaved= 4 IEnMin= 4 EnMin= -1925.94221991124     IErMin= 4 ErrMin= 9.25D-03
 ErrMax= 9.25D-03  0.00D+00 EMaxC= 1.00D+00 BMatC= 5.20D-01 BMatP= 9.65D-01
 IDIUse=1 WtCom= 1.00D+00 WtEn= 0.00D+00
 Coeff-Com:  0.500D+00-0.739D+00-0.267D+01 0.391D+01
 Coeff:      0.500D+00-0.739D+00-0.267D+01 0.391D+01
 Gap=     0.214 Goal=   None    Shift=    0.500
 T=  989. Gap= 0.714 NK=4 IS=  110 IE=  121 IFin=  109
          NO(<0.9)=   0  NV(>0.1)=   0    109.00e < EF      0.00e >EF  Err=0.0D+00
 Gap=     0.081 Goal=   None    Shift=    0.500
 T=  989. Gap= 0.581 NK=4 IS=  109 IE=  121 IFin=  108
          NO(<0.9)=   0  NV(>0.1)=   0    108.00e < EF      0.00e >EF  Err=0.0D+00
 GapD=    0.081 DampG=0.500 DampE=1.000 DampFc=0.5000 IDamp=-1.
 Damping current iteration by 5.00D-01
 RMSDP=1.76D-03 MaxDP=1.42D-01 DE=-1.10D-01 OVMax= 1.44D-02

 Cycle   5  Pass 1  IDiag  1:
 E= -1926.07678538597     Delta-E=       -0.134565474737 Rises=F Damp=T
 DIIS: error= 4.78D-03 at cycle   5 NSaved=   5.
 NSaved= 5 IEnMin= 5 EnMin= -1926.07678538597     IErMin= 5 ErrMin= 4.78D-03
 ErrMax= 4.78D-03  0.00D+00 EMaxC= 1.00D+00 BMatC= 1.24D-01 BMatP= 5.20D-01
 IDIUse=1 WtCom= 1.00D+00 WtEn= 0.00D+00
 Coeff-Com:  0.541D-01 0.316D+00-0.658D+00-0.887D+00 0.218D+01
 Coeff:      0.541D-01 0.316D+00-0.658D+00-0.887D+00 0.218D+01
 Gap=     0.217 Goal=   None    Shift=    0.500
 T=  760. Gap= 0.717 NK=4 IS=  110 IE=  121 IFin=  109
          NO(<0.9)=   0  NV(>0.1)=   0    109.00e < EF      0.00e >EF  Err=0.0D+00
 Gap=     0.083 Goal=   None    Shift=    0.500
 T=  760. Gap= 0.583 NK=4 IS=  109 IE=  121 IFin=  108
          NO(<0.9)=   0  NV(>0.1)=   0    108.00e < EF      0.00e >EF  Err=0.0D+00
 GapD=    0.083 DampG=0.500 DampE=1.000 DampFc=0.5000 IDamp=-1.
 Damping current iteration by 5.00D-01
 RMSDP=8.50D-04 MaxDP=6.13D-02 DE=-1.35D-01 OVMax= 1.41D-02

 Cycle   6  Pass 1  IDiag  1:
 E= -1926.13229422433     Delta-E=       -0.055508838354 Rises=F Damp=T
 DIIS: error= 2.58D-03 at cycle   6 NSaved=   6.
 NSaved= 6 IEnMin= 6 EnMin= -1926.13229422433     IErMin= 6 ErrMin= 2.58D-03
 ErrMax= 2.58D-03  0.00D+00 EMaxC= 1.00D+00 BMatC= 3.07D-02 BMatP= 1.24D-01
 IDIUse=1 WtCom= 1.00D+00 WtEn= 0.00D+00
 Coeff-Com: -0.604D-01 0.193D+00 0.851D-01-0.134D+00-0.175D+01 0.266D+01
 Coeff:     -0.604D-01 0.193D+00 0.851D-01-0.134D+00-0.175D+01 0.266D+01
 Gap=     0.220 Goal=   None    Shift=    0.500
 T=  482. Gap= 0.720 NK=4 IS=  110 IE=  121 IFin=  109
          NO(<0.9)=   0  NV(>0.1)=   0    109.00e < EF      0.00e >EF  Err=0.0D+00
 Gap=     0.085 Goal=   None    Shift=    0.500
 T=  482. Gap= 0.585 NK=4 IS=  109 IE=  121 IFin=  108
          NO(<0.9)=   0  NV(>0.1)=   0    108.00e < EF      0.00e >EF  Err=0.0D+00
 GapD=    0.085 DampG=0.500 DampE=1.000 DampFc=0.5000 IDamp=-1.
 Damping current iteration by 5.00D-01
 RMSDP=4.31D-04 MaxDP=2.88D-02 DE=-5.55D-02 OVMax= 1.38D-02

 Cycle   7  Pass 1  IDiag  1:
 E= -1926.15757669672     Delta-E=       -0.025282472395 Rises=F Damp=T
 DIIS: error= 2.12D-03 at cycle   7 NSaved=   7.
 NSaved= 7 IEnMin= 7 EnMin= -1926.15757669672     IErMin= 7 ErrMin= 2.12D-03
 ErrMax= 2.12D-03  0.00D+00 EMaxC= 1.00D+00 BMatC= 7.81D-03 BMatP= 3.07D-02
 IDIUse=1 WtCom= 1.00D+00 WtEn= 0.00D+00
 Coeff-Com: -0.166D-01-0.964D-01 0.271D+00 0.341D+00-0.711D+00-0.237D+01
 Coeff-Com:  0.358D+01
 Coeff:     -0.166D-01-0.964D-01 0.271D+00 0.341D+00-0.711D+00-0.237D+01
 Coeff:      0.358D+01
 Gap=     0.222 Goal=   None    Shift=    0.500
 T=  145. Gap= 0.722 NK=4 IS=  110 IE=  121 IFin=  109
          NO(<0.9)=   0  NV(>0.1)=   0    109.00e < EF      0.00e >EF  Err=0.0D+00
 Gap=     0.086 Goal=   None    Shift=    0.500
 T=  145. Gap= 0.586 NK=4 IS=  109 IE=  121 IFin=  108
          NO(<0.9)=   0  NV(>0.1)=   0    108.00e < EF      0.00e >EF  Err=0.0D+00
 GapD=    0.086 DampG=0.500 DampE=1.000 DampFc=0.5000 IDamp=-1.
 Damping current iteration by 5.00D-01
 RMSDP=2.49D-04 MaxDP=1.36D-02 DE=-2.53D-02 OVMax= 1.55D-02

 Cycle   8  Pass 1  IDiag  1:
 E= -1926.16980585736     Delta-E=       -0.012229160632 Rises=F Damp=T
 DIIS: error= 1.98D-03 at cycle   8 NSaved=   8.
 NSaved= 8 IEnMin= 8 EnMin= -1926.16980585736     IErMin= 8 ErrMin= 1.98D-03
 ErrMax= 1.98D-03  0.00D+00 EMaxC= 1.00D+00 BMatC= 2.14D-03 BMatP= 7.81D-03
 IDIUse=1 WtCom= 1.00D+00 WtEn= 0.00D+00
 Coeff-Com:  0.176D-01-0.125D+00 0.127D+00 0.153D+00 0.603D+00-0.229D+01
 Coeff-Com: -0.353D+00 0.287D+01
 Coeff:      0.176D-01-0.125D+00 0.127D+00 0.153D+00 0.603D+00-0.229D+01
 Coeff:     -0.353D+00 0.287D+01
 Gap=     0.224 Goal=   None    Shift=    0.500
 Gap=     0.087 Goal=   None    Shift=    0.500
 GapD=    0.087 DampG=0.500 DampE=1.000 DampFc=0.5000 IDamp=-1.
 Damping current iteration by 5.00D-01
 RMSDP=1.76D-04 MaxDP=1.25D-02 DE=-1.22D-02 OVMax= 1.57D-02

 Cycle   9  Pass 1  IDiag  1:
 E= -1926.17597265982     Delta-E=       -0.006166802467 Rises=F Damp=T
 DIIS: error= 1.92D-03 at cycle   9 NSaved=   9.
 NSaved= 9 IEnMin= 9 EnMin= -1926.17597265982     IErMin= 9 ErrMin= 1.92D-03
 ErrMax= 1.92D-03  0.00D+00 EMaxC= 1.00D+00 BMatC= 6.94D-04 BMatP= 2.14D-03
 IDIUse=1 WtCom= 1.00D+00 WtEn= 0.00D+00
 Coeff-Com: -0.714D-03-0.138D-01 0.285D-01-0.476D-01 0.392D+00-0.429D+00
 Coeff-Com: -0.494D+00-0.135D+01 0.291D+01
 Coeff:     -0.714D-03-0.138D-01 0.285D-01-0.476D-01 0.392D+00-0.429D+00
 Coeff:     -0.494D+00-0.135D+01 0.291D+01
 Gap=     0.226 Goal=   None    Shift=    0.500
 Gap=     0.088 Goal=   None    Shift=    0.500
 GapD=    0.088 DampG=0.500 DampE=1.000 DampFc=0.5000 IDamp=-1.
 Damping current iteration by 5.00D-01
 RMSDP=1.39D-04 MaxDP=1.27D-02 DE=-6.17D-03 OVMax= 1.55D-02

 Cycle  10  Pass 1  IDiag  1:
 E= -1926.17919605251     Delta-E=       -0.003223392687 Rises=F Damp=T
 DIIS: error= 1.88D-03 at cycle  10 NSaved=  10.
 NSaved=10 IEnMin=10 EnMin= -1926.17919605251     IErMin=10 ErrMin= 1.88D-03
 ErrMax= 1.88D-03  0.00D+00 EMaxC= 1.00D+00 BMatC= 3.01D-04 BMatP= 6.94D-04
 IDIUse=1 WtCom= 1.00D+00 WtEn= 0.00D+00
 Coeff-Com: -0.176D-01 0.336D-01 0.510D-01-0.599D-02-0.543D+00 0.803D+00
 Coeff-Com:  0.652D+00-0.711D+00-0.419D+01 0.493D+01
 Coeff:     -0.176D-01 0.336D-01 0.510D-01-0.599D-02-0.543D+00 0.803D+00
 Coeff:      0.652D+00-0.711D+00-0.419D+01 0.493D+01
 Gap=     0.229 Goal=   None    Shift=    0.500
 Gap=     0.089 Goal=   None    Shift=    0.500
 GapD=    0.089 DampG=0.500 DampE=1.000 DampFc=0.5000 IDamp=-1.
 Damping current iteration by 5.00D-01
 RMSDP=1.27D-04 MaxDP=1.21D-02 DE=-3.22D-03 OVMax= 1.68D-02

 Cycle  11  Pass 1  IDiag  1:
 E= -1926.18096533388     Delta-E=       -0.001769281369 Rises=F Damp=T
 DIIS: error= 1.88D-03 at cycle  11 NSaved=  11.
 NSaved=11 IEnMin=11 EnMin= -1926.18096533388     IErMin=10 ErrMin= 1.88D-03
 ErrMax= 1.88D-03  0.00D+00 EMaxC= 1.00D+00 BMatC= 1.91D-04 BMatP= 3.01D-04
 IDIUse=1 WtCom= 1.00D+00 WtEn= 0.00D+00
 Coeff-Com: -0.206D-01 0.221D-01 0.107D+00-0.371D-03-0.767D+00 0.920D+00
 Coeff-Com:  0.735D+00 0.187D+00-0.490D+01 0.315D+01 0.157D+01
 Coeff:     -0.206D-01 0.221D-01 0.107D+00-0.371D-03-0.767D+00 0.920D+00
 Coeff:      0.735D+00 0.187D+00-0.490D+01 0.315D+01 0.157D+01
 Gap=     0.230 Goal=   None    Shift=    0.500
 Gap=     0.089 Goal=   None    Shift=    0.500
 GapD=    0.089 DampG=0.500 DampE=1.000 DampFc=0.5000 IDamp=-1.
 Damping current iteration by 5.00D-01
 RMSDP=1.12D-04 MaxDP=1.03D-02 DE=-1.77D-03 OVMax= 1.60D-02

 Cycle  12  Pass 1  IDiag  1:
 E= -1926.18200307802     Delta-E=       -0.001037744143 Rises=F Damp=T
 DIIS: error= 1.88D-03 at cycle  12 NSaved=  12.
 NSaved=12 IEnMin=12 EnMin= -1926.18200307802     IErMin=12 ErrMin= 1.88D-03
 ErrMax= 1.88D-03  0.00D+00 EMaxC= 1.00D+00 BMatC= 1.55D-04 BMatP= 1.91D-04
 IDIUse=1 WtCom= 1.00D+00 WtEn= 0.00D+00
 Coeff-Com: -0.145D-01-0.158D-01 0.138D+00 0.174D-01-0.398D+00-0.150D+00
 Coeff-Com:  0.680D+00 0.112D+01-0.228D+01 0.130D+01-0.369D+01 0.429D+01
 Coeff:     -0.145D-01-0.158D-01 0.138D+00 0.174D-01-0.398D+00-0.150D+00
 Coeff:      0.680D+00 0.112D+01-0.228D+01 0.130D+01-0.369D+01 0.429D+01
 Gap=     0.232 Goal=   None    Shift=    0.500
 Gap=     0.090 Goal=   None    Shift=    0.500
 GapD=    0.090 DampG=0.500 DampE=1.000 DampFc=0.5000 IDamp=-1.
 Damping current iteration by 5.00D-01
 RMSDP=1.08D-04 MaxDP=8.74D-03 DE=-1.04D-03 OVMax= 1.70D-02

 Cycle  13  Pass 1  IDiag  1:
 E= -1926.18267475702     Delta-E=       -0.000671678994 Rises=F Damp=T
 DIIS: error= 1.89D-03 at cycle  13 NSaved=  13.
 NSaved=13 IEnMin=13 EnMin= -1926.18267475702     IErMin=12 ErrMin= 1.88D-03
 ErrMax= 1.89D-03  0.00D+00 EMaxC= 1.00D+00 BMatC= 1.43D-04 BMatP= 1.55D-04
 IDIUse=1 WtCom= 1.00D+00 WtEn= 0.00D+00
 Coeff-Com: -0.142D-01-0.156D-01 0.135D+00 0.167D-01-0.372D+00-0.184D+00
 Coeff-Com:  0.649D+00 0.109D+01-0.209D+01 0.132D+01-0.377D+01 0.391D+01
 Coeff-Com:  0.317D+00
 Coeff:     -0.142D-01-0.156D-01 0.135D+00 0.167D-01-0.372D+00-0.184D+00
 Coeff:      0.649D+00 0.109D+01-0.209D+01 0.132D+01-0.377D+01 0.391D+01
 Coeff:      0.317D+00
 Gap=     0.232 Goal=   None    Shift=    0.500
 Gap=     0.090 Goal=   None    Shift=    0.500
 GapD=    0.090 DampG=0.500 DampE=1.000 DampFc=0.5000 IDamp=-1.
 Damping current iteration by 5.00D-01
 RMSDP=9.19D-05 MaxDP=6.65D-03 DE=-6.72D-04 OVMax= 1.47D-02

 Cycle  14  Pass 1  IDiag  1:
 E= -1926.18314755698     Delta-E=       -0.000472799962 Rises=F Damp=T
 DIIS: error= 1.87D-03 at cycle  14 NSaved=  14.
 NSaved=14 IEnMin=14 EnMin= -1926.18314755698     IErMin=14 ErrMin= 1.87D-03
 ErrMax= 1.87D-03  0.00D+00 EMaxC= 1.00D+00 BMatC= 1.36D-04 BMatP= 1.43D-04
 IDIUse=1 WtCom= 1.00D+00 WtEn= 0.00D+00
 Coeff-Com: -0.142D-01-0.783D-02 0.101D+00 0.404D-01-0.301D+00-0.346D+00
 Coeff-Com:  0.846D+00 0.700D+00-0.123D+01-0.104D+01 0.439D+00 0.250D+01
 Coeff-Com: -0.316D+01 0.248D+01
 Coeff:     -0.142D-01-0.783D-02 0.101D+00 0.404D-01-0.301D+00-0.346D+00
 Coeff:      0.846D+00 0.700D+00-0.123D+01-0.104D+01 0.439D+00 0.250D+01
 Coeff:     -0.316D+01 0.248D+01
 Gap=     0.233 Goal=   None    Shift=    0.500
 Gap=     0.091 Goal=   None    Shift=    0.500
 GapD=    0.091 DampG=0.500 DampE=1.000 DampFc=0.5000 IDamp=-1.
 Damping current iteration by 5.00D-01
 RMSDP=7.91D-05 MaxDP=5.03D-03 DE=-4.73D-04 OVMax= 1.34D-02

 Cycle  15  Pass 1  IDiag  1:
 E= -1926.18350503348     Delta-E=       -0.000357476500 Rises=F Damp=T
 DIIS: error= 1.85D-03 at cycle  15 NSaved=  15.
 NSaved=15 IEnMin=15 EnMin= -1926.18350503348     IErMin=15 ErrMin= 1.85D-03
 ErrMax= 1.85D-03  0.00D+00 EMaxC= 1.00D+00 BMatC= 1.34D-04 BMatP= 1.36D-04
 IDIUse=1 WtCom= 1.00D+00 WtEn= 0.00D+00
 Coeff-Com: -0.146D-01-0.379D-02 0.907D-01 0.418D-01-0.289D+00-0.316D+00
 Coeff-Com:  0.811D+00 0.568D+00-0.928D+00-0.193D+01 0.263D+01-0.722D+00
 Coeff-Com:  0.216D+01-0.437D+01 0.328D+01
 Coeff:     -0.146D-01-0.379D-02 0.907D-01 0.418D-01-0.289D+00-0.316D+00
 Coeff:      0.811D+00 0.568D+00-0.928D+00-0.193D+01 0.263D+01-0.722D+00
 Coeff:      0.216D+01-0.437D+01 0.328D+01
 Gap=     0.234 Goal=   None    Shift=    0.500
 Gap=     0.091 Goal=   None    Shift=    0.500
 GapD=    0.091 DampG=0.500 DampE=1.000 DampFc=0.5000 IDamp=-1.
 Damping current iteration by 5.00D-01
 RMSDP=7.01D-05 MaxDP=3.87D-03 DE=-3.57D-04 OVMax= 1.25D-02

 Cycle  16  Pass 1  IDiag  1:
 E= -1926.18379284263     Delta-E=       -0.000287809156 Rises=F Damp=T
 DIIS: error= 1.82D-03 at cycle  16 NSaved=  16.
 NSaved=16 IEnMin=16 EnMin= -1926.18379284263     IErMin=16 ErrMin= 1.82D-03
 ErrMax= 1.82D-03  0.00D+00 EMaxC= 1.00D+00 BMatC= 1.38D-04 BMatP= 1.34D-04
 IDIUse=1 WtCom= 1.00D+00 WtEn= 0.00D+00
 Coeff-Com: -0.146D-01-0.587D-02 0.970D-01 0.396D-01-0.309D+00-0.273D+00
 Coeff-Com:  0.764D+00 0.660D+00-0.112D+01-0.151D+01 0.200D+01-0.124D+01
 Coeff-Com:  0.430D+01-0.441D+01 0.197D+00 0.184D+01
 Coeff:     -0.146D-01-0.587D-02 0.970D-01 0.396D-01-0.309D+00-0.273D+00
 Coeff:      0.764D+00 0.660D+00-0.112D+01-0.151D+01 0.200D+01-0.124D+01
 Coeff:      0.430D+01-0.441D+01 0.197D+00 0.184D+01
 Gap=     0.234 Goal=   None    Shift=    0.500
 Gap=     0.092 Goal=   None    Shift=    0.500
 GapD=    0.092 DampG=0.500 DampE=1.000 DampFc=0.5000 IDamp=-1.
 Damping current iteration by 5.00D-01
 RMSDP=6.00D-05 MaxDP=3.03D-03 DE=-2.88D-04 OVMax= 1.09D-02

 Cycle  17  Pass 1  IDiag  1:
 E= -1926.18402992594     Delta-E=       -0.000237083301 Rises=F Damp=T
 DIIS: error= 1.77D-03 at cycle  17 NSaved=  17.
 NSaved=17 IEnMin=17 EnMin= -1926.18402992594     IErMin=17 ErrMin= 1.77D-03
 ErrMax= 1.77D-03  0.00D+00 EMaxC= 1.00D+00 BMatC= 1.50D-04 BMatP= 1.34D-04
 IDIUse=1 WtCom= 1.00D+00 WtEn= 0.00D+00
 Large coefficients: NSaved= 17 BigCof=   33.49 CofMax=   10.00 Det=-1.10D-09
 Inversion failed.  Reducing to 16 matrices.
 Large coefficients: NSaved= 16 BigCof=   33.19 CofMax=   10.00 Det=-1.10D-09
 Inversion failed.  Reducing to 15 matrices.
 Large coefficients: NSaved= 15 BigCof=   31.18 CofMax=   10.00 Det=-1.11D-09
 Inversion failed.  Reducing to 14 matrices.
 Large coefficients: NSaved= 14 BigCof=   31.46 CofMax=   10.00 Det=-1.11D-09
 Inversion failed.  Reducing to 13 matrices.
 Large coefficients: NSaved= 13 BigCof=   34.37 CofMax=   10.00 Det=-1.15D-09
 Inversion failed.  Reducing to 12 matrices.
 Large coefficients: NSaved= 12 BigCof=   25.92 CofMax=   10.00 Det=-1.25D-09
 Inversion failed.  Reducing to 11 matrices.
 Large coefficients: NSaved= 11 BigCof=   19.63 CofMax=   10.00 Det=-1.46D-09
 Inversion failed.  Reducing to 10 matrices.
 Large coefficients: NSaved= 10 BigCof=   19.97 CofMax=   10.00 Det=-1.50D-09
 Inversion failed.  Reducing to  9 matrices.
 Large coefficients: NSaved=  9 BigCof=   20.56 CofMax=   10.00 Det=-1.52D-09
 Inversion failed.  Reducing to  8 matrices.
 Large coefficients: NSaved=  8 BigCof=   17.09 CofMax=   10.00 Det=-1.60D-09
 Inversion failed.  Reducing to  7 matrices.
 Large coefficients: NSaved=  7 BigCof=   12.00 CofMax=   10.00 Det=-1.93D-09
 Inversion failed.  Reducing to  6 matrices.
 Coeff-Com: -0.271D+01 0.673D+01-0.397D+01 0.277D+01-0.545D+01 0.362D+01
 Coeff:     -0.271D+01 0.673D+01-0.397D+01 0.277D+01-0.545D+01 0.362D+01
 Gap=     0.233 Goal=   None    Shift=    0.500
 Gap=     0.091 Goal=   None    Shift=    0.500
 GapD=    0.091 DampG=0.500 DampE=1.000 DampFc=0.5000 IDamp=-1.
 Damping current iteration by 5.00D-01
 RMSDP=4.10D-05 MaxDP=2.38D-03 DE=-2.37D-04 OVMax= 7.06D-03

 Cycle  18  Pass 1  IDiag  1:
 E= -1926.18420062100     Delta-E=       -0.000170695066 Rises=F Damp=T
 DIIS: error= 1.70D-03 at cycle  18 NSaved=   7.
 NSaved= 7 IEnMin= 7 EnMin= -1926.18420062100     IErMin= 7 ErrMin= 1.70D-03
 ErrMax= 1.70D-03  0.00D+00 EMaxC= 1.00D+00 BMatC= 1.86D-04 BMatP= 1.34D-04
 IDIUse=1 WtCom= 1.00D+00 WtEn= 0.00D+00
 Coeff-Com: -0.285D+01 0.666D+01-0.402D+01 0.230D+01-0.948D+00-0.185D+01
 Coeff-Com:  0.170D+01
 Coeff:     -0.285D+01 0.666D+01-0.402D+01 0.230D+01-0.948D+00-0.185D+01
 Coeff:      0.170D+01
 Gap=     0.232 Goal=   None    Shift=    0.500
 Gap=     0.091 Goal=   None    Shift=    0.500
 GapD=    0.091 DampG=0.500 DampE=1.000 DampFc=0.5000 IDamp=-1.
 Damping current iteration by 5.00D-01
 RMSDP=3.00D-05 MaxDP=1.74D-03 DE=-1.71D-04 OVMax= 4.34D-03

 Cycle  19  Pass 1  IDiag  1:
 E= -1926.18430280419     Delta-E=       -0.000102183191 Rises=F Damp=T
 DIIS: error= 1.60D-03 at cycle  19 NSaved=   8.
 NSaved= 8 IEnMin= 8 EnMin= -1926.18430280419     IErMin= 8 ErrMin= 1.60D-03
 ErrMax= 1.60D-03  0.00D+00 EMaxC= 1.00D+00 BMatC= 2.58D-04 BMatP= 1.34D-04
 IDIUse=1 WtCom= 1.00D+00 WtEn= 0.00D+00
 Coeff-Com: -0.282D+01 0.668D+01-0.426D+01 0.163D+01 0.123D+01-0.294D+01
 Coeff-Com:  0.106D+01 0.415D+00
 Coeff:     -0.282D+01 0.668D+01-0.426D+01 0.163D+01 0.123D+01-0.294D+01
 Coeff:      0.106D+01 0.415D+00
 Gap=     0.231 Goal=   None    Shift=    0.500
 Gap=     0.091 Goal=   None    Shift=    0.500
 GapD=    0.091 DampG=0.500 DampE=1.000 DampFc=0.5000 IDamp=-1.
 Damping current iteration by 5.00D-01
 RMSDP=2.40D-05 MaxDP=1.36D-03 DE=-1.02D-04 OVMax= 3.32D-03

 Cycle  20  Pass 1  IDiag  1:
 E= -1926.18436133802     Delta-E=       -0.000058533832 Rises=F Damp=T
 DIIS: error= 1.51D-03 at cycle  20 NSaved=   9.
 NSaved= 9 IEnMin= 9 EnMin= -1926.18436133802     IErMin= 9 ErrMin= 1.51D-03
 ErrMax= 1.51D-03  0.00D+00 EMaxC= 1.00D+00 BMatC= 3.46D-04 BMatP= 1.34D-04
 IDIUse=1 WtCom= 1.00D+00 WtEn= 0.00D+00
 Coeff-Com: -0.236D+01 0.537D+01-0.364D+01 0.267D+01 0.352D+00-0.331D+01
 Coeff-Com:  0.322D+01-0.276D+01 0.147D+01
 Coeff:     -0.236D+01 0.537D+01-0.364D+01 0.267D+01 0.352D+00-0.331D+01
 Coeff:      0.322D+01-0.276D+01 0.147D+01
 Gap=     0.231 Goal=   None    Shift=    0.500
 Gap=     0.092 Goal=   None    Shift=    0.500
 GapD=    0.092 DampG=0.500 DampE=1.000 DampFc=0.5000 IDamp=-1.
 Damping current iteration by 5.00D-01
 RMSDP=1.85D-05 MaxDP=1.14D-03 DE=-5.85D-05 OVMax= 2.72D-03

 Cycle  21  Pass 1  IDiag  1:
 E= -1926.18439731230     Delta-E=       -0.000035974273 Rises=F Damp=T
 DIIS: error= 1.44D-03 at cycle  21 NSaved=  10.
 NSaved=10 IEnMin=10 EnMin= -1926.18439731230     IErMin=10 ErrMin= 1.44D-03
 ErrMax= 1.44D-03  0.00D+00 EMaxC= 1.00D+00 BMatC= 4.30D-04 BMatP= 1.34D-04
 IDIUse=1 WtCom= 1.00D+00 WtEn= 0.00D+00
 Large coefficients: NSaved= 10 BigCof=   15.29 CofMax=   10.00 Det=-3.67D-10
 Inversion failed.  Reducing to  9 matrices.
 Large coefficients: NSaved=  9 BigCof=   20.75 CofMax=   10.00 Det=-4.27D-10
 Inversion failed.  Reducing to  8 matrices.
 Large coefficients: NSaved=  8 BigCof=   17.74 CofMax=   10.00 Det=-4.36D-10
 Inversion failed.  Reducing to  7 matrices.
 Large coefficients: NSaved=  7 BigCof=   15.34 CofMax=   10.00 Det=-4.39D-10
 Inversion failed.  Reducing to  6 matrices.
 Large coefficients: NSaved=  6 BigCof=   16.33 CofMax=   10.00 Det=-4.45D-10
 Inversion failed.  Reducing to  5 matrices.
 Coeff-Com:  0.642D+00 0.356D+01-0.217D+01-0.518D+01 0.415D+01
 Coeff:      0.642D+00 0.356D+01-0.217D+01-0.518D+01 0.415D+01
 Gap=     0.235 Goal=   None    Shift=    0.500
 Gap=     0.092 Goal=   None    Shift=    0.500
 GapD=    0.092 DampG=0.500 DampE=1.000 DampFc=0.5000 IDamp=-1.
 Damping current iteration by 5.00D-01
 RMSDP=3.04D-05 MaxDP=1.67D-03 DE=-3.60D-05 OVMax= 7.01D-03

 Cycle  22  Pass 1  IDiag  1:
 E= -1926.18449295544     Delta-E=       -0.000095643143 Rises=F Damp=T
 DIIS: error= 1.44D-03 at cycle  22 NSaved=   6.
 NSaved= 6 IEnMin= 6 EnMin= -1926.18449295544     IErMin= 5 ErrMin= 1.44D-03
 ErrMax= 1.44D-03  0.00D+00 EMaxC= 1.00D+00 BMatC= 4.18D-04 BMatP= 1.50D-04
 IDIUse=1 WtCom= 1.00D+00 WtEn= 0.00D+00
 Coeff-Com: -0.872D+00 0.881D+01-0.683D+01-0.660D+01 0.768D+01-0.120D+01
 Coeff:     -0.872D+00 0.881D+01-0.683D+01-0.660D+01 0.768D+01-0.120D+01
 Gap=     0.234 Goal=   None    Shift=    0.500
 Gap=     0.092 Goal=   None    Shift=    0.500
 GapD=    0.092 DampG=0.500 DampE=1.000 DampFc=0.5000 IDamp=-1.
 Damping current iteration by 5.00D-01
 RMSDP=2.90D-05 MaxDP=1.56D-03 DE=-9.56D-05 OVMax= 5.24D-03

 Cycle  23  Pass 1  IDiag  1:
 E= -1926.18458365342     Delta-E=       -0.000090697979 Rises=F Damp=T
 DIIS: error= 1.43D-03 at cycle  23 NSaved=   7.
 NSaved= 7 IEnMin= 7 EnMin= -1926.18458365342     IErMin= 7 ErrMin= 1.43D-03
 ErrMax= 1.43D-03  0.00D+00 EMaxC= 1.00D+00 BMatC= 4.20D-04 BMatP= 1.50D-04
 IDIUse=1 WtCom= 1.00D+00 WtEn= 0.00D+00
 Large coefficients: NSaved=  7 BigCof=   53.14 CofMax=   10.00 Det=-4.40D-10
 Inversion failed.  Reducing to  6 matrices.
 Large coefficients: NSaved=  6 BigCof=   21.29 CofMax=   10.00 Det=-4.47D-10
 Inversion failed.  Reducing to  5 matrices.
 Large coefficients: NSaved=  5 BigCof=   31.75 CofMax=   10.00 Det=-1.33D-09
 Inversion failed.  Reducing to  4 matrices.
 Coeff-Com:  0.605D+01-0.791D+01 0.341D+01-0.549D+00
 Coeff:      0.605D+01-0.791D+01 0.341D+01-0.549D+00
 Gap=     0.237 Goal=   None    Shift=    0.500
 Gap=     0.093 Goal=   None    Shift=    0.500
 GapD=    0.093 DampG=0.500 DampE=1.000 DampFc=0.5000 IDamp=-1.
 Damping current iteration by 5.00D-01
 RMSDP=4.96D-05 MaxDP=3.04D-03 DE=-9.07D-05 OVMax= 8.75D-03

 Cycle  24  Pass 1  IDiag  1:
 E= -1926.18471983889     Delta-E=       -0.000136185473 Rises=F Damp=T
 DIIS: error= 1.46D-03 at cycle  24 NSaved=   5.
 NSaved= 5 IEnMin= 5 EnMin= -1926.18471983889     IErMin= 4 ErrMin= 1.43D-03
 ErrMax= 1.46D-03  0.00D+00 EMaxC= 1.00D+00 BMatC= 3.75D-04 BMatP= 3.46D-04
 IDIUse=1 WtCom= 1.00D+00 WtEn= 0.00D+00
 Coeff-Com:  0.564D+01-0.637D+01 0.116D+01-0.561D+00 0.113D+01
 Coeff:      0.564D+01-0.637D+01 0.116D+01-0.561D+00 0.113D+01
 Gap=     0.238 Goal=   None    Shift=    0.500
 Gap=     0.093 Goal=   None    Shift=    0.500
 GapD=    0.093 DampG=0.500 DampE=1.000 DampFc=0.5000 IDamp=-1.
 Damping current iteration by 5.00D-01
 RMSDP=5.55D-05 MaxDP=3.64D-03 DE=-1.36D-04 OVMax= 8.89D-03

 Cycle  25  Pass 1  IDiag  1:
 E= -1926.18487215546     Delta-E=       -0.000152316567 Rises=F Damp=T
 DIIS: error= 1.50D-03 at cycle  25 NSaved=   6.
 NSaved= 6 IEnMin= 6 EnMin= -1926.18487215546     IErMin= 4 ErrMin= 1.43D-03
 ErrMax= 1.50D-03  0.00D+00 EMaxC= 1.00D+00 BMatC= 3.36D-04 BMatP= 3.46D-04
 IDIUse=1 WtCom= 1.00D+00 WtEn= 0.00D+00
 Coeff-Com:  0.622D+01-0.694D+01 0.109D+01-0.148D+01 0.434D+01-0.223D+01
 Coeff:      0.622D+01-0.694D+01 0.109D+01-0.148D+01 0.434D+01-0.223D+01
 Gap=     0.236 Goal=   None    Shift=    0.500
 Gap=     0.093 Goal=   None    Shift=    0.500
 GapD=    0.093 DampG=0.500 DampE=1.000 DampFc=0.5000 IDamp=-1.
 Damping current iteration by 5.00D-01
 RMSDP=3.66D-05 MaxDP=2.15D-03 DE=-1.52D-04 OVMax= 5.40D-03

 Cycle  26  Pass 1  IDiag  1:
 E= -1926.18498478035     Delta-E=       -0.000112624893 Rises=F Damp=T
 DIIS: error= 1.48D-03 at cycle  26 NSaved=   7.
 NSaved= 7 IEnMin= 7 EnMin= -1926.18498478035     IErMin= 4 ErrMin= 1.43D-03
 ErrMax= 1.48D-03  0.00D+00 EMaxC= 1.00D+00 BMatC= 3.61D-04 BMatP= 3.36D-04
 IDIUse=1 WtCom= 1.00D+00 WtEn= 0.00D+00
 Large coefficients: NSaved=  7 BigCof=   27.38 CofMax=   10.00 Det=-1.97D-09
 Inversion failed.  Reducing to  6 matrices.
 Large coefficients: NSaved=  6 BigCof=   19.86 CofMax=   10.00 Det=-1.14D-08
 Inversion failed.  Reducing to  5 matrices.
 Large coefficients: NSaved=  5 BigCof=   18.90 CofMax=   10.00 Det=-2.79D-08
 Inversion failed.  Reducing to  4 matrices.
 Large coefficients: NSaved=  4 BigCof=   19.31 CofMax=   10.00 Det=-3.00D-08
 Inversion failed.  Reducing to  3 matrices.
 Large coefficients: NSaved=  3 BigCof=   12.97 CofMax=   10.00 Det=-3.59D-07
 Inversion failed.  Reducing to  2 matrices.
 Large coefficients: NSaved=  2 BigCof=   15.20 CofMax=   10.00 Det=-8.50D-07
 Coeff-Com:  0.152D+02-0.142D+02
 Coeff:      0.152D+02-0.142D+02
 Gap=     0.232 Goal=   None    Shift=    0.500
 Gap=     0.093 Goal=   None    Shift=    0.500
 GapD=    0.093 DampG=0.500 DampE=1.000 DampFc=0.5000 IDamp=-1.
 Damping current iteration by 5.00D-01
 RMSDP=4.34D-05 MaxDP=3.65D-03 DE=-1.13D-04 OVMax= 5.31D-03

 Cycle  27  Pass 1  IDiag  1:
 E= -1926.18493054863     Delta-E=        0.000054231718 Rises=F Damp=T
 DIIS: error= 1.35D-03 at cycle  27 NSaved=   3.
 NSaved= 3 IEnMin= 2 EnMin= -1926.18498478035     IErMin= 3 ErrMin= 1.35D-03
 ErrMax= 1.35D-03  0.00D+00 EMaxC= 1.00D+00 BMatC= 5.26D-04 BMatP= 3.36D-04
 IDIUse=1 WtCom= 1.00D+00 WtEn= 0.00D+00
 Large coefficients: NSaved=  3 BigCof=   12.02 CofMax=   10.00 Det=-3.93D-08
 Inversion failed.  Reducing to  2 matrices.
 Coeff-Com:  0.372D+01-0.272D+01
 Coeff:      0.372D+01-0.272D+01
 Gap=     0.242 Goal=   None    Shift=    0.000
 Gap=     0.094 Goal=   None    Shift=    0.000
 GapD=    0.094 DampG=0.500 DampE=1.000 DampFc=0.5000 IDamp=-1.
 Damping current iteration by 5.00D-01
 RMSDP=2.04D-04 MaxDP=9.72D-03 DE= 5.42D-05 OVMax= 7.46D-02

 Cycle  28  Pass 1  IDiag  1:
 E= -1926.18538037460     Delta-E=       -0.000449825964 Rises=F Damp=T
 DIIS: error= 1.29D-03 at cycle  28 NSaved=   3.
 NSaved= 3 IEnMin= 3 EnMin= -1926.18538037460     IErMin= 3 ErrMin= 1.29D-03
 ErrMax= 1.29D-03  0.00D+00 EMaxC= 1.00D+00 BMatC= 6.03D-04 BMatP= 3.61D-04
 IDIUse=1 WtCom= 1.00D+00 WtEn= 0.00D+00
 Coeff-Com:  0.466D+01-0.569D+01 0.203D+01
 Coeff:      0.466D+01-0.569D+01 0.203D+01
 Gap=     0.246 Goal=   None    Shift=    0.500
 Gap=     0.097 Goal=   None    Shift=    0.500
 GapD=    0.097 DampG=0.500 DampE=1.000 DampFc=0.5000 IDamp=-1.
 Damping current iteration by 5.00D-01
 RMSDP=1.70D-04 MaxDP=1.03D-02 DE=-4.50D-04 OVMax= 1.24D-02

 Cycle  29  Pass 1  IDiag  1:
 E= -1926.18587587771     Delta-E=       -0.000495503116 Rises=F Damp=T
 DIIS: error= 1.40D-03 at cycle  29 NSaved=   4.
 NSaved= 4 IEnMin= 4 EnMin= -1926.18587587771     IErMin= 3 ErrMin= 1.29D-03
 ErrMax= 1.40D-03  0.00D+00 EMaxC= 1.00D+00 BMatC= 4.14D-04 BMatP= 3.61D-04
 IDIUse=1 WtCom= 1.00D+00 WtEn= 0.00D+00
 Coeff-Com:  0.263D+01-0.294D+01-0.444D+00 0.175D+01
 Coeff:      0.263D+01-0.294D+01-0.444D+00 0.175D+01
 Gap=     0.247 Goal=   None    Shift=    0.500
 Gap=     0.097 Goal=   None    Shift=    0.500
 GapD=    0.097 DampG=0.500 DampE=1.000 DampFc=0.5000 IDamp=-1.
 Damping current iteration by 5.00D-01
 RMSDP=1.43D-04 MaxDP=1.01D-02 DE=-4.96D-04 OVMax= 1.32D-02

 Cycle  30  Pass 1  IDiag  1:
 E= -1926.18630802112     Delta-E=       -0.000432143401 Rises=F Damp=T
 DIIS: error= 1.54D-03 at cycle  30 NSaved=   5.
 NSaved= 5 IEnMin= 5 EnMin= -1926.18630802112     IErMin= 3 ErrMin= 1.29D-03
 ErrMax= 1.54D-03  0.00D+00 EMaxC= 1.00D+00 BMatC= 2.69D-04 BMatP= 3.61D-04
 IDIUse=1 WtCom= 1.00D+00 WtEn= 0.00D+00
 Coeff-Com:  0.105D+01-0.129D+01 0.168D+01-0.405D+01 0.361D+01
 Coeff:      0.105D+01-0.129D+01 0.168D+01-0.405D+01 0.361D+01
 Gap=     0.248 Goal=   None    Shift=    0.500
 Gap=     0.098 Goal=   None    Shift=    0.500
 GapD=    0.098 DampG=0.500 DampE=1.000 DampFc=0.5000 IDamp=-1.
 Damping current iteration by 5.00D-01
 RMSDP=1.19D-04 MaxDP=8.97D-03 DE=-4.32D-04 OVMax= 1.33D-02

 Cycle  31  Pass 1  IDiag  1:
 E= -1926.18667078463     Delta-E=       -0.000362763512 Rises=F Damp=T
 DIIS: error= 1.63D-03 at cycle  31 NSaved=   6.
 NSaved= 6 IEnMin= 6 EnMin= -1926.18667078463     IErMin= 3 ErrMin= 1.29D-03
 ErrMax= 1.63D-03  0.00D+00 EMaxC= 1.00D+00 BMatC= 2.05D-04 BMatP= 2.69D-04
 IDIUse=1 WtCom= 1.00D+00 WtEn= 0.00D+00
 Coeff-Com:  0.136D+01-0.187D+01 0.216D+01-0.269D+01-0.504D+00 0.254D+01
 Coeff:      0.136D+01-0.187D+01 0.216D+01-0.269D+01-0.504D+00 0.254D+01
 Gap=     0.249 Goal=   None    Shift=    0.500
 Gap=     0.098 Goal=   None    Shift=    0.500
 GapD=    0.098 DampG=0.500 DampE=1.000 DampFc=0.5000 IDamp=-1.
 Damping current iteration by 5.00D-01
 RMSDP=1.05D-04 MaxDP=7.80D-03 DE=-3.63D-04 OVMax= 1.38D-02

 Cycle  32  Pass 1  IDiag  1:
 E= -1926.18698960072     Delta-E=       -0.000318816092 Rises=F Damp=T
 DIIS: error= 1.69D-03 at cycle  32 NSaved=   7.
 NSaved= 7 IEnMin= 7 EnMin= -1926.18698960072     IErMin= 3 ErrMin= 1.29D-03
 ErrMax= 1.69D-03  0.00D+00 EMaxC= 1.00D+00 BMatC= 1.76D-04 BMatP= 2.05D-04
 IDIUse=1 WtCom= 1.00D+00 WtEn= 0.00D+00
 Coeff-Com:  0.144D+01-0.202D+01 0.873D+00 0.111D+01-0.160D+01-0.365D+01
 Coeff-Com:  0.484D+01
 Coeff:      0.144D+01-0.202D+01 0.873D+00 0.111D+01-0.160D+01-0.365D+01
 Coeff:      0.484D+01
 Gap=     0.251 Goal=   None    Shift=    0.500
 Gap=     0.099 Goal=   None    Shift=    0.500
 GapD=    0.099 DampG=0.500 DampE=1.000 DampFc=0.5000 IDamp=-1.
 Damping current iteration by 5.00D-01
 RMSDP=1.22D-04 MaxDP=8.61D-03 DE=-3.19D-04 OVMax= 1.84D-02

 >>>>>>>>>> Convergence criterion not met.
 SCF Done:  E(ULC-wHPBE) =  -1926.18698960     A.U. after   33 cycles
            NFock= 32  Conv=0.12D-03     -V/T= 2.0033
 <Sx>= 0.0000 <Sy>= 0.0000 <Sz>= 0.5000 <S**2>= 0.7597 S= 0.5049
 <L.S>= 0.000000000000E+00
 KE= 1.919890592179D+03 PE=-1.015286373105D+04 EE= 3.479539869196D+03
 Annihilation of the first spin contaminant:
 S**2 before annihilation     0.7594,   after     0.7490
 Leave Link  502 at Mon Jan 18 17:54:40 2021, MaxMem=  4026531840 cpu:           17000.9 elap:            2130.7
 (Enter /opt/ohpc/pub/libs/gaussian/g16-A.03/sandybridge/g16/l508.exe)
 Integral symmetry usage will be decided dynamically.
 Tight linear equation convergence will be used.
 ULC-wHPBE wavefunction.
 Quadratic Convergence SCF Method.
 Line search only if initial step raises energy.
 FoFJK:  IHMeth= 1 ICntrl=       0 DoSepK=T KAlg= 0 I1Cent=           0 FoldK=F
 IRaf=         1 NMat=       1 IRICut=       1 DoRegI=T DoRafI=F ISym2E= 1 IDoP0=0 IntGTp=1.
 FoFCou: FMM=F IPFlag=           0 FMFlag=      100000 FMFlg1=           0
         NFxFlg=           0 DoJE=T BraDBF=F KetDBF=F FulRan=T
         wScrn=  0.000000 ICntrl=       500 IOpCl=  0 I1Cent=           0 NGrid=           0
         NMat0=    1 NMatS0=      1 NMatT0=    0 NMatD0=    1 NMtDS0=    0 NMtDT0=    0
 Petite list used in FoFCou.
 Iteration   1 EE= -1926.18774074227                                    Grad=8.455D-03 Max rot=    0.4522 deg.
 QCNR:  CnvC1=8.46D-08 CnvC2=8.46D-07
 LinEq1:  Iter=  0 NonCon=     1 RMS=2.30D-04 Max=7.94D-02 NDo=     1
 AX will form     1 AO Fock derivatives at one time.
 LinEq1:  Iter=  1 NonCon=     1 RMS=1.10D-04 Max=8.20D-03 NDo=     1
 LinEq1:  Iter=  2 NonCon=     1 RMS=6.02D-05 Max=8.99D-03 NDo=     1
 LinEq1:  Iter=  3 NonCon=     1 RMS=3.79D-05 Max=4.00D-03 NDo=     1
 LinEq1:  Iter=  4 NonCon=     1 RMS=2.50D-05 Max=2.90D-03 NDo=     1
 LinEq1:  Iter=  5 NonCon=     1 RMS=1.99D-05 Max=2.86D-03 NDo=     1
 LinEq1:  Iter=  6 NonCon=     1 RMS=1.03D-05 Max=7.75D-04 NDo=     1
 LinEq1:  Iter=  7 NonCon=     1 RMS=7.84D-06 Max=5.94D-04 NDo=     1
 LinEq1:  Iter=  8 NonCon=     1 RMS=4.73D-06 Max=3.38D-04 NDo=     1
 LinEq1:  Iter=  9 NonCon=     1 RMS=2.75D-06 Max=1.58D-04 NDo=     1
 LinEq1:  Iter= 10 NonCon=     1 RMS=1.83D-06 Max=1.48D-04 NDo=     1
 LinEq1:  Iter= 11 NonCon=     1 RMS=8.98D-07 Max=7.50D-05 NDo=     1
 LinEq1:  Iter= 12 NonCon=     1 RMS=6.48D-07 Max=5.58D-05 NDo=     1
 LinEq1:  Iter= 13 NonCon=     1 RMS=4.04D-07 Max=3.56D-05 NDo=     1
 LinEq1:  Iter= 14 NonCon=     1 RMS=2.65D-07 Max=1.76D-05 NDo=     1
 LinEq1:  Iter= 15 NonCon=     1 RMS=1.63D-07 Max=7.09D-06 NDo=     1
 LinEq1:  Iter= 16 NonCon=     1 RMS=9.69D-08 Max=6.05D-06 NDo=     1
 LinEq1:  Iter= 17 NonCon=     1 RMS=4.94D-08 Max=2.52D-06 NDo=     1
 LinEq1:  Iter= 18 NonCon=     1 RMS=3.02D-08 Max=2.32D-06 NDo=     1
 LinEq1:  Iter= 19 NonCon=     1 RMS=1.79D-08 Max=1.15D-06 NDo=     1
 LinEq1:  Iter= 20 NonCon=     0 RMS=1.01D-08 Max=6.05D-07 NDo=     1
 Linear equations converged to 8.455D-08 8.455D-07 after    20 iterations.
 Angle between quadratic step and gradient=   8.69 degrees.
     ILin= 1 X=0.000D+00 Y=-1.926187740742D+03 DE= 0.00D+00 F= -1.06D-01
     ILin= 2 X=1.000D-01 Y=-1.926194162978D+03 DE=-6.42D-03
 Iteration   2 EE= -1926.19416297781     Delta-E=       -0.006422235541 Grad=3.882D-02 Max rot=    0.2389 deg.
 Gradient too large for Newton-Raphson -- use scaled steepest descent instead.
     ILin= 1 X=0.000D+00 Y=-1.926194162978D+03 DE= 0.00D+00 F= -2.35D-03
     ILin= 2 X=3.000D-01 Y=-1.926194731597D+03 DE=-5.69D-04 F= -1.44D-03
     ILin= 3 X=6.000D-01 Y=-1.926195027617D+03 DE=-8.65D-04 F= -5.32D-04
     ILin= 4 X=1.200D+00 Y=-1.926194801488D+03 DE=-6.39D-04 F=  1.29D-03
     An  expanding polynomial of degree  4 produced  0.7757
 Iteration   3 EE= -1926.19507436968     Delta-E=       -0.000911391871 Grad=1.199D-02 Max rot=    0.1203 deg.
 Gradient too large for Newton-Raphson -- use scaled steepest descent instead.
     ILin= 1 X=0.000D+00 Y=-1.926195074370D+03 DE= 0.00D+00 F= -1.92D-04
     ILin= 2 X=5.000D-01 Y=-1.926195152567D+03 DE=-7.82D-05 F= -1.21D-04
     ILin= 3 X=1.000D+00 Y=-1.926195195290D+03 DE=-1.21D-04 F= -5.00D-05
     ILin= 4 X=1.900D+00 Y=-1.926195182827D+03 DE=-1.08D-04 F=  7.77D-05
     An  expanding polynomial of degree  4 produced  1.3523
 Iteration   4 EE= -1926.19520409419     Delta-E=       -0.000129724510 Grad=8.663D-03 Max rot=    0.1078 deg.
 QCNR:  CnvC1=8.66D-08 CnvC2=8.66D-07
 LinEq1:  Iter=  0 NonCon=     1 RMS=6.14D-05 Max=1.63D-02 NDo=     1
 LinEq1:  Iter=  1 NonCon=     1 RMS=6.19D-05 Max=8.09D-03 NDo=     1
 LinEq1:  Iter=  2 NonCon=     1 RMS=2.81D-05 Max=3.53D-03 NDo=     1
 LinEq1:  Iter=  3 NonCon=     1 RMS=2.50D-05 Max=2.00D-03 NDo=     1
 LinEq1:  Iter=  4 NonCon=     1 RMS=9.53D-06 Max=6.40D-04 NDo=     1
 LinEq1:  Iter=  5 NonCon=     1 RMS=7.60D-06 Max=5.01D-04 NDo=     1
 LinEq1:  Iter=  6 NonCon=     1 RMS=4.13D-06 Max=2.57D-04 NDo=     1
 LinEq1:  Iter=  7 NonCon=     1 RMS=2.81D-06 Max=1.83D-04 NDo=     1
 LinEq1:  Iter=  8 NonCon=     1 RMS=1.57D-06 Max=9.63D-05 NDo=     1
 LinEq1:  Iter=  9 NonCon=     1 RMS=9.88D-07 Max=6.11D-05 NDo=     1
 LinEq1:  Iter= 10 NonCon=     1 RMS=6.60D-07 Max=5.23D-05 NDo=     1
 LinEq1:  Iter= 11 NonCon=     1 RMS=3.81D-07 Max=2.52D-05 NDo=     1
 LinEq1:  Iter= 12 NonCon=     1 RMS=2.50D-07 Max=1.39D-05 NDo=     1
 LinEq1:  Iter= 13 NonCon=     1 RMS=1.57D-07 Max=9.30D-06 NDo=     1
 LinEq1:  Iter= 14 NonCon=     1 RMS=9.69D-08 Max=5.44D-06 NDo=     1
 LinEq1:  Iter= 15 NonCon=     1 RMS=5.02D-08 Max=3.15D-06 NDo=     1
 LinEq1:  Iter= 16 NonCon=     1 RMS=3.19D-08 Max=1.80D-06 NDo=     1
 LinEq1:  Iter= 17 NonCon=     1 RMS=2.03D-08 Max=1.32D-06 NDo=     1
 LinEq1:  Iter= 18 NonCon=     0 RMS=1.09D-08 Max=5.47D-07 NDo=     1
 Linear equations converged to 8.663D-08 8.663D-07 after    18 iterations.
 Angle between quadratic step and gradient=  72.56 degrees.
     ILin= 1 X=0.000D+00 Y=-1.926195204094D+03 DE= 0.00D+00 F= -4.97D-04
     ILin= 2 X=1.000D+00 Y=-1.926195463775D+03 DE=-2.60D-04
 Iteration   5 EE= -1926.19546377468     Delta-E=       -0.000259680487 Grad=2.399D-03 Max rot=    0.0150 deg.
 QCNR:  CnvC1=2.40D-08 CnvC2=2.40D-07
 LinEq1:  Iter=  0 NonCon=     1 RMS=1.32D-05 Max=2.20D-03 NDo=     1
 LinEq1:  Iter=  1 NonCon=     1 RMS=1.08D-05 Max=2.52D-03 NDo=     1
 LinEq1:  Iter=  2 NonCon=     1 RMS=7.68D-06 Max=9.81D-04 NDo=     1
 LinEq1:  Iter=  3 NonCon=     1 RMS=4.77D-06 Max=3.85D-04 NDo=     1
 LinEq1:  Iter=  4 NonCon=     1 RMS=3.82D-06 Max=3.02D-04 NDo=     1
 LinEq1:  Iter=  5 NonCon=     1 RMS=2.02D-06 Max=1.73D-04 NDo=     1
 LinEq1:  Iter=  6 NonCon=     1 RMS=1.33D-06 Max=1.29D-04 NDo=     1
 LinEq1:  Iter=  7 NonCon=     1 RMS=8.85D-07 Max=7.86D-05 NDo=     1
 LinEq1:  Iter=  8 NonCon=     1 RMS=4.83D-07 Max=3.02D-05 NDo=     1
 LinEq1:  Iter=  9 NonCon=     1 RMS=3.19D-07 Max=1.74D-05 NDo=     1
 LinEq1:  Iter= 10 NonCon=     1 RMS=1.69D-07 Max=8.73D-06 NDo=     1
 LinEq1:  Iter= 11 NonCon=     1 RMS=1.20D-07 Max=9.23D-06 NDo=     1
 LinEq1:  Iter= 12 NonCon=     1 RMS=7.69D-08 Max=4.25D-06 NDo=     1
 LinEq1:  Iter= 13 NonCon=     1 RMS=4.66D-08 Max=2.41D-06 NDo=     1
 LinEq1:  Iter= 14 NonCon=     1 RMS=2.98D-08 Max=1.52D-06 NDo=     1
 LinEq1:  Iter= 15 NonCon=     1 RMS=1.86D-08 Max=1.06D-06 NDo=     1
 LinEq1:  Iter= 16 NonCon=     1 RMS=9.88D-09 Max=3.77D-07 NDo=     1
 LinEq1:  Iter= 17 NonCon=     1 RMS=5.93D-09 Max=3.44D-07 NDo=     1
 LinEq1:  Iter= 18 NonCon=     0 RMS=3.43D-09 Max=2.14D-07 NDo=     1
 Linear equations converged to 2.399D-08 2.399D-07 after    18 iterations.
 Angle between quadratic step and gradient=  75.58 degrees.
     ILin= 1 X=0.000D+00 Y=-1.926195463775D+03 DE= 0.00D+00 F= -1.07D-05
     ILin= 2 X=1.000D+00 Y=-1.926195469208D+03 DE=-5.43D-06
[...]
    22   Atom        0.000242     -0.000149     -0.000093
    23   Atom        0.002855      0.007976     -0.010831
    24   Atom       -0.418213     -0.471958      0.890171
    25   Atom       -0.010385     -0.007518      0.017902
    26   Atom        0.010954     -0.007935     -0.003018
    27   Atom       -0.023385      0.032507     -0.009122
    28   Atom        0.010325     -0.001448     -0.008877
    29   Atom        0.004437      0.007222     -0.011660
    30   Atom       -0.037320     -0.011915      0.049235
    31   Atom        0.001309     -0.000571     -0.000738
    32   Atom        0.001934     -0.001249     -0.000685
    33   Atom        0.000655     -0.000223     -0.000431
    34   Atom        0.000369      0.000072     -0.000442
    35   Atom       -0.013625      0.002232      0.011393
    36   Atom        0.077513     -0.042927     -0.034586
    37   Atom        0.049956     -0.017883     -0.032074
    38   Atom       -0.002224      0.005896     -0.003672
    39   Atom       -0.009992      0.012747     -0.002754
    40   Atom        0.038064     -0.042466      0.004402
    41   Atom       -0.000820     -0.001582      0.002402
    42   Atom       -0.000880     -0.001518      0.002398
    43   Atom       -0.001208      0.000503      0.000705
    44   Atom       -0.001345      0.000749      0.000596
    45   Atom        0.084895     -0.075893     -0.009002
    46   Atom        0.000799     -0.003370      0.002570
    47   Atom       -0.057328     -0.008889      0.066216
    48   Atom       -0.004077      0.002932      0.001145
 --------------------------------------------------------
                        XY            XZ            YZ
 --------------------------------------------------------
     1   Atom        0.000802     -0.000952     -0.001598
     2   Atom       -0.001347      0.003047      0.000362
     3   Atom        0.005643     -0.037109     -0.033438
     4   Atom        0.004180     -0.002917     -0.002457
     5   Atom       -0.004212     -0.000349      0.020811
     6   Atom       -0.006285      0.003441     -0.098317
     7   Atom        0.000394     -0.000002      0.000240
     8   Atom       -0.000205      0.001256      0.001280
     9   Atom        0.000647      0.000658      0.000691
    10   Atom        0.011849     -0.008925     -0.073684
    11   Atom       -0.000271      0.000252      0.026942
    12   Atom       -0.004344      0.001740     -0.099095
    13   Atom       -0.006401      0.002065      0.005929
    14   Atom        0.001107     -0.000042      0.004845
    15   Atom        0.000252      0.000104      0.001662
    16   Atom        0.004844      0.003898      0.003711
    17   Atom        0.000737     -0.000560     -0.002857
    18   Atom       -0.000338     -0.000049      0.000081
    19   Atom       -0.001388     -0.000215      0.000441
    20   Atom       -0.000073      0.000077      0.000023
    21   Atom        0.000222      0.000256      0.000156
    22   Atom        0.000323      0.000265      0.000062
    23   Atom        0.011704     -0.000884     -0.004054
    24   Atom        0.010654      0.277309      0.052626
    25   Atom        0.010651     -0.003088      0.005576
    26   Atom       -0.038721     -0.040902      0.036712
    27   Atom       -0.042836     -0.030579      0.049888
    28   Atom        0.004423      0.002095     -0.013382
    29   Atom        0.006009      0.008572     -0.008305
    30   Atom       -0.020913     -0.038928      0.063582
    31   Atom       -0.002258      0.003222     -0.003400
    32   Atom       -0.002055      0.004032     -0.002520
    33   Atom        0.000594      0.001222     -0.001409
    34   Atom        0.000685      0.001056     -0.001587
    35   Atom       -0.001760      0.014153      0.007664
    36   Atom        0.013174      0.032923      0.006852
    37   Atom        0.043731      0.027905      0.010322
    38   Atom       -0.008377     -0.009387     -0.005806
    39   Atom       -0.001482     -0.014336     -0.000863
    40   Atom        0.023242      0.073648      0.019714
    41   Atom        0.000667     -0.004477     -0.002510
    42   Atom        0.000425     -0.004584     -0.001072
    43   Atom       -0.000785     -0.001632     -0.000231
    44   Atom       -0.000645     -0.001451     -0.000456
    45   Atom        0.045717      0.116460      0.032724
    46   Atom       -0.002099     -0.004603      0.003232
    47   Atom       -0.049313     -0.069916      0.108135
    48   Atom       -0.002193      0.001022     -0.005070
 --------------------------------------------------------


 ---------------------------------------------------------------------------------
              Anisotropic Spin Dipole Couplings in Principal Axis System
 ---------------------------------------------------------------------------------

       Atom             a.u.   MegaHertz   Gauss  10(-4) cm-1        Axes

              Baa    -0.0017    -0.223    -0.080    -0.074 -0.0275  0.7883  0.6147
     1 C(13)  Bbb    -0.0006    -0.086    -0.031    -0.029  0.8757 -0.2775  0.3952
              Bcc     0.0023     0.309     0.110     0.103 -0.4821 -0.5491  0.6827
 
              Baa    -0.0042    -0.567    -0.202    -0.189  0.5012  0.8359 -0.2239
     2 C(13)  Bbb    -0.0012    -0.168    -0.060    -0.056  0.7375 -0.5479 -0.3947
              Bcc     0.0055     0.735     0.262     0.245  0.4526 -0.0327  0.8911
 
              Baa    -0.0617    -2.530    -0.903    -0.844  0.9462  0.1891  0.2626
     3 S(33)  Bbb    -0.0505    -2.069    -0.738    -0.690 -0.2358  0.9587  0.1591
              Bcc     0.1122     4.599     1.641     1.534 -0.2217 -0.2124  0.9517
 
              Baa    -0.0049    -0.659    -0.235    -0.220  0.8089 -0.5647  0.1633
     4 C(13)  Bbb    -0.0015    -0.199    -0.071    -0.066  0.2256  0.5548  0.8008
              Bcc     0.0064     0.858     0.306     0.286  0.5429  0.6110 -0.5762
 
              Baa    -0.0316    -4.247    -1.515    -1.417 -0.0393 -0.5126  0.8577
     5 C(13)  Bbb     0.0120     1.614     0.576     0.538  0.7082  0.5913  0.3858
              Bcc     0.0196     2.633     0.940     0.878  0.7049 -0.6226 -0.3398
 
              Baa    -0.0858   -11.510    -4.107    -3.839  0.3360  0.8428  0.4205
     6 C(13)  Bbb    -0.0730    -9.799    -3.497    -3.269  0.9415 -0.2885 -0.1741
              Bcc     0.1588    21.309     7.603     7.108  0.0254 -0.4544  0.8904
 
              Baa    -0.0010    -0.134    -0.048    -0.045  0.0498 -0.2217  0.9739
     7 C(13)  Bbb     0.0000     0.001     0.000     0.000 -0.4339  0.8735  0.2210
              Bcc     0.0010     0.133     0.047     0.044  0.8996  0.4335  0.0527
 
              Baa    -0.0022    -0.290    -0.104    -0.097 -0.3415 -0.5582  0.7562
     8 C(13)  Bbb     0.0004     0.054     0.019     0.018 -0.5069  0.7869  0.3519
              Bcc     0.0018     0.236     0.084     0.079  0.7915  0.2632  0.5517
 
              Baa    -0.0011    -0.566    -0.202    -0.189 -0.0698 -0.6107  0.7888
     9 H(1)   Bbb    -0.0004    -0.216    -0.077    -0.072 -0.6305  0.6398  0.4395
              Bcc     0.0015     0.782     0.279     0.261  0.7730  0.4667  0.4297
 
              Baa    -0.0521    -6.992    -2.495    -2.332 -0.5573  0.6419  0.5267
    10 C(13)  Bbb    -0.0466    -6.260    -2.234    -2.088  0.8243  0.3514  0.4439
              Bcc     0.0988    13.252     4.729     4.420 -0.0999 -0.6815  0.7249
 
              Baa    -0.0441    -5.922    -2.113    -1.975 -0.0051 -0.4787  0.8779
    11 C(13)  Bbb     0.0200     2.679     0.956     0.894  0.0280  0.8775  0.4787
              Bcc     0.0242     3.243     1.157     1.082  0.9996 -0.0270 -0.0089
 
              Baa    -0.0692    -9.292    -3.316    -3.099  0.9051  0.3208  0.2791
    12 C(13)  Bbb    -0.0642    -8.613    -3.073    -2.873 -0.4247  0.6494  0.6308
              Bcc     0.1334    17.904     6.389     5.972  0.0211 -0.6895  0.7240
 
              Baa    -0.0177    -2.377    -0.848    -0.793  0.2513  0.9342 -0.2532
    13 C(13)  Bbb     0.0078     1.040     0.371     0.347 -0.1459  0.2951  0.9442
              Bcc     0.0100     1.336     0.477     0.446  0.9568 -0.2004  0.2105
 
              Baa    -0.0043    -2.311    -0.825    -0.771  0.3710 -0.5097  0.7763
    14 H(1)   Bbb    -0.0026    -1.370    -0.489    -0.457  0.9237  0.1162 -0.3651
              Bcc     0.0069     3.680     1.313     1.228  0.0959  0.8525  0.5139
 
              Baa    -0.0028    -1.495    -0.534    -0.499  0.0127 -0.5827  0.8126
    15 H(1)   Bbb     0.0007     0.352     0.126     0.118 -0.1821  0.7977  0.5749
              Bcc     0.0021     1.143     0.408     0.381  0.9832  0.1553  0.0959
 
              Baa    -0.0051    -2.734    -0.975    -0.912 -0.6164  0.0087  0.7874
    16 H(1)   Bbb    -0.0036    -1.895    -0.676    -0.632 -0.5356  0.7283 -0.4274
              Bcc     0.0087     4.629     1.652     1.544  0.5772  0.6852  0.4443
 
              Baa    -0.0024    -0.323    -0.115    -0.108 -0.5440  0.7395  0.3966
    17 C(13)  Bbb    -0.0017    -0.234    -0.083    -0.078  0.8265  0.3905  0.4055
              Bcc     0.0042     0.557     0.199     0.186 -0.1450 -0.5483  0.8236
 
              Baa    -0.0004    -0.211    -0.075    -0.070  0.2240  0.7154 -0.6618
    18 H(1)   Bbb    -0.0003    -0.149    -0.053    -0.050  0.2927  0.5984  0.7459
              Bcc     0.0007     0.359     0.128     0.120  0.9296 -0.3608 -0.0753
 
              Baa    -0.0015    -0.791    -0.282    -0.264 -0.0445 -0.2182  0.9749
    19 H(1)   Bbb    -0.0007    -0.356    -0.127    -0.119  0.7351  0.6536  0.1799
              Bcc     0.0021     1.147     0.409     0.382 -0.6765  0.7247  0.1313
 
              Baa    -0.0002    -0.119    -0.042    -0.040 -0.1777 -0.3101  0.9340
    20 H(1)   Bbb    -0.0001    -0.060    -0.021    -0.020  0.1020  0.9382  0.3309
              Bcc     0.0003     0.178     0.064     0.059  0.9788 -0.1540  0.1351
 
              Baa    -0.0004    -0.189    -0.068    -0.063 -0.0986 -0.5932  0.7990
    21 H(1)   Bbb    -0.0002    -0.118    -0.042    -0.039 -0.4722  0.7347  0.4872
              Bcc     0.0006     0.307     0.110     0.102  0.8760  0.3292  0.3525
 
              Baa    -0.0004    -0.193    -0.069    -0.065 -0.5602  0.7351  0.3820
    22 H(1)   Bbb    -0.0002    -0.091    -0.033    -0.031 -0.1234 -0.5300  0.8390
              Bcc     0.0005     0.285     0.102     0.095  0.8191  0.4229  0.3875
 
              Baa    -0.0119    -0.490    -0.175    -0.163 -0.1777  0.2955  0.9387
    23 S(33)  Bbb    -0.0059    -0.244    -0.087    -0.081  0.7689 -0.5536  0.3198
              Bcc     0.0179     0.733     0.262     0.245  0.6142  0.7786 -0.1289
 
              Baa    -0.4746   -18.303    -6.531    -6.105  0.9773  0.0669 -0.2012
    24 N(14)  Bbb    -0.4740   -18.281    -6.523    -6.098 -0.0731  0.9970 -0.0236
              Bcc     0.9485    36.583    13.054    12.203  0.1990  0.0378  0.9793
 
              Baa    -0.0206    -2.769    -0.988    -0.924  0.7339 -0.6615  0.1545
    25 C(13)  Bbb     0.0015     0.206     0.074     0.069  0.6785  0.7249 -0.1190
              Bcc     0.0191     2.563     0.915     0.855 -0.0333  0.1922  0.9808
 
              Baa    -0.0423    -5.674    -2.025    -1.893  0.0336  0.7472 -0.6637
    26 C(13)  Bbb    -0.0361    -4.843    -1.728    -1.615  0.7667  0.4067  0.4967
              Bcc     0.0784    10.517     3.753     3.508  0.6411 -0.5255 -0.5593
 
              Baa    -0.0482    -6.464    -2.306    -2.156  0.8776  0.1952  0.4379
    27 C(13)  Bbb    -0.0420    -5.631    -2.009    -1.878 -0.2303 -0.6296  0.7420
              Bcc     0.0901    12.095     4.316     4.034 -0.4205  0.7520  0.5076
 
              Baa    -0.0197    -2.641    -0.942    -0.881 -0.1441  0.6079  0.7808
    28 C(13)  Bbb     0.0073     0.986     0.352     0.329 -0.5192  0.6253 -0.5827
              Bcc     0.0123     1.655     0.591     0.552  0.8424  0.4893 -0.2255
 
              Baa    -0.0192    -2.575    -0.919    -0.859 -0.3974  0.3563  0.8456
    29 C(13)  Bbb     0.0071     0.950     0.339     0.317  0.7365 -0.4258  0.5256
              Bcc     0.0121     1.625     0.580     0.542  0.5474  0.8317 -0.0932
 
              Baa    -0.0544    -7.304    -2.606    -2.436  0.6319 -0.5320  0.5636
    30 C(13)  Bbb    -0.0486    -6.526    -2.329    -2.177  0.7147  0.6813 -0.1583
              Bcc     0.1031    13.830     4.935     4.613 -0.2997  0.5029  0.8107
 
              Baa    -0.0042    -2.248    -0.802    -0.750 -0.2097  0.5946  0.7762
    31 H(1)   Bbb    -0.0018    -0.944    -0.337    -0.315  0.7383  0.6167 -0.2731
              Bcc     0.0060     3.192     1.139     1.065  0.6411 -0.5158  0.5683
 
              Baa    -0.0040    -2.149    -0.767    -0.717 -0.3937  0.4404  0.8068
    32 H(1)   Bbb    -0.0022    -1.160    -0.414    -0.387  0.5658  0.8079 -0.1648
              Bcc     0.0062     3.309     1.181     1.104  0.7244 -0.3916  0.5673
 
              Baa    -0.0023    -1.237    -0.441    -0.412 -0.4055  0.5868  0.7009
    33 H(1)   Bbb     0.0008     0.422     0.151     0.141  0.5713  0.7612 -0.3067
              Bcc     0.0015     0.815     0.291     0.272  0.7136 -0.2761  0.6439
 
              Baa    -0.0024    -1.261    -0.450    -0.421 -0.4162  0.5756  0.7039
    34 H(1)   Bbb     0.0009     0.479     0.171     0.160  0.8732  0.4689  0.1328
              Bcc     0.0015     0.782     0.279     0.261  0.2536 -0.6699  0.6978
 
              Baa    -0.0210    -2.821    -1.007    -0.941  0.8772  0.2089 -0.4324
    35 C(13)  Bbb     0.0010     0.131     0.047     0.044 -0.3298  0.9166 -0.2262
              Bcc     0.0200     2.690     0.960     0.897  0.3491  0.3410  0.8729
 
              Baa    -0.0472    -6.335    -2.261    -2.113  0.0913  0.7559 -0.6482
    36 C(13)  Bbb    -0.0409    -5.483    -1.957    -1.829 -0.2705  0.6453  0.7144
              Bcc     0.0881    11.819     4.217     3.942  0.9584  0.1102  0.2634
 
              Baa    -0.0426    -5.710    -2.037    -1.905 -0.4619  0.5173  0.7204
    37 C(13)  Bbb    -0.0367    -4.925    -1.758    -1.643 -0.1691  0.7460 -0.6441
              Bcc     0.0793    10.635     3.795     3.548  0.8707  0.4193  0.2571
 
              Baa    -0.0168    -2.251    -0.803    -0.751  0.6488  0.4048  0.6443
    38 C(13)  Bbb     0.0056     0.755     0.269     0.252 -0.5412 -0.3497  0.7647
              Bcc     0.0111     1.496     0.534     0.499 -0.5349  0.8449  0.0078
 
              Baa    -0.0212    -2.851    -1.017    -0.951  0.7882  0.0499  0.6134
    39 C(13)  Bbb     0.0084     1.127     0.402     0.376 -0.6113 -0.0518  0.7897
              Bcc     0.0128     1.723     0.615     0.575 -0.0712  0.9974  0.0103
 
              Baa    -0.0545    -7.308    -2.608    -2.438 -0.5909 -0.1560  0.7915
    40 C(13)  Bbb    -0.0487    -6.534    -2.332    -2.180 -0.2574  0.9663 -0.0017
              Bcc     0.1032    13.842     4.939     4.617  0.7646  0.2048  0.6111
 
              Baa    -0.0043    -2.316    -0.826    -0.773  0.6978  0.3824  0.6057
    41 H(1)   Bbb    -0.0020    -1.050    -0.375    -0.350 -0.4846  0.8747  0.0060
              Bcc     0.0063     3.366     1.201     1.123 -0.5275 -0.2977  0.7957
 
              Baa    -0.0041    -2.208    -0.788    -0.737  0.8056  0.1076  0.5826
    42 H(1)   Bbb    -0.0017    -0.886    -0.316    -0.295 -0.1755  0.9826  0.0612
              Bcc     0.0058     3.094     1.104     1.032 -0.5659 -0.1515  0.8104
 
              Baa    -0.0024    -1.262    -0.450    -0.421  0.8421  0.2682  0.4680
    43 H(1)   Bbb     0.0007     0.368     0.131     0.123 -0.1370  0.9455 -0.2954
              Bcc     0.0017     0.894     0.319     0.298 -0.5217  0.1846  0.8329
 
              Baa    -0.0023    -1.238    -0.442    -0.413  0.8514  0.2476  0.4624
    44 H(1)   Bbb     0.0009     0.496     0.177     0.165 -0.3141  0.9467  0.0715
              Bcc     0.0014     0.743     0.265     0.248 -0.4200 -0.2061  0.8838
 
              Baa    -0.0896     6.482     2.313     2.162  0.1979  0.7747 -0.6006
    45 O(17)  Bbb    -0.0865     6.257     2.233     2.087 -0.5546  0.5937  0.5830
              Bcc     0.1761   -12.739    -4.546    -4.249  0.8082  0.2177  0.5471
 
              Baa    -0.0048    -2.556    -0.912    -0.853  0.0266  0.9213 -0.3878
    46 H(1)   Bbb    -0.0029    -1.552    -0.554    -0.518  0.8060  0.2097  0.5535
              Bcc     0.0077     4.108     1.466     1.370 -0.5913  0.3273  0.7370
 
              Baa    -0.0889     6.433     2.296     2.146  0.9333  0.1159  0.3399
    47 O(17)  Bbb    -0.0858     6.207     2.215     2.070  0.0961  0.8314 -0.5473
              Bcc     0.1747   -12.640    -4.510    -4.216 -0.3460  0.5435  0.7648
 
              Baa    -0.0048    -2.545    -0.908    -0.849  0.9203  0.3612  0.1506
    48 H(1)   Bbb    -0.0029    -1.538    -0.549    -0.513 -0.3387  0.5425  0.7687
              Bcc     0.0077     4.084     1.457     1.362 -0.1960  0.7584 -0.6216
 

 ---------------------------------------------------------------------------------

 No NMR shielding tensors so no spin-rotation constants.
 Leave Link  601 at Mon Jan 18 19:04:25 2021, MaxMem=  4026531840 cpu:               6.5 elap:               0.9
 (Enter /opt/ohpc/pub/libs/gaussian/g16-A.03/sandybridge/g16/l9999.exe)

 Test job not archived.
 1\1\GINC-CASCADEB025\SP\ULC-wHPBE\TZVP\C24H19N1O2S2(1+,2)\RDU230\18-Ja
 n-2021\0\\#P LC-wHPBE/TZVP iop(3/107=0174500000, 3/108=0174500000) scf
 =(conver=6,fermi,ndamp=35,noincfock,novaracc,vshift=500,xqc)\\H19 C24 
 S2 N1 O2\\1,2\C,0,-6.54463,-1.193879,0.12701\C,0,-5.283469,-0.647909,0
 .131523\S,0,-3.665919,-1.107322,1.042984\C,0,-4.996815,0.486583,-0.537
 83\C,0,-1.475687,0.036886,0.221747\C,0,-1.772288,-1.094442,0.892846\C,
 0,-7.517398,-0.549399,-0.618903\C,0,-5.951198,1.159916,-1.262339\H,0,-
 2.843406,1.345523,-1.332578\C,0,-0.186077,0.430997,-0.028463\C,0,-0.77
 363,-1.912541,1.366813\C,0,0.53691,-1.552052,1.124661\C,0,0.845585,-0.
 387156,0.425435\H,0,0.045427,1.33981,-0.567415\H,0,-0.986976,-2.816418
 ,1.923251\H,0,1.342687,-2.175375,1.48462\C,0,-7.223748,0.615229,-1.306
 247\H,0,-6.782458,-2.097666,0.673346\H,0,-3.815781,-2.43941,0.928305\H
 ,0,-8.517553,-0.958288,-0.663525\H,0,-5.730059,2.077989,-1.791552\H,0,
 -7.997253,1.105431,-1.881471\S,0,-3.166075,0.851646,-0.124057\N,0,2.18
 2887,-0.044483,0.184905\C,0,3.146505,-1.044921,-0.067172\C,0,4.392012,
 -0.989098,0.539344\C,0,2.878694,-2.090316,-0.930362\C,0,5.345494,-1.94
 6131,0.285899\C,0,3.822608,-3.066997,-1.170354\C,0,5.062274,-2.995295,
 -0.567641\H,0,4.612943,-0.17489,1.215121\H,0,1.913696,-2.145516,-1.414
 069\H,0,6.317156,-1.901598,0.755555\H,0,3.591387,-3.881585,-1.84538\C,
 0,2.575405,1.310294,0.123192\C,0,3.391681,1.763268,-0.894977\C,0,2.164
 04,2.211964,1.09371\C,0,3.796835,3.081396,-0.942072\C,0,2.544098,3.531
 176,1.038879\C,0,3.368807,3.972023,0.020733\H,0,3.723839,1.07184,-1.65
 6403\H,0,1.529535,1.868488,1.898614\H,0,4.442764,3.41523,-1.744528\H,0
 ,2.220724,4.234697,1.791974\O,0,3.726245,5.28132,0.019257\H,0,4.294203
 ,5.466041,-0.728132\O,0,6.032969,-3.920806,-0.776143\H,0,5.721078,-4.5
 93785,-1.380389\\Version=EM64L-G16RevA.03\State=2-A\HF=-1926.1954692\S
 2=0.763516\S2-1=0.\S2A=0.750163\RMSD=7.345e-08\Dipole=2.834454,-0.5626
 697,-1.19263\Quadrupole=28.6174405,0.9541884,-29.5716289,4.8781845,-5.
 4330461,-3.4735853\PG=C01 [X(C24H19N1O2S2)]\\@


 THE TRULY SUCCESSFUL PERFORMANCE OF RESEARCHES IN
 INORGANIC CHEMISTRY IS POSSIBLE ONLY TO ONE WHO IS NOT
 ONLY A THEORETICAL CHEMIST, BUT ALSO AN ACCOMPLISHED
 ANALYST AND, MOREOVER, NOT MERELY A PRACTICALLY TRAINED,
 MECHANICAL WORKER, BUT A THINKING CREATIVE ARTIST.
   --  CLEMENS WINKLER, BER. 33, 1697(1900)
 Job cpu time:       0 days 14 hours  0 minutes 23.6 seconds.
 Elapsed time:       0 days  1 hours 45 minutes 25.7 seconds.
 File lengths (MBytes):  RWF=    524 Int=      0 D2E=      0 Chk=     36 Scr=      8
 Normal termination of Gaussian 16 at Mon Jan 18 19:04:25 2021.
