 Entering Gaussian System, Link 0=g16
 Input=mol_ta_ma_half_tune_n1.gjf
 Output=mol_ta_ma_half_tune_n1.log
 Initial command:
 /opt/ohpc/pub/libs/gaussian/g16-A.03/sandybridge/g16/l1.exe "/mnt/gpfs2_4m/scratch/rdu230/ondemand/projects/init_structures/wtuning/mol_ta_ma_half/tuning_mol_ta_ma_half_ocycle0/Gau-128100.inp" -scrdir="/mnt/gpfs2_4m/scratch/rdu230/ondemand/projects/init_structures/wtuning/mol_ta_ma_half/tuning_mol_ta_ma_half_ocycle0/"
 Entering Link 1 = /opt/ohpc/pub/libs/gaussian/g16-A.03/sandybridge/g16/l1.exe PID=    128101.
  
 Copyright (c) 1988,1990,1992,1993,1995,1998,2003,2009,2016,
            Gaussian, Inc.  All Rights Reserved.
  
 This is part of the Gaussian(R) 16 program.  It is based on
 the Gaussian(R) 09 system (copyright 2009, Gaussian, Inc.),
 the Gaussian(R) 03 system (copyright 2003, Gaussian, Inc.),
 the Gaussian(R) 98 system (copyright 1998, Gaussian, Inc.),
 the Gaussian(R) 94 system (copyright 1995, Gaussian, Inc.),
 the Gaussian 92(TM) system (copyright 1992, Gaussian, Inc.),
 the Gaussian 90(TM) system (copyright 1990, Gaussian, Inc.),
 the Gaussian 88(TM) system (copyright 1988, Gaussian, Inc.),
 the Gaussian 86(TM) system (copyright 1986, Carnegie Mellon
 University), and the Gaussian 82(TM) system (copyright 1983,
 Carnegie Mellon University). Gaussian is a federally registered
 trademark of Gaussian, Inc.
  
 This software contains proprietary and confidential information,
 including trade secrets, belonging to Gaussian, Inc.
  
 This software is provided under written license and may be
 used, copied, transmitted, or stored only in accord with that
 written license.
  
 The following legend is applicable only to US Government
 contracts under FAR:
  
                    RESTRICTED RIGHTS LEGEND
  
 Use, reproduction and disclosure by the US Government is
 subject to restrictions as set forth in subparagraphs (a)
 and (c) of the Commercial Computer Software - Restricted
 Rights clause in FAR 52.227-19.
  
 Gaussian, Inc.
 340 Quinnipiac St., Bldg. 40, Wallingford CT 06492
  
  
 ---------------------------------------------------------------
 Warning -- This program may not be used in any manner that
 competes with the business of Gaussian, Inc. or will provide
 assistance to any competitor of Gaussian, Inc.  The licensee
 of this program is prohibited from giving any competitor of
 Gaussian, Inc. access to this program.  By using this program,
 the user acknowledges that Gaussian, Inc. is engaged in the
 business of creating and licensing software in the field of
 computational chemistry and represents and warrants to the
 licensee that it is not a competitor of Gaussian, Inc. and that
 it will not use this program in any manner prohibited above.
 ---------------------------------------------------------------
  

 Cite this work as:
 Gaussian 16, Revision A.03,
 M. J. Frisch, G. W. Trucks, H. B. Schlegel, G. E. Scuseria, 
 M. A. Robb, J. R. Cheeseman, G. Scalmani, V. Barone, 
 G. A. Petersson, H. Nakatsuji, X. Li, M. Caricato, A. V. Marenich, 
 J. Bloino, B. G. Janesko, R. Gomperts, B. Mennucci, H. P. Hratchian, 
 J. V. Ortiz, A. F. Izmaylov, J. L. Sonnenberg, D. Williams-Young, 
 F. Ding, F. Lipparini, F. Egidi, J. Goings, B. Peng, A. Petrone, 
 T. Henderson, D. Ranasinghe, V. G. Zakrzewski, J. Gao, N. Rega, 
 G. Zheng, W. Liang, M. Hada, M. Ehara, K. Toyota, R. Fukuda, 
 J. Hasegawa, M. Ishida, T. Nakajima, Y. Honda, O. Kitao, H. Nakai, 
 T. Vreven, K. Throssell, J. A. Montgomery, Jr., J. E. Peralta, 
 F. Ogliaro, M. J. Bearpark, J. J. Heyd, E. N. Brothers, K. N. Kudin, 
 V. N. Staroverov, T. A. Keith, R. Kobayashi, J. Normand, 
 K. Raghavachari, A. P. Rendell, J. C. Burant, S. S. Iyengar, 
 J. Tomasi, M. Cossi, J. M. Millam, M. Klene, C. Adamo, R. Cammi, 
 J. W. Ochterski, R. L. Martin, K. Morokuma, O. Farkas, 
 J. B. Foresman, and D. J. Fox, Gaussian, Inc., Wallingford CT, 2016.
 
 ******************************************
 Gaussian 16:  EM64L-G16RevA.03 25-Dec-2016
                18-Jan-2021 
 ******************************************
 %mem=30GB
 %nproc=8
 Will use up to    8 processors via shared memory.
 ----------------------------------------------------------------------
 #P LC-wHPBE/TZVP iop(3/107=0328100000, 3/108=0328100000) scf=(conver=6
 ,fermi,ndamp=35,noincfock,novaracc,vshift=500,xqc)
 ----------------------------------------------------------------------
 1/38=1,172=1/1;
 2/12=2,17=6,18=5,40=1/2;
 3/5=19,7=101,11=2,25=1,30=1,74=-71,107=328100000,108=328100000/1,2,3;
 4//1;
 5/5=100002,6=6,8=3,10=500,13=1,18=-1,22=13,38=1,93=35/2,8;
 6/7=2,8=2,9=2,10=2,28=1/1;
 99/5=1,9=1/99;
 Leave Link    1 at Mon Jan 18 06:32:35 2021, MaxMem=  4026531840 cpu:               1.2 elap:               0.2
 (Enter /opt/ohpc/pub/libs/gaussian/g16-A.03/sandybridge/g16/l101.exe)
 ----------------
 H19 C24 S2 N1 O2
 ----------------
 Symbolic Z-matrix:
 Charge =  0 Multiplicity = 1
 C                    -6.54463  -1.19388   0.12701 
 C                    -5.28347  -0.64791   0.13152 
 S                    -3.66592  -1.10732   1.04298 
 C                    -4.99682   0.48658  -0.53783 
 C                    -1.47569   0.03689   0.22175 
 C                    -1.77229  -1.09444   0.89285 
 C                    -7.5174   -0.5494   -0.6189 
 C                    -5.9512    1.15992  -1.26234 
 H                    -2.84341   1.34552  -1.33258 
 C                    -0.18608   0.431    -0.02846 
 C                    -0.77363  -1.91254   1.36681 
 C                     0.53691  -1.55205   1.12466 
 C                     0.84559  -0.38716   0.42544 
 H                     0.04543   1.33981  -0.56742 
 H                    -0.98698  -2.81642   1.92325 
 H                     1.34269  -2.17537   1.48462 
 C                    -7.22375   0.61523  -1.30625 
 H                    -6.78246  -2.09767   0.67335 
 H                    -3.81578  -2.43941   0.92831 
 H                    -8.51755  -0.95829  -0.66353 
 H                    -5.73006   2.07799  -1.79155 
 H                    -7.99725   1.10543  -1.88147 
 S                    -3.16608   0.85165  -0.12406 
 N                     2.18289  -0.04448   0.18491 
 C                     3.1465   -1.04492  -0.06717 
 C                     4.39201  -0.9891    0.53934 
 C                     2.87869  -2.09032  -0.93036 
 C                     5.34549  -1.94613   0.2859 
 C                     3.82261  -3.067    -1.17035 
 C                     5.06227  -2.9953   -0.56764 
 H                     4.61294  -0.17489   1.21512 
 H                     1.9137   -2.14552  -1.41407 
 H                     6.31716  -1.9016    0.75556 
 H                     3.59139  -3.88159  -1.84538 
 C                     2.5754    1.31029   0.12319 
 C                     3.39168   1.76327  -0.89498 
 C                     2.16404   2.21196   1.09371 
 C                     3.79684   3.0814   -0.94207 
 C                     2.5441    3.53118   1.03888 
 C                     3.36881   3.97202   0.02073 
 H                     3.72384   1.07184  -1.6564 
 H                     1.52954   1.86849   1.89861 
 H                     4.44276   3.41523  -1.74453 
 H                     2.22072   4.2347    1.79197 
 O                     3.72625   5.28132   0.01926 
 H                     4.2942    5.46604  -0.72813 
 O                     6.03297  -3.92081  -0.77614 
 H                     5.72108  -4.59379  -1.38039 
 
 ITRead=  0  0  0  0  0  0  0  0  0  0  0  0  0  0  0  0  0  0  0  0
 ITRead=  0  0  0  0  0  0  0  0  0  0  0  0  0  0  0  0  0  0  0  0
 ITRead=  0  0  0  0  0  0  0  0
 MicOpt= -1 -1 -1 -1 -1 -1 -1 -1 -1 -1 -1 -1 -1 -1 -1 -1 -1 -1 -1 -1
 MicOpt= -1 -1 -1 -1 -1 -1 -1 -1 -1 -1 -1 -1 -1 -1 -1 -1 -1 -1 -1 -1
 MicOpt= -1 -1 -1 -1 -1 -1 -1 -1
 NAtoms=     48 NQM=       48 NQMF=       0 NMMI=      0 NMMIF=      0
                NMic=       0 NMicF=      0.
                    Isotopes and Nuclear Properties:
 (Nuclear quadrupole moments (NQMom) in fm**2, nuclear magnetic moments (NMagM)
  in nuclear magnetons)

  Atom         1           2           3           4           5           6           7           8           9          10
 IAtWgt=          12          12          32          12          12          12          12          12           1          12
 AtmWgt=  12.0000000  12.0000000  31.9720718  12.0000000  12.0000000  12.0000000  12.0000000  12.0000000   1.0078250  12.0000000
 NucSpn=           0           0           0           0           0           0           0           0           1           0
 AtZEff=  -0.0000000  -0.0000000  -0.0000000  -0.0000000  -0.0000000  -0.0000000  -0.0000000  -0.0000000  -0.0000000  -0.0000000
 NQMom=    0.0000000   0.0000000   0.0000000   0.0000000   0.0000000   0.0000000   0.0000000   0.0000000   0.0000000   0.0000000
 NMagM=    0.0000000   0.0000000   0.0000000   0.0000000   0.0000000   0.0000000   0.0000000   0.0000000   2.7928460   0.0000000
 AtZNuc=   6.0000000   6.0000000  16.0000000   6.0000000   6.0000000   6.0000000   6.0000000   6.0000000   1.0000000   6.0000000

  Atom        11          12          13          14          15          16          17          18          19          20
 IAtWgt=          12          12          12           1           1           1          12           1           1           1
 AtmWgt=  12.0000000  12.0000000  12.0000000   1.0078250   1.0078250   1.0078250  12.0000000   1.0078250   1.0078250   1.0078250
 NucSpn=           0           0           0           1           1           1           0           1           1           1
 AtZEff=  -0.0000000  -0.0000000  -0.0000000  -0.0000000  -0.0000000  -0.0000000  -0.0000000  -0.0000000  -0.0000000  -0.0000000
 NQMom=    0.0000000   0.0000000   0.0000000   0.0000000   0.0000000   0.0000000   0.0000000   0.0000000   0.0000000   0.0000000
 NMagM=    0.0000000   0.0000000   0.0000000   2.7928460   2.7928460   2.7928460   0.0000000   2.7928460   2.7928460   2.7928460
 AtZNuc=   6.0000000   6.0000000   6.0000000   1.0000000   1.0000000   1.0000000   6.0000000   1.0000000   1.0000000   1.0000000

  Atom        21          22          23          24          25          26          27          28          29          30
 IAtWgt=           1           1          32          14          12          12          12          12          12          12
 AtmWgt=   1.0078250   1.0078250  31.9720718  14.0030740  12.0000000  12.0000000  12.0000000  12.0000000  12.0000000  12.0000000
 NucSpn=           1           1           0           2           0           0           0           0           0           0
 AtZEff=  -0.0000000  -0.0000000  -0.0000000  -0.0000000  -0.0000000  -0.0000000  -0.0000000  -0.0000000  -0.0000000  -0.0000000
 NQMom=    0.0000000   0.0000000   0.0000000   2.0440000   0.0000000   0.0000000   0.0000000   0.0000000   0.0000000   0.0000000
 NMagM=    2.7928460   2.7928460   0.0000000   0.4037610   0.0000000   0.0000000   0.0000000   0.0000000   0.0000000   0.0000000
 AtZNuc=   1.0000000   1.0000000  16.0000000   7.0000000   6.0000000   6.0000000   6.0000000   6.0000000   6.0000000   6.0000000

  Atom        31          32          33          34          35          36          37          38          39          40
 IAtWgt=           1           1           1           1          12          12          12          12          12          12
 AtmWgt=   1.0078250   1.0078250   1.0078250   1.0078250  12.0000000  12.0000000  12.0000000  12.0000000  12.0000000  12.0000000
 NucSpn=           1           1           1           1           0           0           0           0           0           0
 AtZEff=  -0.0000000  -0.0000000  -0.0000000  -0.0000000  -0.0000000  -0.0000000  -0.0000000  -0.0000000  -0.0000000  -0.0000000
 NQMom=    0.0000000   0.0000000   0.0000000   0.0000000   0.0000000   0.0000000   0.0000000   0.0000000   0.0000000   0.0000000
 NMagM=    2.7928460   2.7928460   2.7928460   2.7928460   0.0000000   0.0000000   0.0000000   0.0000000   0.0000000   0.0000000
 AtZNuc=   1.0000000   1.0000000   1.0000000   1.0000000   6.0000000   6.0000000   6.0000000   6.0000000   6.0000000   6.0000000

  Atom        41          42          43          44          45          46          47          48
 IAtWgt=           1           1           1           1          16           1          16           1
 AtmWgt=   1.0078250   1.0078250   1.0078250   1.0078250  15.9949146   1.0078250  15.9949146   1.0078250
 NucSpn=           1           1           1           1           0           1           0           1
 AtZEff=  -0.0000000  -0.0000000  -0.0000000  -0.0000000  -0.0000000  -0.0000000  -0.0000000  -0.0000000
 NQMom=    0.0000000   0.0000000   0.0000000   0.0000000   0.0000000   0.0000000   0.0000000   0.0000000
 NMagM=    2.7928460   2.7928460   2.7928460   2.7928460   0.0000000   2.7928460   0.0000000   2.7928460
 AtZNuc=   1.0000000   1.0000000   1.0000000   1.0000000   8.0000000   1.0000000   8.0000000   1.0000000
 Leave Link  101 at Mon Jan 18 06:32:35 2021, MaxMem=  4026531840 cpu:               0.6 elap:               0.1
 (Enter /opt/ohpc/pub/libs/gaussian/g16-A.03/sandybridge/g16/l202.exe)
                          Input orientation:                          
 ---------------------------------------------------------------------
 Center     Atomic      Atomic             Coordinates (Angstroms)
 Number     Number       Type             X           Y           Z
 ---------------------------------------------------------------------
      1          6           0       -6.544630   -1.193879    0.127010
      2          6           0       -5.283469   -0.647909    0.131523
      3         16           0       -3.665919   -1.107322    1.042984
      4          6           0       -4.996815    0.486583   -0.537830
      5          6           0       -1.475687    0.036886    0.221747
      6          6           0       -1.772288   -1.094442    0.892846
      7          6           0       -7.517398   -0.549399   -0.618903
      8          6           0       -5.951198    1.159916   -1.262339
      9          1           0       -2.843406    1.345523   -1.332578
     10          6           0       -0.186077    0.430997   -0.028463
     11          6           0       -0.773630   -1.912541    1.366813
     12          6           0        0.536910   -1.552052    1.124661
     13          6           0        0.845585   -0.387156    0.425435
     14          1           0        0.045427    1.339810   -0.567415
     15          1           0       -0.986976   -2.816418    1.923251
     16          1           0        1.342687   -2.175375    1.484620
     17          6           0       -7.223748    0.615229   -1.306247
     18          1           0       -6.782458   -2.097666    0.673346
     19          1           0       -3.815781   -2.439410    0.928305
     20          1           0       -8.517553   -0.958288   -0.663525
     21          1           0       -5.730059    2.077989   -1.791552
     22          1           0       -7.997253    1.105431   -1.881471
     23         16           0       -3.166075    0.851646   -0.124057
     24          7           0        2.182887   -0.044483    0.184905
     25          6           0        3.146505   -1.044921   -0.067172
     26          6           0        4.392012   -0.989098    0.539344
     27          6           0        2.878694   -2.090316   -0.930362
     28          6           0        5.345494   -1.946131    0.285899
     29          6           0        3.822608   -3.066997   -1.170354
     30          6           0        5.062274   -2.995295   -0.567641
     31          1           0        4.612943   -0.174890    1.215121
     32          1           0        1.913696   -2.145516   -1.414069
     33          1           0        6.317156   -1.901598    0.755555
     34          1           0        3.591387   -3.881585   -1.845380
     35          6           0        2.575405    1.310294    0.123192
     36          6           0        3.391681    1.763268   -0.894977
     37          6           0        2.164040    2.211964    1.093710
     38          6           0        3.796835    3.081396   -0.942072
     39          6           0        2.544098    3.531176    1.038879
     40          6           0        3.368807    3.972023    0.020733
     41          1           0        3.723839    1.071840   -1.656403
     42          1           0        1.529535    1.868488    1.898614
     43          1           0        4.442764    3.415230   -1.744528
     44          1           0        2.220724    4.234697    1.791974
     45          8           0        3.726245    5.281320    0.019257
     46          1           0        4.294203    5.466041   -0.728132
     47          8           0        6.032969   -3.920806   -0.776143
     48          1           0        5.721078   -4.593785   -1.380389
 ---------------------------------------------------------------------
                    Distance matrix (angstroms):
                    1          2          3          4          5
     1  C    0.000000
     2  C    1.374275   0.000000
     3  S    3.022164   1.912666   0.000000
     4  C    2.379432   1.348064   2.609749   0.000000
     5  C    5.217082   3.869921   2.603989   3.630086   0.000000
     6  C    4.834422   3.620414   1.899617   3.865753   1.348425
     7  C    1.384925   2.358661   4.231671   2.726384   6.128025
     8  C    2.796927   2.378433   3.959467   1.374459   4.847051
     9  H    4.719960   3.474373   3.512303   2.450831   2.449309
    10  C    6.564723   5.212777   3.952686   4.837948   1.371504
    11  C    5.946262   4.843953   3.019698   5.217159   2.367346
    12  C    7.160433   5.973325   4.227083   6.127154   2.718552
    13  C    7.440103   6.141635   4.610171   5.985394   2.368460
    14  H    7.094410   5.730329   4.728206   5.114008   2.152713
    15  H    6.061900   5.135423   3.297365   5.748525   3.357871
    16  H    8.063263   6.933251   5.140225   7.166981   3.798971
    17  C    2.405888   2.725323   4.598284   2.359289   5.975739
    18  H    1.082532   2.154608   3.290931   3.366573   5.737776
    19  H    3.104841   2.449172   1.345388   3.479343   3.479555
    20  H    2.138428   3.344807   5.145166   3.807761   7.166726
    21  H    3.879372   3.365736   4.737243   2.154539   5.130220
    22  H    3.380967   3.806701   5.675312   3.345291   6.935138
    23  S    3.957504   2.607172   2.334392   1.912090   1.908095
    24  N    8.803069   7.490891   6.006202   7.235503   3.659664
    25  C    9.694225   8.441656   6.902569   8.299439   4.755885
    26  C   10.946328   9.690081   8.074521   9.564937   5.965183
    27  C    9.524740   8.356377   6.905963   8.295669   4.981263
    28  C   11.914956  10.709065   9.081979  10.656453   7.103871
    29  C   10.614676   9.511441   8.050915   9.529441   6.296345
    30  C   11.766387  10.631719   9.074134  10.644700   7.249979
    31  H   11.256721   9.966790   8.332984   9.790701   6.172767
    32  H    8.650076   7.512048   6.184421   7.446536   4.350482
    33  H   12.896568  11.684847  10.018746  11.635385   8.048048
    34  H   10.670189   9.650278   8.289009   9.723569   6.730726
    35  C    9.457586   8.099168   6.756109   7.645519   4.247661
    36  C   10.417267   9.062323   7.861660   8.492605   5.283819
    37  C    9.400809   8.035550   6.708849   7.544316   4.328845
    38  C   11.241299   9.874829   8.785130   9.177404   6.198629
    39  C   10.284096   8.919577   7.751128   8.283775   5.388547
    40  C   11.179180   9.809074   8.736825   9.079863   6.244584
    41  H   10.665622   9.342688   8.163575   8.811557   5.624380
    42  H    8.815260   7.474750   6.048164   7.102054   3.898462
    43  H   12.061068  10.706459   9.694041   9.956844   7.092779
    44  H   10.443801   9.105485   7.984405   8.459859   5.809534
    45  O   12.142104  10.786255   9.823790   9.969535   7.389532
    46  H   12.750141  11.395227  10.474230  10.542971   7.979325
    47  O   12.901466  11.815138  10.261254  11.880152   8.546287
    48  H   12.817145  11.787954  10.302615  11.890890   8.706514
                    6          7          8          9         10
     6  C    0.000000
     7  C    5.965630   0.000000
     8  C    5.214426   2.405982   0.000000
     9  H    3.471777   5.093747   3.114122   0.000000
    10  C    2.385758   7.420112   5.940572   3.098140   0.000000
    11  C    1.375227   7.160980   6.569600   4.710166   2.790015
    12  C    2.365489   8.301639   7.426176   5.085322   2.405180
    13  C    2.751724   8.429499   7.172048   4.438631   1.392740
    14  H    3.370761   7.795389   6.039436   2.988455   1.081667
    15  H    2.154913   7.365347   7.113559   5.600760   3.872510
    16  H    3.349878   9.250390   8.477659   6.152780   3.379307
    17  C    6.121879   1.383846   1.384917   4.440880   7.155102
    18  H    5.114337   2.146433   3.879396   5.603161   7.099219
    19  H    2.446643   4.434858   4.723778   4.514734   4.725399
    20  H    6.923830   1.081430   3.381057   6.160448   8.470355
    21  H    5.738838   3.387160   1.082510   3.013292   6.046222
    22  H    7.161457   2.136071   2.138372   5.188551   8.056238
    23  S    2.600768   4.598023   3.024504   1.344824   3.011058
    24  N    4.152951   9.746619   8.349157   5.431251   2.425613
    25  C    5.011847  10.689657   9.437051   6.572253   3.644988
    26  C    6.175326  11.973676  10.716637   7.829803   4.826797
    27  C    5.093867  10.514284   9.414946   6.686494   4.069799
    28  C    7.194205  12.970101  11.817776   8.972878   6.028917
    29  C    6.280974  11.629193  10.649063   7.995773   5.441455
    30  C    7.242755  12.815349  11.791732   9.051387   6.290896
    31  H    6.459149  12.273918  10.932547   8.024934   4.994416
    32  H    4.473599   9.598198   8.532612   5.901187   3.601023
    33  H    8.130772  13.968266  12.804580   9.940824   6.953253
    34  H    6.635892  11.662453  10.808219   8.306153   6.014049
    35  C    5.027679  10.289501   8.639749   5.611062   2.902059
    36  C    6.166798  11.154938   9.369545   6.264369   3.914862
    37  C    5.144642  10.212170   8.515566   5.631351   3.155022
    38  C    7.198589  11.886925   9.940765   6.874485   4.870614
    39  C    6.328417  10.983307   9.115291   6.279020   4.266636
    40  C    7.270523  11.805162   9.819201   6.879066   5.017817
    41  H    6.434195  11.404834   9.683459   6.580917   4.283493
    42  H    4.548907   9.696962   8.151998   5.462299   2.953529
    43  H    8.119098  12.650328  10.646755   7.585622   5.768596
    44  H    6.719546  11.114447   9.250049   6.614799   4.855390
    45  O    8.464477  12.681642  10.596290   7.776778   6.231707
    46  H    9.081290  13.255616  11.126380   8.263745   6.775995
    47  O    8.467343  13.964367  13.025758  10.336047   7.627172
    48  H    8.576919  13.863411  13.013879  10.422478   7.872142
                   11         12         13         14         15
    11  C    0.000000
    12  C    1.380618   0.000000
    13  C    2.415543   1.393262   0.000000
    14  H    3.871677   3.386376   2.146722   0.000000
    15  H    1.082651   2.135087   3.391614   4.954140   0.000000
    16  H    2.135827   1.080453   2.136986   4.272032   2.455741
    17  C    7.425557   8.416308   8.313702   7.342465   7.816853
    18  H    6.051544   7.353538   7.821403   7.744401   5.972142
    19  H    3.118423   4.446558   5.117906   5.606122   3.022282
    20  H    8.062333   9.248430   9.443536   8.866517   8.176408
    21  H    7.103928   7.807458   7.364174   5.949761   7.762204
    22  H    8.475862   9.430323   9.259882   8.152691   8.888239
    23  S    3.948065   4.587936   4.234382   3.278508   4.732297
    24  N    3.691550   2.421806   1.401305   2.655370   4.555601
    25  C    4.263395   2.913354   2.443266   3.943839   4.917891
    26  C    5.312373   3.939711   3.598952   5.053863   5.847034
    27  C    4.318343   3.161772   2.978669   4.463731   4.859397
    28  C    6.213951   4.897071   4.764352   6.294145   6.598371
    29  C    5.375443   4.284619   4.311700   5.835287   5.724096
    30  C    6.242775   5.042396   5.056585   6.630376   6.544461
    31  H    5.661944   4.303348   3.855081   5.131662   6.232031
    32  H    3.874184   2.948371   2.759795   4.044101   4.472327
    33  H    7.117092   5.802557   5.686880   7.182727   7.453238
    34  H    5.766168   4.855687   4.990698   6.439720   6.024829
    35  C    4.811371   3.653960   2.442328   2.622708   5.741126
    36  C    5.998090   4.818714   3.584748   3.388809   6.934592
    37  C    5.071098   4.100771   2.990040   2.829931   5.991800
    38  C    7.152587   6.030534   4.755082   4.152897   8.116596
    39  C    6.383488   5.465837   4.314462   3.691290   7.317277
    40  C    7.321189   6.305054   5.053006   4.280107   8.287059
    41  H    6.186565   4.977514   3.840191   3.845571   7.079848
    42  H    4.459099   3.644777   2.779564   2.926325   5.318062
    43  H    8.079378   6.939873   5.666266   5.002953   9.042572
    44  H    6.850945   6.063580   5.011982   4.321921   7.747567
    45  O    8.591648   7.621598   6.371405   5.424768   9.561015
    46  H    9.193215   8.173354   6.890834   5.924838  10.174469
    47  O    7.413176   6.279388   6.390573   7.972974   7.601712
    48  H    7.544363   6.511760   6.687837   8.251151   7.685770
                   16         17         18         19         20
    16  H    0.000000
    17  C    9.431872   0.000000
    18  H    8.165916   3.387230   0.000000
    19  H    5.195093   5.092964   2.997160   0.000000
    20  H   10.164653   2.136113   2.469000   5.180184   0.000000
    21  H    8.879648   2.146228   4.961790   5.609722   4.273353
    22  H   10.456038   1.081430   4.273482   6.159988   2.452150
    23  S    5.663888   4.232987   4.734186   3.515769   5.674963
    24  N    2.633609   9.546912   9.210404   6.501718  10.772850
    25  C    2.634339  10.575138  10.012040   7.170007  11.679614
    26  C    3.405757  11.870381  11.230123   8.344014  12.965520
    27  C    2.863336  10.465209   9.793354   6.956472  11.455441
    28  C    4.184728  12.925995  12.135085   9.197009  13.930589
    29  C    3.740840  11.644709  10.807694   7.946271  12.529290
    30  C    4.326589  12.826837  11.943344   9.020351  13.732090
    31  H    3.843064  12.128019  11.569172   8.732337  13.287323
    32  H    2.954546   9.546006   8.943304   6.196773  10.525388
    33  H    5.035060  13.926289  13.101339  10.148670  14.932254
    34  H    4.365399  11.725150  10.823262   8.039859  12.512748
    35  C    3.939920   9.927226   9.974290   7.453573  11.349850
    36  C    5.037238  10.685245  10.994524   8.540162  12.218441
    37  C    4.480644   9.820383   9.939288   7.577658  11.279840
    38  C    6.288507  11.299020  11.889226   9.587989  12.963055
    39  C    5.848658  10.460075  10.899639   8.724000  12.058756
    40  C    6.636161  11.190673  11.845472   9.672046  12.886494
    41  H    5.106889  10.962699  11.218546   8.709504  12.448249
    42  H    4.069291   9.405411   9.290903   6.933389  10.747055
    43  H    7.161895  12.005815  12.737494  10.470168  13.721007
    44  H    6.477225  10.578165  11.063789   9.040410  12.178143
    45  O    7.964354  11.976298  12.857298  10.831352  13.758978
    46  H    8.485220  12.511107  13.485779  11.446038  14.332385
    47  O    5.491477  14.021311  13.025361  10.104333  14.849474
    48  H    5.764312  13.953775  12.914598  10.046048  14.712897
                   21         22         23         24         25
    21  H    0.000000
    22  H    2.468628   0.000000
    23  S    3.295219   5.147154   0.000000
    24  N    8.427692  10.451194   5.432301   0.000000
    25  C    9.566579  11.493435   6.591576   1.411729   0.000000
    26  C   10.830347  12.796143   7.807248   2.428612   1.386458
    27  C    9.603491  11.375572   6.770857   2.431748   1.381908
    28  C   11.965668  13.857793   8.968970   3.691686   2.402580
    29  C   10.867852  12.554838   8.080358   3.696079   2.400608
    30  C   11.987936  13.751122   9.094034   4.191001   2.779316
    31  H   11.004237  13.047802   7.959918   2.642636   2.133464
    32  H    8.741137  10.440978   6.037482   2.653963   2.131961
    33  H   12.940644  14.862652   9.913916   4.568008   3.385824
    34  H   11.063850  12.616188   8.427913   4.563911   3.377367
    35  C    8.557823  10.762980   5.765074   1.411843   2.430932
    36  C    9.171098  11.450491   6.665548   2.428022   2.937907
    37  C    8.405920  10.645562   5.634141   2.432660   3.594466
    38  C    9.617180  11.995308   7.356837   3.694053   4.267888
    39  C    8.864805  11.204140   6.413921   3.693925   4.746252
    40  C    9.468955  11.875313   7.243093   4.191143   5.022636
    41  H    9.508248  11.723301   7.061691   2.647853   2.709178
    42  H    8.146344  10.277694   5.212861   2.650118   3.868702
    43  H   10.260446  12.653377   8.190990   4.560633   4.938295
    44  H    8.983763  11.300157   6.643328   4.571158   5.673435
    45  O   10.147021  12.589330   8.194304   5.547393   6.353337
    46  H   10.634641  13.092937   8.792798   5.971362   6.644299
    47  O   13.243316  14.944294  10.383830   5.547308   4.135823
    48  H   13.259342  14.863538  10.498218   5.972026   4.576833
                   26         27         28         29         30
    26  C    0.000000
    27  C    2.379674   0.000000
    28  C    1.374509   2.754121   0.000000
    29  C    2.750446   1.379303   2.386670   0.000000
    30  C    2.387361   2.391354   1.381843   1.380281   0.000000
    31  H    1.080935   3.358508   2.130112   3.831371   3.366723
    32  H    3.360830   1.080852   3.834955   2.133652   3.369289
    33  H    2.141397   3.834182   1.080133   3.360067   2.126441
    34  H    3.833326   2.133971   3.371235   1.082902   2.140476
    35  C    2.959805   3.572969   4.278337   4.731749   5.019947
    36  C    3.260898   3.887739   4.355628   4.857262   5.053905
    37  C    3.939287   4.808036   5.297543   5.978651   6.186711
    38  C    4.372385   5.252592   5.402063   6.152683   6.218336
    39  C    4.908890   5.965822   6.198039   7.074686   7.177530
    40  C    5.092016   6.156033   6.245170   7.153490   7.194271
    41  H    3.084676   3.352706   3.938331   4.168449   4.417963
    42  H    4.266988   5.049303   5.631493   6.247860   6.497618
    43  H    4.961527   5.781022   5.803598   6.537089   6.547036
    44  H    5.794101   6.917357   7.087671   8.040905   8.118804
    45  O    6.327075   7.480718   7.411418   8.433200   8.404271
    46  H    6.579125   7.690455   7.554718   8.557494   8.497641
    47  O    3.608068   3.650196   2.345186   2.402101   1.357311
    48  H    4.294829   3.814319   3.150817   2.445278   1.910432
                   31         32         33         34         35
    31  H    0.000000
    32  H    4.252287   0.000000
    33  H    2.469223   4.915000   0.000000
    34  H    4.914248   2.452471   4.256175   0.000000
    35  C    2.747661   3.839746   4.971603   5.644741   0.000000
    36  C    3.114555   4.210996   4.971308   5.727784   1.381362
    37  C    3.421833   5.033812   5.855264   6.914254   1.387132
    38  C    3.990352   5.575805   5.836453   7.024335   2.400725
    39  C    4.248071   6.216043   6.620519   8.022767   2.402453
    40  C    4.491250   6.449829   6.613029   8.075338   2.779350
    41  H    3.254304   3.699557   4.624302   4.958798   2.131366
    42  H    3.761643   5.218590   6.200117   7.164640   2.134841
    43  H    4.655904   6.117784   6.167043   7.347008   3.377301
    44  H    5.049745   7.147034   7.450439   8.999061   3.385671
    45  O    5.655665   7.778024   7.671327   9.351678   4.135732
    46  H    5.974774   8.004569   7.783044   9.440355   4.577035
    47  O    4.473644   4.530675   2.550306   2.665732   6.334663
    48  H    5.243212   4.526733   3.487899   2.293257   6.856687
                   36         37         38         39         40
    36  C    0.000000
    37  C    2.379770   0.000000
    38  C    1.379793   2.750698   0.000000
    39  C    2.753851   1.373962   2.386591   0.000000
    40  C    2.391160   2.387583   1.379644   1.382430   0.000000
    41  H    1.080820   3.360949   2.133990   3.834667   3.368960
    42  H    3.358989   1.080945   3.831617   2.129088   3.366633
    43  H    2.134360   3.833540   1.082869   3.371310   2.139988
    44  H    3.833902   2.140615   3.359946   1.080123   2.127061
    45  O    3.650267   3.607753   2.401833   2.345230   1.357211
    46  H    3.814828   4.294848   2.445338   3.151015   1.910300
    47  O    6.268909   7.488380   7.352459   8.426064   8.368364
    48  H    6.787771   8.067955   7.924849   9.053234   8.992741
                   41         42         43         44         45
    41  H    0.000000
    42  H    4.252971   0.000000
    43  H    2.452773   4.914448   0.000000
    44  H    4.914705   2.467399   4.256270   0.000000
    45  O    4.530735   4.472688   2.665826   2.550400   0.000000
    46  H    4.527251   5.242668   2.293678   3.488045   0.956707
    47  O    5.570768   7.807123   7.568616   9.361659   9.520124
    48  H    6.013689   8.371491   8.118559  10.012915  10.171336
                   46         47         48
    46  H    0.000000
    47  O    9.546649   0.000000
    48  H   10.181430   0.956708   0.000000
 Stoichiometry    C24H19NO2S2
 Framework group  C1[X(C24H19NO2S2)]
 Deg. of freedom   138
 Full point group                 C1      NOp   1
 Largest Abelian subgroup         C1      NOp   1
 Largest concise Abelian subgroup C1      NOp   1
                         Standard orientation:                         
 ---------------------------------------------------------------------
 Center     Atomic      Atomic             Coordinates (Angstroms)
 Number     Number       Type             X           Y           Z
 ---------------------------------------------------------------------
      1          6           0        6.544630   -1.193879   -0.127010
      2          6           0        5.283469   -0.647909   -0.131523
      3         16           0        3.665919   -1.107322   -1.042984
      4          6           0        4.996815    0.486583    0.537830
      5          6           0        1.475687    0.036886   -0.221747
      6          6           0        1.772288   -1.094442   -0.892846
      7          6           0        7.517398   -0.549399    0.618903
      8          6           0        5.951198    1.159916    1.262339
      9          1           0        2.843406    1.345523    1.332578
     10          6           0        0.186077    0.430997    0.028463
     11          6           0        0.773630   -1.912541   -1.366813
     12          6           0       -0.536910   -1.552052   -1.124661
     13          6           0       -0.845585   -0.387156   -0.425435
     14          1           0       -0.045427    1.339810    0.567415
     15          1           0        0.986976   -2.816418   -1.923251
     16          1           0       -1.342687   -2.175375   -1.484620
     17          6           0        7.223748    0.615229    1.306247
     18          1           0        6.782458   -2.097666   -0.673346
     19          1           0        3.815781   -2.439410   -0.928305
     20          1           0        8.517553   -0.958288    0.663525
     21          1           0        5.730059    2.077989    1.791552
     22          1           0        7.997253    1.105431    1.881471
     23         16           0        3.166075    0.851646    0.124057
     24          7           0       -2.182887   -0.044483   -0.184905
     25          6           0       -3.146505   -1.044921    0.067172
     26          6           0       -4.392012   -0.989098   -0.539344
     27          6           0       -2.878694   -2.090316    0.930362
     28          6           0       -5.345494   -1.946131   -0.285899
     29          6           0       -3.822608   -3.066997    1.170354
     30          6           0       -5.062274   -2.995295    0.567641
     31          1           0       -4.612943   -0.174890   -1.215121
     32          1           0       -1.913696   -2.145516    1.414069
     33          1           0       -6.317156   -1.901598   -0.755555
     34          1           0       -3.591387   -3.881585    1.845380
     35          6           0       -2.575405    1.310294   -0.123192
     36          6           0       -3.391681    1.763268    0.894977
     37          6           0       -2.164040    2.211964   -1.093710
     38          6           0       -3.796835    3.081396    0.942072
     39          6           0       -2.544098    3.531176   -1.038879
     40          6           0       -3.368807    3.972023   -0.020733
     41          1           0       -3.723839    1.071840    1.656403
     42          1           0       -1.529535    1.868488   -1.898614
     43          1           0       -4.442764    3.415230    1.744528
     44          1           0       -2.220724    4.234697   -1.791974
     45          8           0       -3.726245    5.281320   -0.019257
     46          1           0       -4.294203    5.466041    0.728132
     47          8           0       -6.032969   -3.920806    0.776143
     48          1           0       -5.721078   -4.593785    1.380389
 ---------------------------------------------------------------------
 Rotational constants (GHZ):           0.2280536           0.0702108           0.0568934
 Leave Link  202 at Mon Jan 18 06:32:35 2021, MaxMem=  4026531840 cpu:               0.2 elap:               0.0
 (Enter /opt/ohpc/pub/libs/gaussian/g16-A.03/sandybridge/g16/l301.exe)
 Standard basis: TZVP (5D, 7F)
 Ernie: Thresh=  0.10000D-02 Tol=  0.10000D-05 Strict=F.
 There are   700 symmetry adapted cartesian basis functions of A   symmetry.
 There are   671 symmetry adapted basis functions of A   symmetry.
   671 basis functions,  1191 primitive gaussians,   700 cartesian basis functions
   109 alpha electrons      109 beta electrons
       nuclear repulsion energy      2827.2462800785 Hartrees.
 IExCor=33909 DFT=T Ex+Corr=LC-wHPBE ExCW=0 ScaHFX=  1.000000
 ScaDFX=  1.000000  1.000000  1.000000  1.000000 ScalE2=  1.000000  1.000000
 IRadAn=      5 IRanWt=     -1 IRanGd=            0 ICorTp=0 IEmpDi=  4
 HFx  wShort=  0.000000 wLong=  0.328100 cFull=  0.000000 cShort=  0.000000 cLong=  1.000000
 DFx  wShort=  0.000000 wLong=  0.328100 cFull=  0.000000 cShort=  1.000000 cLong=  0.000000
 NAtoms=   48 NActive=   48 NUniq=   48 SFac= 1.00D+00 NAtFMM=   60 NAOKFM=F Big=F
 Integral buffers will be    131072 words long.
 Raffenetti 2 integral format.
 Two-electron integral symmetry is turned on.
 Leave Link  301 at Mon Jan 18 06:32:35 2021, MaxMem=  4026531840 cpu:               0.5 elap:               0.1
 (Enter /opt/ohpc/pub/libs/gaussian/g16-A.03/sandybridge/g16/l302.exe)
 NPDir=0 NMtPBC=     1 NCelOv=     1 NCel=       1 NClECP=     1 NCelD=      1
         NCelK=      1 NCelE2=     1 NClLst=     1 CellRange=     0.0.
 One-electron integrals computed using PRISM.
 One-electron integral symmetry used in STVInt
 NBasis=   671 RedAO= T EigKep=  6.34D-06  NBF=   671
 NBsUse=   671 1.00D-06 EigRej= -1.00D+00 NBFU=   671
 Precomputing XC quadrature grid using
 IXCGrd= 4 IRadAn=           5 IRanWt=          -1 IRanGd=           0 AccXCQ= 0.00D+00.
 Generated NRdTot=       0 NPtTot=           0 NUsed=           0 NTot=          32
 NSgBfM=   657   657   657   657   657 MxSgAt=    48 MxSgA2=    48.
 Leave Link  302 at Mon Jan 18 06:32:37 2021, MaxMem=  4026531840 cpu:              10.5 elap:               1.3
 (Enter /opt/ohpc/pub/libs/gaussian/g16-A.03/sandybridge/g16/l303.exe)
 DipDrv:  MaxL=1.
 Leave Link  303 at Mon Jan 18 06:32:37 2021, MaxMem=  4026531840 cpu:               0.9 elap:               0.2
 (Enter /opt/ohpc/pub/libs/gaussian/g16-A.03/sandybridge/g16/l401.exe)
 ExpMin= 9.52D-02 ExpMax= 6.07D+04 ExpMxC= 2.07D+03 IAcc=3 IRadAn=         5 AccDes= 0.00D+00
 Harris functional with IExCor=33909 and IRadAn=       5 diagonalized for initial guess.
 HarFok:  IExCor=33909 AccDes= 0.00D+00 IRadAn=         5 IDoV= 1 UseB2=F ITyADJ=14
 ICtDFT=  3500011 ScaDFX=  1.000000  1.000000  1.000000  1.000000
 FoFCou: FMM=F IPFlag=           0 FMFlag=      100000 FMFlg1=           0
         NFxFlg=           0 DoJE=T BraDBF=F KetDBF=T FulRan=T
         wScrn=  0.000000 ICntrl=       500 IOpCl=  0 I1Cent=   200000004 NGrid=           0
         NMat0=    1 NMatS0=      1 NMatT0=    0 NMatD0=    1 NMtDS0=    0 NMtDT0=    0
 Petite list used in FoFCou.
 Harris En= -1890.03454927962    
 JPrj=0 DoOrth=F DoCkMO=F.
 Leave Link  401 at Mon Jan 18 06:32:44 2021, MaxMem=  4026531840 cpu:              56.1 elap:               7.1
 (Enter /opt/ohpc/pub/libs/gaussian/g16-A.03/sandybridge/g16/l502.exe)
 Integral symmetry usage will be decided dynamically.
 Closed shell SCF:
 Using DIIS extrapolation, IDIIS=    10.
 NGot=  4026531840 LenX=  4025539370 LenY=  4025048670
 Requested convergence on RMS density matrix=1.00D-06 within  32 cycles.
 Requested convergence on MAX density matrix=1.00D-04.
 Requested convergence on             energy=1.00D-04.
 Virtual orbitals will be shifted by   0.500 hartree.
 No special actions if energy rises.
 Dynamic level shift is on during FON iterations.

 Cycle   1  Pass 1  IDiag  1:
 FoFJK:  IHMeth= 1 ICntrl=       0 DoSepK=T KAlg= 0 I1Cent=           0 FoldK=F
 IRaf=         1 NMat=       1 IRICut=       1 DoRegI=T DoRafI=F ISym2E= 0 IDoP0=0 IntGTp=1.
 FoFCou: FMM=F IPFlag=           0 FMFlag=      100000 FMFlg1=           0
         NFxFlg=           0 DoJE=T BraDBF=F KetDBF=F FulRan=T
         wScrn=  0.000000 ICntrl=       500 IOpCl=  0 I1Cent=           0 NGrid=           0
         NMat0=    1 NMatS0=      1 NMatT0=    0 NMatD0=    1 NMtDS0=    0 NMtDT0=    0
 Symmetry not used in FoFCou.
 E= -1926.12214493290    
 DIIS: error= 1.82D-02 at cycle   1 NSaved=   1.
 NSaved= 1 IEnMin= 1 EnMin= -1926.12214493290     IErMin= 1 ErrMin= 1.82D-02
 ErrMax= 1.82D-02  0.00D+00 EMaxC= 1.00D+00 BMatC= 5.44D-01 BMatP= 5.44D-01
 IDIUse=1 WtCom= 1.00D+00 WtEn= 0.00D+00
 Coeff-Com:  0.100D+01
 Coeff:      0.100D+01
 Gap=     0.413 Goal=   None    Shift=    0.500
 T= 1196. Gap= 0.719 NK=0 IS=  110 IE=  671 IFin=  109
          NO(<0.9)=   0  NV(>0.1)=   0    109.00e < EF      0.00e >EF  Err=0.0D+00
 GapD=    0.413 DampG=2.000 DampE=0.500 DampFc=1.0000 IDamp=-1.
 RMSDP=3.24D-03 MaxDP=1.76D-01              OVMax= 8.08D-02

 Cycle   2  Pass 1  IDiag  1:
 E= -1926.58279565349     Delta-E=       -0.460650720583 Rises=F Damp=F
 DIIS: error= 5.57D-03 at cycle   2 NSaved=   2.
 NSaved= 2 IEnMin= 2 EnMin= -1926.58279565349     IErMin= 2 ErrMin= 5.57D-03
 ErrMax= 5.57D-03  0.00D+00 EMaxC= 1.00D+00 BMatC= 5.77D-02 BMatP= 5.44D-01
 IDIUse=1 WtCom= 1.00D+00 WtEn= 0.00D+00
 Coeff-Com:  0.212D+00 0.788D+00
 Coeff:      0.212D+00 0.788D+00
 Gap=     0.324 Goal=   None    Shift=    0.500
 T= 1038. Gap= 0.792 NK=0 IS=  110 IE=  671 IFin=  109
          NO(<0.9)=   0  NV(>0.1)=   0    109.00e < EF      0.00e >EF  Err=0.0D+00
 GapD=    0.324 DampG=1.000 DampE=1.000 DampFc=1.0000 IDamp=-1.
 RMSDP=1.43D-03 MaxDP=8.68D-02 DE=-4.61D-01 OVMax= 1.86D-02

 Cycle   3  Pass 1  IDiag  1:
 E= -1926.62056708017     Delta-E=       -0.037771426683 Rises=F Damp=F
 DIIS: error= 1.93D-03 at cycle   3 NSaved=   3.
 NSaved= 3 IEnMin= 3 EnMin= -1926.62056708017     IErMin= 3 ErrMin= 1.93D-03
 ErrMax= 1.93D-03  0.00D+00 EMaxC= 1.00D+00 BMatC= 4.41D-03 BMatP= 5.77D-02
 IDIUse=1 WtCom= 1.00D+00 WtEn= 0.00D+00
 Coeff-Com:  0.562D-01-0.173D-01 0.961D+00
 Coeff:      0.562D-01-0.173D-01 0.961D+00
 Gap=     0.307 Goal=   None    Shift=    0.500
 T=  744. Gap= 0.804 NK=0 IS=  110 IE=  671 IFin=  109
          NO(<0.9)=   0  NV(>0.1)=   0    109.00e < EF      0.00e >EF  Err=0.0D+00
 GapD=    0.307 DampG=1.000 DampE=1.000 DampFc=1.0000 IDamp=-1.
 RMSDP=8.29D-04 MaxDP=4.91D-02 DE=-3.78D-02 OVMax= 1.16D-02

 Cycle   4  Pass 1  IDiag  1:
 E= -1926.62599999353     Delta-E=       -0.005432913360 Rises=F Damp=F
 DIIS: error= 1.10D-03 at cycle   4 NSaved=   4.
 NSaved= 4 IEnMin= 4 EnMin= -1926.62599999353     IErMin= 4 ErrMin= 1.10D-03
 ErrMax= 1.10D-03  0.00D+00 EMaxC= 1.00D+00 BMatC= 7.61D-04 BMatP= 4.41D-03
 IDIUse=1 WtCom= 1.00D+00 WtEn= 0.00D+00
 Coeff-Com:  0.203D-02-0.715D-01-0.545D-02 0.107D+01
 Coeff:      0.203D-02-0.715D-01-0.545D-02 0.107D+01
 Gap=     0.303 Goal=   None    Shift=    0.500
 T=   87. Gap= 0.803 NK=0 IS=  110 IE=  671 IFin=  109
          NO(<0.9)=   0  NV(>0.1)=   0    109.00e < EF      0.00e >EF  Err=0.0D+00
 GapD=    0.303 DampG=1.000 DampE=1.000 DampFc=1.0000 IDamp=-1.
 RMSDP=4.61D-04 MaxDP=2.90D-02 DE=-5.43D-03 OVMax= 9.15D-03

 Cycle   5  Pass 1  IDiag  1:
 E= -1926.62752717274     Delta-E=       -0.001527179210 Rises=F Damp=F
 DIIS: error= 8.78D-04 at cycle   5 NSaved=   5.
 NSaved= 5 IEnMin= 5 EnMin= -1926.62752717274     IErMin= 5 ErrMin= 8.78D-04
 ErrMax= 8.78D-04  0.00D+00 EMaxC= 1.00D+00 BMatC= 1.94D-04 BMatP= 7.61D-04
 IDIUse=1 WtCom= 1.00D+00 WtEn= 0.00D+00
 Coeff-Com: -0.105D-01-0.473D-02-0.187D+00-0.101D+00 0.130D+01
 Coeff:     -0.105D-01-0.473D-02-0.187D+00-0.101D+00 0.130D+01
 Gap=     0.304 Goal=   None    Shift=    0.500
 RMSDP=2.90D-04 MaxDP=1.98D-02 DE=-1.53D-03 OVMax= 7.77D-03

 Cycle   6  Pass 1  IDiag  1:
 E= -1926.62818622613     Delta-E=       -0.000659053393 Rises=F Damp=F
 DIIS: error= 6.51D-04 at cycle   6 NSaved=   6.
 NSaved= 6 IEnMin= 6 EnMin= -1926.62818622613     IErMin= 6 ErrMin= 6.51D-04
 ErrMax= 6.51D-04  0.00D+00 EMaxC= 1.00D+00 BMatC= 6.98D-05 BMatP= 1.94D-04
 IDIUse=1 WtCom= 1.00D+00 WtEn= 0.00D+00
 Coeff-Com: -0.446D-02 0.132D-01-0.349D-01-0.266D+00-0.258D+00 0.155D+01
 Coeff:     -0.446D-02 0.132D-01-0.349D-01-0.266D+00-0.258D+00 0.155D+01
 Gap=     0.305 Goal=   None    Shift=    0.500
 RMSDP=1.77D-04 MaxDP=1.34D-02 DE=-6.59D-04 OVMax= 6.52D-03

 Cycle   7  Pass 1  IDiag  1:
 E= -1926.62849457239     Delta-E=       -0.000308346259 Rises=F Damp=F
 DIIS: error= 3.91D-04 at cycle   7 NSaved=   7.
 NSaved= 7 IEnMin= 7 EnMin= -1926.62849457239     IErMin= 7 ErrMin= 3.91D-04
 ErrMax= 3.91D-04  0.00D+00 EMaxC= 1.00D+00 BMatC= 2.87D-05 BMatP= 6.98D-05
 IDIUse=1 WtCom= 1.00D+00 WtEn= 0.00D+00
 Coeff-Com:  0.210D-03 0.437D-02 0.412D-01-0.836D-01-0.468D+00-0.244D-01
 Coeff-Com:  0.153D+01
 Coeff:      0.210D-03 0.437D-02 0.412D-01-0.836D-01-0.468D+00-0.244D-01
 Coeff:      0.153D+01
 Gap=     0.305 Goal=   None    Shift=    0.500
 RMSDP=1.04D-04 MaxDP=8.77D-03 DE=-3.08D-04 OVMax= 5.20D-03

 Cycle   8  Pass 1  IDiag  1:
 E= -1926.62863387055     Delta-E=       -0.000139298164 Rises=F Damp=F
 DIIS: error= 2.91D-04 at cycle   8 NSaved=   8.
 NSaved= 8 IEnMin= 8 EnMin= -1926.62863387055     IErMin= 8 ErrMin= 2.91D-04
 ErrMax= 2.91D-04  0.00D+00 EMaxC= 1.00D+00 BMatC= 1.19D-05 BMatP= 2.87D-05
 IDIUse=1 WtCom= 1.00D+00 WtEn= 0.00D+00
 Coeff-Com:  0.145D-02-0.246D-02 0.249D-01 0.708D-01-0.377D-01-0.808D+00
 Coeff-Com:  0.135D+00 0.162D+01
 Coeff:      0.145D-02-0.246D-02 0.249D-01 0.708D-01-0.377D-01-0.808D+00
 Coeff:      0.135D+00 0.162D+01
 Gap=     0.305 Goal=   None    Shift=    0.500
 RMSDP=6.02D-05 MaxDP=5.62D-03 DE=-1.39D-04 OVMax= 4.03D-03

 Cycle   9  Pass 1  IDiag  1:
 E= -1926.62869627461     Delta-E=       -0.000062404059 Rises=F Damp=F
 DIIS: error= 1.83D-04 at cycle   9 NSaved=   9.
 NSaved= 9 IEnMin= 9 EnMin= -1926.62869627461     IErMin= 9 ErrMin= 1.83D-04
 ErrMax= 1.83D-04  0.00D+00 EMaxC= 1.00D+00 BMatC= 4.85D-06 BMatP= 1.19D-05
 IDIUse=1 WtCom= 1.00D+00 WtEn= 0.00D+00
 Coeff-Com:  0.701D-04-0.101D-02-0.144D-01 0.565D-01 0.178D+00-0.349D+00
 Coeff-Com: -0.445D+00-0.340D+00 0.192D+01
 Coeff:      0.701D-04-0.101D-02-0.144D-01 0.565D-01 0.178D+00-0.349D+00
 Coeff:     -0.445D+00-0.340D+00 0.192D+01
 Gap=     0.305 Goal=   None    Shift=    0.500
 RMSDP=3.85D-05 MaxDP=3.72D-03 DE=-6.24D-05 OVMax= 3.05D-03

 Cycle  10  Pass 1  IDiag  1:
 E= -1926.62872397117     Delta-E=       -0.000027696555 Rises=F Damp=F
 DIIS: error= 1.17D-04 at cycle  10 NSaved=  10.
 NSaved=10 IEnMin=10 EnMin= -1926.62872397117     IErMin=10 ErrMin= 1.17D-04
 ErrMax= 1.17D-04  0.00D+00 EMaxC= 1.00D+00 BMatC= 2.00D-06 BMatP= 4.85D-06
 IDIUse=1 WtCom= 1.00D+00 WtEn= 0.00D+00
 Coeff-Com: -0.507D-03 0.103D-03-0.975D-02-0.988D-03 0.422D-01 0.135D+00
 Coeff-Com: -0.115D+00-0.767D+00-0.212D+00 0.193D+01
 Coeff:     -0.507D-03 0.103D-03-0.975D-02-0.988D-03 0.422D-01 0.135D+00
 Coeff:     -0.115D+00-0.767D+00-0.212D+00 0.193D+01
 Gap=     0.305 Goal=   None    Shift=    0.500
 RMSDP=2.50D-05 MaxDP=2.49D-03 DE=-2.77D-05 OVMax= 2.20D-03

 Cycle  11  Pass 1  IDiag  1:
 E= -1926.62873583573     Delta-E=       -0.000011864565 Rises=F Damp=F
 DIIS: error= 7.84D-05 at cycle  11 NSaved=  11.
 NSaved=11 IEnMin=11 EnMin= -1926.62873583573     IErMin=11 ErrMin= 7.84D-05
 ErrMax= 7.84D-05  0.00D+00 EMaxC= 1.00D+00 BMatC= 8.29D-07 BMatP= 2.00D-06
 IDIUse=1 WtCom= 1.00D+00 WtEn= 0.00D+00
 Coeff-Com: -0.250D-03 0.190D-03 0.485D-02-0.168D-01-0.572D-01 0.144D+00
 Coeff-Com:  0.152D+00-0.195D+00-0.824D+00-0.135D+00 0.193D+01
 Coeff:     -0.250D-03 0.190D-03 0.485D-02-0.168D-01-0.572D-01 0.144D+00
 Coeff:      0.152D+00-0.195D+00-0.824D+00-0.135D+00 0.193D+01
 Gap=     0.305 Goal=   None    Shift=    0.500
 RMSDP=1.63D-05 MaxDP=1.63D-03 DE=-1.19D-05 OVMax= 1.53D-03

 Cycle  12  Pass 1  IDiag  1:
 E= -1926.62874082690     Delta-E=       -0.000004991165 Rises=F Damp=F
 DIIS: error= 5.19D-05 at cycle  12 NSaved=  12.
 NSaved=12 IEnMin=12 EnMin= -1926.62874082690     IErMin=12 ErrMin= 5.19D-05
 ErrMax= 5.19D-05  0.00D+00 EMaxC= 1.00D+00 BMatC= 3.63D-07 BMatP= 8.29D-07
 IDIUse=1 WtCom= 1.00D+00 WtEn= 0.00D+00
 Coeff-Com:  0.524D-04 0.183D-03 0.435D-02 0.456D-03-0.877D-02-0.624D-01
 Coeff-Com:  0.666D-01 0.263D+00-0.449D-01-0.109D+01-0.339D+00 0.221D+01
 Coeff:      0.524D-04 0.183D-03 0.435D-02 0.456D-03-0.877D-02-0.624D-01
 Coeff:      0.666D-01 0.263D+00-0.449D-01-0.109D+01-0.339D+00 0.221D+01
 Gap=     0.305 Goal=   None    Shift=    0.500
 RMSDP=1.01D-05 MaxDP=1.03D-03 DE=-4.99D-06 OVMax= 1.06D-03

 Cycle  13  Pass 1  IDiag  1:
 E= -1926.62874293815     Delta-E=       -0.000002111255 Rises=F Damp=F
 DIIS: error= 3.28D-05 at cycle  13 NSaved=  13.
 NSaved=13 IEnMin=13 EnMin= -1926.62874293815     IErMin=13 ErrMin= 3.28D-05
 ErrMax= 3.28D-05  0.00D+00 EMaxC= 1.00D+00 BMatC= 1.43D-07 BMatP= 3.63D-07
 IDIUse=1 WtCom= 1.00D+00 WtEn= 0.00D+00
 Coeff-Com:  0.296D-04-0.608D-05-0.632D-03 0.452D-02 0.114D-01-0.437D-01
 Coeff-Com: -0.103D-01 0.629D-01 0.206D+00-0.279D+00-0.481D+00-0.653D+00
 Coeff-Com:  0.218D+01
 Coeff:      0.296D-04-0.608D-05-0.632D-03 0.452D-02 0.114D-01-0.437D-01
 Coeff:     -0.103D-01 0.629D-01 0.206D+00-0.279D+00-0.481D+00-0.653D+00
 Coeff:      0.218D+01
 Gap=     0.305 Goal=   None    Shift=    0.500
 RMSDP=5.93D-06 MaxDP=5.69D-04 DE=-2.11D-06 OVMax= 6.82D-04

 Cycle  14  Pass 1  IDiag  1:
 E= -1926.62874376478     Delta-E=       -0.000000826630 Rises=F Damp=F
 DIIS: error= 2.01D-05 at cycle  14 NSaved=  14.
 NSaved=14 IEnMin=14 EnMin= -1926.62874376478     IErMin=14 ErrMin= 2.01D-05
 ErrMax= 2.01D-05  0.00D+00 EMaxC= 1.00D+00 BMatC= 5.60D-08 BMatP= 1.43D-07
 IDIUse=1 WtCom= 1.00D+00 WtEn= 0.00D+00
 Coeff-Com: -0.150D-04-0.136D-03-0.147D-02 0.139D-02 0.525D-02 0.764D-02
 Coeff-Com: -0.209D-01-0.695D-01 0.858D-01 0.242D+00-0.391D-01-0.134D+01
 Coeff-Com:  0.428D+00 0.170D+01
 Coeff:     -0.150D-04-0.136D-03-0.147D-02 0.139D-02 0.525D-02 0.764D-02
 Coeff:     -0.209D-01-0.695D-01 0.858D-01 0.242D+00-0.391D-01-0.134D+01
 Coeff:      0.428D+00 0.170D+01
 Gap=     0.305 Goal=   None    Shift=    0.500
 RMSDP=3.35D-06 MaxDP=2.87D-04 DE=-8.27D-07 OVMax= 4.28D-04

 Cycle  15  Pass 1  IDiag  1:
 E= -1926.62874407979     Delta-E=       -0.000000315012 Rises=F Damp=F
 DIIS: error= 1.25D-05 at cycle  15 NSaved=  15.
 NSaved=15 IEnMin=15 EnMin= -1926.62874407979     IErMin=15 ErrMin= 1.25D-05
 ErrMax= 1.25D-05  0.00D+00 EMaxC= 1.00D+00 BMatC= 2.17D-08 BMatP= 5.60D-08
 IDIUse=1 WtCom= 1.00D+00 WtEn= 0.00D+00
 Coeff-Com: -0.170D-04-0.518D-04 0.899D-04-0.129D-02-0.227D-02 0.161D-01
 Coeff-Com: -0.404D-02-0.267D-01-0.601D-01 0.146D+00 0.163D+00-0.204D+00
 Coeff-Com: -0.778D+00-0.290D+00 0.204D+01
 Coeff:     -0.170D-04-0.518D-04 0.899D-04-0.129D-02-0.227D-02 0.161D-01
 Coeff:     -0.404D-02-0.267D-01-0.601D-01 0.146D+00 0.163D+00-0.204D+00
 Coeff:     -0.778D+00-0.290D+00 0.204D+01
 Gap=     0.305 Goal=   None    Shift=    0.500
 RMSDP=1.91D-06 MaxDP=1.34D-04 DE=-3.15D-07 OVMax= 2.67D-04

 Cycle  16  Pass 1  IDiag  1:
 E= -1926.62874419991     Delta-E=       -0.000000120121 Rises=F Damp=F
 DIIS: error= 7.65D-06 at cycle  16 NSaved=  16.
 NSaved=16 IEnMin=16 EnMin= -1926.62874419991     IErMin=16 ErrMin= 7.65D-06
 ErrMax= 7.65D-06  0.00D+00 EMaxC= 1.00D+00 BMatC= 8.31D-09 BMatP= 2.17D-08
 IDIUse=1 WtCom= 1.00D+00 WtEn= 0.00D+00
 Coeff-Com: -0.563D-05 0.248D-04 0.425D-03-0.614D-03-0.194D-02 0.264D-02
 Coeff-Com:  0.362D-02 0.130D-01-0.475D-01-0.146D-01 0.708D-01 0.251D+00
 Coeff-Com: -0.444D+00-0.500D+00-0.160D+00 0.183D+01
 Coeff:     -0.563D-05 0.248D-04 0.425D-03-0.614D-03-0.194D-02 0.264D-02
 Coeff:      0.362D-02 0.130D-01-0.475D-01-0.146D-01 0.708D-01 0.251D+00
 Coeff:     -0.444D+00-0.500D+00-0.160D+00 0.183D+01
 Gap=     0.305 Goal=   None    Shift=    0.500
 RMSDP=1.15D-06 MaxDP=6.80D-05 DE=-1.20D-07 OVMax= 1.63D-04

 Cycle  17  Pass 1  IDiag  1:
 E= -1926.62874424440     Delta-E=       -0.000000044486 Rises=F Damp=F
 DIIS: error= 4.58D-06 at cycle  17 NSaved=  17.
 NSaved=17 IEnMin=17 EnMin= -1926.62874424440     IErMin=17 ErrMin= 4.58D-06
 ErrMax= 4.58D-06  0.00D+00 EMaxC= 1.00D+00 BMatC= 3.17D-09 BMatP= 8.31D-09
 IDIUse=1 WtCom= 1.00D+00 WtEn= 0.00D+00
 Coeff-Com:  0.443D-06 0.247D-04 0.705D-04 0.199D-03-0.202D-03-0.278D-02
 Coeff-Com:  0.228D-02 0.990D-02 0.103D-02-0.382D-01-0.208D-01 0.108D+00
 Coeff-Com:  0.654D-01-0.707D-01-0.863D+00 0.616D-01 0.175D+01
 Coeff:      0.443D-06 0.247D-04 0.705D-04 0.199D-03-0.202D-03-0.278D-02
 Coeff:      0.228D-02 0.990D-02 0.103D-02-0.382D-01-0.208D-01 0.108D+00
 Coeff:      0.654D-01-0.707D-01-0.863D+00 0.616D-01 0.175D+01
 Gap=     0.305 Goal=   None    Shift=    0.500
 RMSDP=7.11D-07 MaxDP=4.11D-05 DE=-4.45D-08 OVMax= 9.92D-05

 SCF Done:  E(RLC-wHPBE) =  -1926.62874424     A.U. after   17 cycles
            NFock= 17  Conv=0.71D-06     -V/T= 2.0037
 KE= 1.919549340613D+03 PE=-1.017830093971D+04 EE= 3.504876574778D+03
 Leave Link  502 at Mon Jan 18 06:47:27 2021, MaxMem=  4026531840 cpu:            7041.1 elap:             882.5
 (Enter /opt/ohpc/pub/libs/gaussian/g16-A.03/sandybridge/g16/l508.exe)
 QCSCF skips out because SCF is already converged.
 Leave Link  508 at Mon Jan 18 06:47:27 2021, MaxMem=  4026531840 cpu:               0.2 elap:               0.0
 (Enter /opt/ohpc/pub/libs/gaussian/g16-A.03/sandybridge/g16/l601.exe)
 Copying SCF densities to generalized density rwf, IOpCl= 0 IROHF=0.

 **********************************************************************

            Population analysis using the SCF density.

 **********************************************************************

 Orbital symmetries:
       Occupied  (A) (A) (A) (A) (A) (A) (A) (A) (A) (A) (A) (A)
                 (A) (A) (A) (A) (A) (A) (A) (A) (A) (A) (A) (A)
                 (A) (A) (A) (A) (A) (A) (A) (A) (A) (A) (A) (A)
                 (A) (A) (A) (A) (A) (A) (A) (A) (A) (A) (A) (A)
                 (A) (A) (A) (A) (A) (A) (A) (A) (A) (A) (A) (A)
                 (A) (A) (A) (A) (A) (A) (A) (A) (A) (A) (A) (A)
                 (A) (A) (A) (A) (A) (A) (A) (A) (A) (A) (A) (A)
                 (A) (A) (A) (A) (A) (A) (A) (A) (A) (A) (A) (A)
                 (A) (A) (A) (A) (A) (A) (A) (A) (A) (A) (A) (A)
                 (A)
       Virtual   (A) (A) (A) (A) (A) (A) (A) (A) (A) (A) (A) (A)
                 (A) (A) (A) (A) (A) (A) (A) (A) (A) (A) (A) (A)
                 (A) (A) (A) (A) (A) (A) (A) (A) (A) (A) (A) (A)
                 (A) (A) (A) (A) (A) (A) (A) (A) (A) (A) (A) (A)
                 (A) (A) (A) (A) (A) (A) (A) (A) (A) (A) (A) (A)
                 (A) (A) (A) (A) (A) (A) (A) (A) (A) (A) (A) (A)
                 (A) (A) (A) (A) (A) (A) (A) (A) (A) (A) (A) (A)
                 (A) (A) (A) (A) (A) (A) (A) (A) (A) (A) (A) (A)
                 (A) (A) (A) (A) (A) (A) (A) (A) (A) (A) (A) (A)
                 (A) (A) (A) (A) (A) (A) (A) (A) (A) (A) (A) (A)
                 (A) (A) (A) (A) (A) (A) (A) (A) (A) (A) (A) (A)
                 (A) (A) (A) (A) (A) (A) (A) (A) (A) (A) (A) (A)
                 (A) (A) (A) (A) (A) (A) (A) (A) (A) (A) (A) (A)
                 (A) (A) (A) (A) (A) (A) (A) (A) (A) (A) (A) (A)
                 (A) (A) (A) (A) (A) (A) (A) (A) (A) (A) (A) (A)
                 (A) (A) (A) (A) (A) (A) (A) (A) (A) (A) (A) (A)
                 (A) (A) (A) (A) (A) (A) (A) (A) (A) (A) (A) (A)
                 (A) (A) (A) (A) (A) (A) (A) (A) (A) (A) (A) (A)
                 (A) (A) (A) (A) (A) (A) (A) (A) (A) (A) (A) (A)
                 (A) (A) (A) (A) (A) (A) (A) (A) (A) (A) (A) (A)
                 (A) (A) (A) (A) (A) (A) (A) (A) (A) (A) (A) (A)
                 (A) (A) (A) (A) (A) (A) (A) (A) (A) (A) (A) (A)
                 (A) (A) (A) (A) (A) (A) (A) (A) (A) (A) (A) (A)
                 (A) (A) (A) (A) (A) (A) (A) (A) (A) (A) (A) (A)
                 (A) (A) (A) (A) (A) (A) (A) (A) (A) (A) (A) (A)
                 (A) (A) (A) (A) (A) (A) (A) (A) (A) (A) (A) (A)
                 (A) (A) (A) (A) (A) (A) (A) (A) (A) (A) (A) (A)
                 (A) (A) (A) (A) (A) (A) (A) (A) (A) (A) (A) (A)
                 (A) (A) (A) (A) (A) (A) (A) (A) (A) (A) (A) (A)
                 (A) (A) (A) (A) (A) (A) (A) (A) (A) (A) (A) (A)
                 (A) (A) (A) (A) (A) (A) (A) (A) (A) (A) (A) (A)
                 (A) (A) (A) (A) (A) (A) (A) (A) (A) (A) (A) (A)
                 (A) (A) (A) (A) (A) (A) (A) (A) (A) (A) (A) (A)
                 (A) (A) (A) (A) (A) (A) (A) (A) (A) (A) (A) (A)
                 (A) (A) (A) (A) (A) (A) (A) (A) (A) (A) (A) (A)
                 (A) (A) (A) (A) (A) (A) (A) (A) (A) (A) (A) (A)
                 (A) (A) (A) (A) (A) (A) (A) (A) (A) (A) (A) (A)
                 (A) (A) (A) (A) (A) (A) (A) (A) (A) (A) (A) (A)
                 (A) (A) (A) (A) (A) (A) (A) (A) (A) (A) (A) (A)
                 (A) (A) (A) (A) (A) (A) (A) (A) (A) (A) (A) (A)
                 (A) (A) (A) (A) (A) (A) (A) (A) (A) (A) (A) (A)
                 (A) (A) (A) (A) (A) (A) (A) (A) (A) (A) (A) (A)
                 (A) (A) (A) (A) (A) (A) (A) (A) (A) (A) (A) (A)
                 (A) (A) (A) (A) (A) (A) (A) (A) (A) (A) (A) (A)
                 (A) (A) (A) (A) (A) (A) (A) (A) (A) (A) (A) (A)
                 (A) (A) (A) (A) (A) (A) (A) (A) (A) (A) (A) (A)
                 (A) (A) (A) (A) (A) (A) (A) (A) (A) (A)
 The electronic state is 1-A.
 Alpha  occ. eigenvalues --  -88.31939 -88.31849 -18.96092 -18.95979 -14.19233
 Alpha  occ. eigenvalues --  -10.13132 -10.13023 -10.11167 -10.10515 -10.10446
 Alpha  occ. eigenvalues --  -10.07549 -10.07503 -10.07487 -10.07471 -10.07456
 Alpha  occ. eigenvalues --  -10.07441 -10.07392 -10.07380 -10.07340 -10.07279
 Alpha  occ. eigenvalues --  -10.07202 -10.07114 -10.06976 -10.06924 -10.06920
 Alpha  occ. eigenvalues --  -10.06876 -10.06784 -10.06688 -10.06459  -7.90512
 Alpha  occ. eigenvalues --   -7.90434  -5.92346  -5.92273  -5.92149  -5.92065
 Alpha  occ. eigenvalues --   -5.91358  -5.91277  -1.16812  -1.16702  -1.08188
 Alpha  occ. eigenvalues --   -1.00225  -0.98296  -0.98241  -0.96536  -0.93527
 Alpha  occ. eigenvalues --   -0.88597  -0.87878  -0.87614  -0.86963  -0.86818
 Alpha  occ. eigenvalues --   -0.86247  -0.84175  -0.82997  -0.80676  -0.75604
 Alpha  occ. eigenvalues --   -0.74962  -0.73499  -0.73016  -0.71941  -0.71378
 Alpha  occ. eigenvalues --   -0.69707  -0.67920  -0.66610  -0.66497  -0.65031
 Alpha  occ. eigenvalues --   -0.64296  -0.62871  -0.61061  -0.59447  -0.58546
 Alpha  occ. eigenvalues --   -0.57110  -0.56680  -0.55441  -0.55318  -0.55039
 Alpha  occ. eigenvalues --   -0.54773  -0.54139  -0.53638  -0.53466  -0.53217
 Alpha  occ. eigenvalues --   -0.53062  -0.52726  -0.52163  -0.51063  -0.50646
 Alpha  occ. eigenvalues --   -0.50234  -0.49657  -0.48962  -0.48049  -0.46881
 Alpha  occ. eigenvalues --   -0.46467  -0.46387  -0.45937  -0.44864  -0.44614
 Alpha  occ. eigenvalues --   -0.44287  -0.44026  -0.42791  -0.39900  -0.37440
 Alpha  occ. eigenvalues --   -0.36597  -0.35976  -0.35722  -0.35069  -0.33348
 Alpha  occ. eigenvalues --   -0.33057  -0.32261  -0.27670  -0.26253
 Alpha virt. eigenvalues --    0.04266   0.05321   0.05613   0.06498   0.06664
 Alpha virt. eigenvalues --    0.06913   0.06990   0.08871   0.10483   0.10930
 Alpha virt. eigenvalues --    0.11052   0.11617   0.12425   0.13333   0.13876
 Alpha virt. eigenvalues --    0.14348   0.14950   0.15941   0.16214   0.16438
 Alpha virt. eigenvalues --    0.16833   0.17672   0.18158   0.18728   0.19294
 Alpha virt. eigenvalues --    0.19655   0.19878   0.20314   0.20657   0.21755
 Alpha virt. eigenvalues --    0.22142   0.22912   0.23570   0.23891   0.24224
 Alpha virt. eigenvalues --    0.24466   0.24982   0.25223   0.25377   0.25786
 Alpha virt. eigenvalues --    0.27391   0.27742   0.28264   0.28654   0.28905
 Alpha virt. eigenvalues --    0.29414   0.29638   0.29735   0.29829   0.30354
 Alpha virt. eigenvalues --    0.30431   0.31095   0.31259   0.31588   0.31864
 Alpha virt. eigenvalues --    0.32052   0.32420   0.32770   0.33009   0.33606
 Alpha virt. eigenvalues --    0.33660   0.34179   0.34307   0.34699   0.35064
 Alpha virt. eigenvalues --    0.35233   0.35774   0.36608   0.36883   0.37051
 Alpha virt. eigenvalues --    0.37675   0.38429   0.38547   0.38700   0.38886
 Alpha virt. eigenvalues --    0.39622   0.39799   0.40012   0.41099   0.41844
 Alpha virt. eigenvalues --    0.42202   0.42608   0.42737   0.43111   0.43313
 Alpha virt. eigenvalues --    0.43573   0.43831   0.44419   0.44946   0.45149
 Alpha virt. eigenvalues --    0.45432   0.45852   0.46243   0.47073   0.47126
 Alpha virt. eigenvalues --    0.47338   0.47500   0.47747   0.47917   0.48062
 Alpha virt. eigenvalues --    0.48560   0.48763   0.48916   0.49189   0.49672
 Alpha virt. eigenvalues --    0.49773   0.50118   0.50458   0.50592   0.50817
 Alpha virt. eigenvalues --    0.51127   0.51419   0.51752   0.51930   0.52396
 Alpha virt. eigenvalues --    0.52876   0.53214   0.53790   0.53952   0.54454
 Alpha virt. eigenvalues --    0.54739   0.55200   0.55856   0.56476   0.56918
 Alpha virt. eigenvalues --    0.57078   0.57395   0.57668   0.58110   0.58376
 Alpha virt. eigenvalues --    0.58897   0.59033   0.59310   0.60044   0.60140
 Alpha virt. eigenvalues --    0.60664   0.61278   0.61987   0.62459   0.62979
 Alpha virt. eigenvalues --    0.63315   0.63784   0.64335   0.64454   0.65213
 Alpha virt. eigenvalues --    0.65419   0.65996   0.66257   0.66655   0.66938
 Alpha virt. eigenvalues --    0.67942   0.68107   0.68481   0.68818   0.69859
 Alpha virt. eigenvalues --    0.70535   0.71618   0.72437   0.73930   0.74600
 Alpha virt. eigenvalues --    0.74973   0.76344   0.76624   0.76939   0.77440
 Alpha virt. eigenvalues --    0.77883   0.78721   0.79075   0.79576   0.80076
 Alpha virt. eigenvalues --    0.80471   0.80797   0.81368   0.82616   0.82900
 Alpha virt. eigenvalues --    0.83034   0.83714   0.84737   0.85177   0.85822
 Alpha virt. eigenvalues --    0.86232   0.86568   0.86729   0.87201   0.87633
 Alpha virt. eigenvalues --    0.89097   0.89813   0.90606   0.91327   0.91757
 Alpha virt. eigenvalues --    0.92619   0.93136   0.94596   0.95476   0.96113
 Alpha virt. eigenvalues --    0.96512   0.96674   0.97431   1.00138   1.00818
 Alpha virt. eigenvalues --    1.01675   1.02393   1.04371   1.05941   1.08560
 Alpha virt. eigenvalues --    1.10308   1.13057   1.23055   1.24158   1.25109
 Alpha virt. eigenvalues --    1.28550   1.29840   1.30932   1.31241   1.32202
 Alpha virt. eigenvalues --    1.32830   1.33172   1.33254   1.33567   1.33690
 Alpha virt. eigenvalues --    1.34682   1.34869   1.35338   1.35761   1.36178
 Alpha virt. eigenvalues --    1.36317   1.36773   1.38070   1.38258   1.38923
 Alpha virt. eigenvalues --    1.39186   1.39635   1.40690   1.41266   1.41389
 Alpha virt. eigenvalues --    1.41873   1.42492   1.42975   1.43377   1.44730
 Alpha virt. eigenvalues --    1.44852   1.45210   1.47155   1.47925   1.48309
 Alpha virt. eigenvalues --    1.49239   1.49621   1.49876   1.50741   1.50986
 Alpha virt. eigenvalues --    1.51320   1.51573   1.52035   1.52251   1.52565
 Alpha virt. eigenvalues --    1.52586   1.53088   1.53675   1.53822   1.54134
 Alpha virt. eigenvalues --    1.54312   1.54397   1.54884   1.55312   1.56154
 Alpha virt. eigenvalues --    1.56293   1.57121   1.57439   1.57646   1.58407
 Alpha virt. eigenvalues --    1.58569   1.59012   1.59177   1.59308   1.60163
 Alpha virt. eigenvalues --    1.60268   1.60663   1.61750   1.62058   1.62198
 Alpha virt. eigenvalues --    1.62337   1.62831   1.63103   1.63374   1.63765
 Alpha virt. eigenvalues --    1.63962   1.64315   1.64409   1.65013   1.65311
 Alpha virt. eigenvalues --    1.65634   1.65998   1.66282   1.66886   1.67077
 Alpha virt. eigenvalues --    1.67305   1.67698   1.67796   1.68638   1.68853
 Alpha virt. eigenvalues --    1.69675   1.70355   1.70960   1.71687   1.72022
 Alpha virt. eigenvalues --    1.73692   1.74682   1.75874   1.76370   1.76652
 Alpha virt. eigenvalues --    1.77356   1.78716   1.79251   1.81826   1.82261
 Alpha virt. eigenvalues --    1.84291   1.85026   1.85417   1.85727   1.85905
 Alpha virt. eigenvalues --    1.86108   1.86485   1.87208   1.87229   1.87759
 Alpha virt. eigenvalues --    1.88206   1.88878   1.89007   1.90163   1.90695
 Alpha virt. eigenvalues --    1.91338   1.91440   1.91891   1.92574   1.93213
 Alpha virt. eigenvalues --    1.94117   1.95426   1.96318   1.96903   1.97189
 Alpha virt. eigenvalues --    1.97653   1.98097   1.98420   1.99150   1.99679
 Alpha virt. eigenvalues --    1.99866   2.00020   2.00613   2.00847   2.01493
 Alpha virt. eigenvalues --    2.02096   2.02234   2.02479   2.02883   2.03611
 Alpha virt. eigenvalues --    2.04103   2.04679   2.06828   2.07544   2.07681
 Alpha virt. eigenvalues --    2.08560   2.09515   2.10115   2.10386   2.11193
 Alpha virt. eigenvalues --    2.11556   2.11802   2.12345   2.13168   2.15152
 Alpha virt. eigenvalues --    2.17012   2.17746   2.18637   2.19368   2.19781
 Alpha virt. eigenvalues --    2.21533   2.23072   2.24229   2.24499   2.27273
 Alpha virt. eigenvalues --    2.28010   2.28765   2.29357   2.30687   2.31478
 Alpha virt. eigenvalues --    2.32199   2.32949   2.34550   2.35017   2.35151
 Alpha virt. eigenvalues --    2.35810   2.36888   2.38036   2.39854   2.39964
 Alpha virt. eigenvalues --    2.41114   2.41435   2.41654   2.41794   2.42005
 Alpha virt. eigenvalues --    2.42319   2.43000   2.43310   2.44063   2.44370
 Alpha virt. eigenvalues --    2.44610   2.44988   2.45475   2.45730   2.46396
 Alpha virt. eigenvalues --    2.46466   2.46837   2.46938   2.47215   2.47724
 Alpha virt. eigenvalues --    2.48093   2.48594   2.48852   2.49022   2.51491
 Alpha virt. eigenvalues --    2.54126   2.55114   2.55727   2.57512   2.58125
 Alpha virt. eigenvalues --    2.58591   2.61034   2.61628   2.61855   2.62543
 Alpha virt. eigenvalues --    2.63528   2.66519   2.66625   2.67676   2.68654
 Alpha virt. eigenvalues --    2.69271   2.69728   2.70161   2.70439   2.71557
 Alpha virt. eigenvalues --    2.71662   2.72128   2.72266   2.72688   2.73958
 Alpha virt. eigenvalues --    2.75003   2.75291   2.75474   2.75735   2.77297
 Alpha virt. eigenvalues --    2.78199   2.79314   2.80271   2.81070   2.82183
 Alpha virt. eigenvalues --    2.82718   2.83233   2.84386   2.86379   2.87607
 Alpha virt. eigenvalues --    2.88137   2.89008   2.89268   2.89757   2.90398
 Alpha virt. eigenvalues --    2.92461   2.94079   2.94652   2.96101   2.96681
 Alpha virt. eigenvalues --    2.97229   3.02646   3.02816   3.03378   3.04207
 Alpha virt. eigenvalues --    3.05653   3.06846   3.08425   3.08928   3.09313
 Alpha virt. eigenvalues --    3.09523   3.10308   3.10944   3.12682   3.13056
 Alpha virt. eigenvalues --    3.13511   3.15886   3.16855   3.18927   3.19769
 Alpha virt. eigenvalues --    3.20397   3.20900   3.21341   3.22151   3.22719
 Alpha virt. eigenvalues --    3.22966   3.23685   3.25867   3.26784   3.28176
 Alpha virt. eigenvalues --    3.28530   3.29518   3.30506   3.31700   3.32388
 Alpha virt. eigenvalues --    3.32943   3.33203   3.35795   3.37449   3.37478
 Alpha virt. eigenvalues --    3.40408   3.41862   3.42255   3.44802   3.46169
 Alpha virt. eigenvalues --    3.47967   3.49868   3.52593   3.55550   3.63361
 Alpha virt. eigenvalues --    3.63693   3.64559   3.65667   3.68021   3.69265
 Alpha virt. eigenvalues --    3.80058   3.81670   3.94756   3.96594   4.16776
 Alpha virt. eigenvalues --    4.17776   4.42935   4.43074  19.06334  19.27991
 Alpha virt. eigenvalues --   21.14633  21.25567  21.32964  21.34720  21.70606
 Alpha virt. eigenvalues --   21.78441  21.80307  21.81592  21.82683  21.85881
 Alpha virt. eigenvalues --   21.92910  21.94429  21.99586  22.02072  22.04014
 Alpha virt. eigenvalues --   22.06042  22.07691  22.09651  22.12993  22.14259
 Alpha virt. eigenvalues --   22.20485  22.21620  22.26436  22.29000  32.16053
 Alpha virt. eigenvalues --   43.32875  43.33116
          Condensed to atoms (all electrons):
               1          2          3          4          5          6
     1  C    5.348943  -0.056897   0.007605   0.243632   0.000713  -0.006483
     2  C   -0.056897   6.273603   0.059594   0.058897  -0.018817   0.046355
     3  S    0.007605   0.059594  15.428959  -0.191301  -0.197843   0.065198
     4  C    0.243632   0.058897  -0.191301   6.281391   0.039025  -0.014170
     5  C    0.000713  -0.018817  -0.197843   0.039025   6.716753   0.135402
     6  C   -0.006483   0.046355   0.065198  -0.014170   0.135402   6.414509
     7  C    0.239889   0.214198   0.002393  -0.281860  -0.000406   0.000996
     8  C   -0.226785   0.249045   0.017756  -0.064452  -0.005593   0.001030
     9  H    0.001431   0.004929   0.022484  -0.115892  -0.116665   0.004133
    10  C    0.000499  -0.000195   0.041688  -0.007650  -0.563463   0.163646
    11  C    0.000400  -0.008312  -0.002942  -0.000596   0.209889  -0.130287
    12  C   -0.000038   0.001257   0.002555   0.000017  -0.244775   0.221545
    13  C   -0.000011  -0.000642  -0.002723   0.000384   0.272482  -0.311096
    14  H    0.000008   0.000008   0.000196  -0.000717  -0.055641   0.017393
    15  H    0.000052  -0.000930  -0.004869  -0.000020   0.023253  -0.113572
    16  H    0.000000   0.000001  -0.000033  -0.000001  -0.003802   0.016859
    17  C    0.096179  -0.280770  -0.000408   0.214662   0.000785  -0.000417
    18  H    0.442211  -0.090028  -0.004519   0.025747   0.000020  -0.000908
    19  H    0.012703  -0.117285   0.367340   0.006515   0.006345  -0.123187
    20  H   -0.059500   0.021540  -0.000076  -0.006191  -0.000000  -0.000003
    21  H   -0.001953   0.025262   0.000209  -0.088971  -0.000780  -0.000003
    22  H    0.018757  -0.006222   0.000040   0.021692  -0.000002  -0.000002
    23  S    0.017463  -0.186672   0.209851   0.062830   0.066684  -0.198092
    24  N    0.000000  -0.000001   0.000024  -0.000006   0.017835   0.006013
    25  C   -0.000000   0.000000  -0.000060   0.000000  -0.005019   0.002786
    26  C   -0.000000   0.000000   0.000002  -0.000000  -0.001037   0.000750
    27  C    0.000000  -0.000001   0.000000  -0.000000   0.004964  -0.004382
    28  C   -0.000000   0.000000   0.000000   0.000000  -0.000097   0.000040
    29  C    0.000000  -0.000000  -0.000000  -0.000000   0.000192  -0.000404
    30  C    0.000000  -0.000000   0.000000  -0.000000   0.000030  -0.000008
    31  H    0.000000  -0.000000  -0.000000  -0.000000   0.000034  -0.000017
    32  H    0.000000  -0.000000  -0.000011  -0.000000   0.000707   0.000733
    33  H    0.000000  -0.000000  -0.000000   0.000000   0.000000  -0.000000
    34  H    0.000000  -0.000000  -0.000000   0.000000  -0.000001  -0.000003
    35  C    0.000000  -0.000001   0.000071  -0.000005  -0.018727   0.001815
    36  C   -0.000000   0.000000  -0.000003   0.000001   0.005662  -0.000311
    37  C    0.000000   0.000001   0.000015  -0.000004  -0.017771   0.000928
    38  C   -0.000000   0.000000  -0.000000   0.000000  -0.000072   0.000028
    39  C    0.000000  -0.000000   0.000001   0.000000  -0.001066   0.000014
    40  C    0.000000   0.000000  -0.000000  -0.000000  -0.000229  -0.000007
    41  H    0.000000  -0.000000   0.000000  -0.000000  -0.000109   0.000009
    42  H    0.000000   0.000000   0.000013  -0.000003  -0.004678   0.000603
    43  H    0.000000  -0.000000   0.000000  -0.000000  -0.000005   0.000000
    44  H   -0.000000  -0.000000   0.000000   0.000000   0.000014  -0.000000
    45  O   -0.000000   0.000000   0.000000   0.000000   0.000001   0.000000
    46  H    0.000000   0.000000   0.000000  -0.000000   0.000000  -0.000000
    47  O    0.000000  -0.000000  -0.000000  -0.000000  -0.000000   0.000000
    48  H    0.000000  -0.000000   0.000000  -0.000000   0.000000  -0.000000
               7          8          9         10         11         12
     1  C    0.239889  -0.226785   0.001431   0.000499   0.000400  -0.000038
     2  C    0.214198   0.249045   0.004929  -0.000195  -0.008312   0.001257
     3  S    0.002393   0.017756   0.022484   0.041688  -0.002942   0.002555
     4  C   -0.281860  -0.064452  -0.115892  -0.007650  -0.000596   0.000017
     5  C   -0.000406  -0.005593  -0.116665  -0.563463   0.209889  -0.244775
     6  C    0.000996   0.001030   0.004133   0.163646  -0.130287   0.221545
     7  C    5.136525   0.097137  -0.000370  -0.000053  -0.000007   0.000003
     8  C    0.097137   5.351989   0.012338  -0.000044   0.000501  -0.000052
     9  H   -0.000370   0.012338   0.703281   0.018608   0.002239  -0.001493
    10  C   -0.000053  -0.000044   0.018608   6.228215  -0.211972  -0.119408
    11  C   -0.000007   0.000501   0.002239  -0.211972   5.508352   0.109921
    12  C    0.000003  -0.000052  -0.001493  -0.119408   0.109921   5.691887
    13  C   -0.000001   0.000013  -0.001320   0.058207   0.129933   0.227214
    14  H   -0.000001   0.000021   0.004388   0.403809   0.000173   0.004514
    15  H   -0.000000   0.000010   0.000050   0.000994   0.451793  -0.062204
    16  H   -0.000000   0.000000  -0.000001   0.014033  -0.042070   0.402401
    17  C    0.388251   0.241657  -0.001780   0.000007  -0.000042   0.000001
    18  H   -0.057625  -0.002265   0.000047   0.000011   0.000051  -0.000003
    19  H   -0.002013   0.001289   0.000690   0.001720   0.019041  -0.004604
    20  H    0.424445   0.018640   0.000003   0.000000   0.000000  -0.000000
    21  H    0.010752   0.441789   0.005820   0.000050   0.000011  -0.000002
    22  H   -0.057677  -0.059449   0.000042   0.000000   0.000000  -0.000000
    23  S   -0.000238   0.006963   0.367278   0.015627   0.024263  -0.003961
    24  N   -0.000000   0.000000   0.000113   0.001180   0.018595  -0.011100
    25  C    0.000000  -0.000000  -0.000024  -0.009080  -0.003377   0.041201
    26  C   -0.000000  -0.000000  -0.000000  -0.012416   0.000504   0.034507
    27  C   -0.000000   0.000000   0.000019   0.024065  -0.001260  -0.117016
    28  C    0.000000  -0.000000  -0.000000  -0.000355  -0.000166   0.002600
    29  C    0.000000   0.000000   0.000001   0.000941   0.001029  -0.004777
    30  C   -0.000000   0.000000  -0.000000   0.000120  -0.000154  -0.002148
    31  H    0.000000   0.000000  -0.000000  -0.000232   0.000034   0.000077
    32  H    0.000000   0.000000  -0.000003  -0.000757  -0.001653   0.000235
    33  H    0.000000   0.000000   0.000000   0.000002  -0.000001  -0.000030
    34  H   -0.000000   0.000000   0.000000  -0.000031   0.000017   0.000005
    35  C   -0.000000   0.000000   0.000219   0.059333  -0.000957  -0.021181
    36  C    0.000000   0.000000  -0.000012   0.022262   0.000164  -0.016777
    37  C   -0.000000  -0.000000  -0.000029  -0.078955  -0.000528   0.034930
    38  C    0.000000  -0.000000   0.000001   0.002554  -0.000055  -0.000215
    39  C   -0.000000  -0.000000  -0.000005  -0.007055  -0.000109   0.001579
    40  C   -0.000000   0.000000  -0.000002  -0.002206   0.000013   0.000164
    41  H   -0.000000   0.000000   0.000001   0.000493   0.000000  -0.000304
    42  H   -0.000000   0.000000   0.000009   0.003310   0.000219  -0.000687
    43  H   -0.000000  -0.000000   0.000000  -0.000033  -0.000000   0.000003
    44  H    0.000000  -0.000000   0.000000   0.000127   0.000001  -0.000034
    45  O    0.000000  -0.000000   0.000000   0.000013  -0.000000  -0.000000
    46  H   -0.000000   0.000000   0.000000  -0.000000   0.000000   0.000000
    47  O    0.000000  -0.000000   0.000000   0.000000   0.000000   0.000002
    48  H   -0.000000  -0.000000   0.000000  -0.000000   0.000000  -0.000001
              13         14         15         16         17         18
     1  C   -0.000011   0.000008   0.000052   0.000000   0.096179   0.442211
     2  C   -0.000642   0.000008  -0.000930   0.000001  -0.280770  -0.090028
     3  S   -0.002723   0.000196  -0.004869  -0.000033  -0.000408  -0.004519
     4  C    0.000384  -0.000717  -0.000020  -0.000001   0.214662   0.025747
     5  C    0.272482  -0.055641   0.023253  -0.003802   0.000785   0.000020
     6  C   -0.311096   0.017393  -0.113572   0.016859  -0.000417  -0.000908
     7  C   -0.000001  -0.000001  -0.000000  -0.000000   0.388251  -0.057625
     8  C    0.000013   0.000021   0.000010   0.000000   0.241657  -0.002265
     9  H   -0.001320   0.004388   0.000050  -0.000001  -0.001780   0.000047
    10  C    0.058207   0.403809   0.000994   0.014033   0.000007   0.000011
    11  C    0.129933   0.000173   0.451793  -0.042070  -0.000042   0.000051
    12  C    0.227214   0.004514  -0.062204   0.402401   0.000001  -0.000003
    13  C    5.669356  -0.031381   0.021653  -0.039129   0.000002   0.000000
    14  H   -0.031381   0.487158   0.000008  -0.000162   0.000001   0.000000
    15  H    0.021653   0.000008   0.568007  -0.005546  -0.000001   0.000005
    16  H   -0.039129  -0.000162  -0.005546   0.490203   0.000000   0.000000
    17  C    0.000002   0.000001  -0.000001   0.000000   5.132109   0.011103
    18  H    0.000000   0.000000   0.000005   0.000000   0.011103   0.556847
    19  H    0.001002   0.000020   0.006045  -0.000007  -0.000301   0.006164
    20  H   -0.000000  -0.000000   0.000000  -0.000000  -0.057325  -0.005374
    21  H   -0.000000  -0.000000   0.000000  -0.000000  -0.057010   0.000039
    22  H    0.000000   0.000000   0.000000  -0.000000   0.424367  -0.000073
    23  S    0.003051  -0.004721   0.000242   0.000005   0.002050   0.000214
    24  N    0.118091  -0.004333  -0.000237  -0.005119  -0.000000   0.000000
    25  C   -0.058114  -0.000899  -0.000183   0.002381   0.000000  -0.000000
    26  C   -0.024829  -0.000388  -0.000097  -0.001793   0.000000  -0.000000
    27  C    0.045424   0.000606   0.000405   0.000751  -0.000000   0.000000
    28  C   -0.002054   0.000005  -0.000003   0.000828  -0.000000  -0.000000
    29  C   -0.005783   0.000000   0.000090  -0.004052  -0.000000   0.000000
    30  C    0.001956  -0.000002  -0.000004   0.000573   0.000000   0.000000
    31  H   -0.001123  -0.000008   0.000000   0.000027  -0.000000  -0.000000
    32  H   -0.002862  -0.000010  -0.000062   0.001174   0.000000  -0.000000
    33  H    0.000000  -0.000000   0.000000   0.000005  -0.000000  -0.000000
    34  H    0.000014   0.000000   0.000000  -0.000003  -0.000000   0.000000
    35  C   -0.081361   0.006126   0.000154  -0.001244  -0.000000   0.000000
    36  C   -0.019306  -0.004131   0.000003  -0.000453  -0.000000  -0.000000
[...]
    15  H   -0.000183  -0.000097   0.000405  -0.000003   0.000090  -0.000004
    16  H    0.002381  -0.001793   0.000751   0.000828  -0.004052   0.000573
    17  C    0.000000   0.000000  -0.000000  -0.000000  -0.000000   0.000000
    18  H   -0.000000  -0.000000   0.000000  -0.000000   0.000000   0.000000
    19  H   -0.000005  -0.000000   0.000007   0.000000   0.000000   0.000000
    20  H   -0.000000  -0.000000   0.000000   0.000000   0.000000  -0.000000
    21  H   -0.000000  -0.000000   0.000000  -0.000000   0.000000  -0.000000
    22  H   -0.000000   0.000000   0.000000   0.000000   0.000000  -0.000000
    23  S   -0.000030  -0.000000   0.000015   0.000000   0.000002  -0.000000
    24  N    0.074542   0.009852  -0.007342   0.017311   0.027247   0.003434
    25  C    5.569777   0.383721   0.344629  -0.017719   0.043369  -0.128627
    26  C    0.383721   5.178475  -0.168914   0.355594  -0.038476  -0.029728
    27  C    0.344629  -0.168914   5.570759  -0.003297  -0.113596   0.087457
    28  C   -0.017719   0.355594  -0.003297   5.346966  -0.214495   0.443979
    29  C    0.043369  -0.038476  -0.113596  -0.214495   6.064267   0.224826
    30  C   -0.128627  -0.029728   0.087457   0.443979   0.224826   5.012739
    31  H   -0.033368   0.418139   0.013952  -0.059417  -0.002753   0.014212
    32  H   -0.017204   0.008930   0.387096   0.000198  -0.028697   0.006017
    33  H    0.013934  -0.032800  -0.002496   0.409937   0.013263  -0.057395
    34  H    0.009834   0.003458   0.020175   0.002908   0.374924  -0.069656
    35  C   -0.068145   0.032238  -0.023565  -0.002321  -0.001493   0.001769
    36  C    0.046158  -0.074514   0.018329  -0.005779   0.002782  -0.001924
    37  C   -0.017547   0.016454  -0.013528   0.001375   0.000226   0.000072
    38  C   -0.014715  -0.001060   0.002364   0.000960   0.000042  -0.000117
    39  C   -0.005114   0.003885  -0.000265   0.000047  -0.000114   0.000038
    40  C    0.003347  -0.002492   0.000055  -0.000192   0.000058  -0.000021
    41  H    0.004486   0.002205  -0.005554  -0.002346   0.002131   0.000255
    42  H   -0.001346   0.000669  -0.000434   0.000014   0.000031  -0.000007
    43  H   -0.000059   0.000127  -0.000057   0.000031  -0.000007  -0.000000
    44  H   -0.000024  -0.000013   0.000003  -0.000002  -0.000000   0.000000
    45  O    0.000016  -0.000007   0.000000  -0.000001  -0.000000   0.000000
    46  H    0.000001  -0.000001  -0.000000   0.000000   0.000000  -0.000000
    47  O   -0.001544   0.005240   0.021404  -0.080820  -0.112552   0.404492
    48  H   -0.000432  -0.002102   0.007047   0.020602  -0.039931  -0.025325
              31         32         33         34         35         36
     1  C    0.000000   0.000000   0.000000   0.000000   0.000000  -0.000000
     2  C   -0.000000  -0.000000  -0.000000  -0.000000  -0.000001   0.000000
     3  S   -0.000000  -0.000011  -0.000000  -0.000000   0.000071  -0.000003
     4  C   -0.000000  -0.000000   0.000000   0.000000  -0.000005   0.000001
     5  C    0.000034   0.000707   0.000000  -0.000001  -0.018727   0.005662
     6  C   -0.000017   0.000733  -0.000000  -0.000003   0.001815  -0.000311
     7  C    0.000000   0.000000   0.000000  -0.000000  -0.000000   0.000000
     8  C    0.000000   0.000000   0.000000   0.000000   0.000000   0.000000
     9  H   -0.000000  -0.000003   0.000000   0.000000   0.000219  -0.000012
    10  C   -0.000232  -0.000757   0.000002  -0.000031   0.059333   0.022262
    11  C    0.000034  -0.001653  -0.000001   0.000017  -0.000957   0.000164
    12  C    0.000077   0.000235  -0.000030   0.000005  -0.021181  -0.016777
    13  C   -0.001123  -0.002862   0.000000   0.000014  -0.081361  -0.019306
    14  H   -0.000008  -0.000010  -0.000000   0.000000   0.006126  -0.004131
    15  H    0.000000  -0.000062   0.000000   0.000000   0.000154   0.000003
    16  H    0.000027   0.001174   0.000005  -0.000003  -0.001244  -0.000453
    17  C   -0.000000   0.000000  -0.000000  -0.000000  -0.000000  -0.000000
    18  H   -0.000000  -0.000000  -0.000000   0.000000   0.000000  -0.000000
    19  H   -0.000000  -0.000002   0.000000   0.000000   0.000005  -0.000000
    20  H   -0.000000  -0.000000   0.000000   0.000000   0.000000   0.000000
    21  H   -0.000000  -0.000000   0.000000   0.000000   0.000000   0.000000
    22  H   -0.000000  -0.000000  -0.000000   0.000000   0.000000  -0.000000
    23  S   -0.000000  -0.000012   0.000000   0.000000   0.000058   0.000019
    24  N   -0.008269  -0.004531  -0.000469  -0.000639   0.095744  -0.010081
    25  C   -0.033368  -0.017204   0.013934   0.009834  -0.068145   0.046158
    26  C    0.418139   0.008930  -0.032800   0.003458   0.032238  -0.074514
    27  C    0.013952   0.387096  -0.002496   0.020175  -0.023565   0.018329
    28  C   -0.059417   0.000198   0.409937   0.002908  -0.002321  -0.005779
    29  C   -0.002753  -0.028697   0.013263   0.374924  -0.001493   0.002782
    30  C    0.014212   0.006017  -0.057395  -0.069656   0.001769  -0.001924
    31  H    0.506382  -0.000159  -0.006202   0.000020   0.002120   0.003497
    32  H   -0.000159   0.488659   0.000020  -0.004134  -0.001957   0.001090
    33  H   -0.006202   0.000020   0.521856  -0.000209  -0.000196   0.000156
    34  H    0.000020  -0.004134  -0.000209   0.542489   0.000010  -0.000035
    35  C    0.002120  -0.001957  -0.000196   0.000010   5.596695   0.325855
    36  C    0.003497   0.001090   0.000156  -0.000035   0.325855   5.557206
    37  C   -0.003292  -0.000469  -0.000031   0.000001   0.366303  -0.163173
    38  C   -0.003396  -0.000041   0.000019  -0.000003   0.068964  -0.154055
    39  C    0.000852   0.000012  -0.000006   0.000000  -0.025450   0.001471
    40  C    0.000464  -0.000002   0.000003   0.000000  -0.131118   0.097497
    41  H    0.000831   0.000062  -0.000014   0.000008  -0.014728   0.390160
    42  H    0.000021  -0.000007   0.000001  -0.000000  -0.034817   0.012600
    43  H   -0.000022   0.000000  -0.000000   0.000000   0.009966   0.021139
    44  H   -0.000001  -0.000000  -0.000000  -0.000000   0.014389  -0.002699
    45  O    0.000001   0.000000  -0.000000  -0.000000  -0.002143   0.022466
    46  H    0.000001  -0.000000  -0.000000   0.000000  -0.000564   0.007546
    47  O   -0.000081  -0.000034   0.002209  -0.005679  -0.000010   0.000005
    48  H    0.000020  -0.000028  -0.000412   0.000333  -0.000001  -0.000000
              37         38         39         40         41         42
     1  C    0.000000  -0.000000   0.000000   0.000000   0.000000   0.000000
     2  C    0.000001   0.000000  -0.000000   0.000000  -0.000000   0.000000
     3  S    0.000015  -0.000000   0.000001  -0.000000   0.000000   0.000013
     4  C   -0.000004   0.000000   0.000000  -0.000000  -0.000000  -0.000003
     5  C   -0.017771  -0.000072  -0.001066  -0.000229  -0.000109  -0.004678
     6  C    0.000928   0.000028   0.000014  -0.000007   0.000009   0.000603
     7  C   -0.000000   0.000000  -0.000000  -0.000000  -0.000000  -0.000000
     8  C   -0.000000  -0.000000  -0.000000   0.000000   0.000000   0.000000
     9  H   -0.000029   0.000001  -0.000005  -0.000002   0.000001   0.000009
    10  C   -0.078955   0.002554  -0.007055  -0.002206   0.000493   0.003310
    11  C   -0.000528  -0.000055  -0.000109   0.000013   0.000000   0.000219
    12  C    0.034930  -0.000215   0.001579   0.000164  -0.000304  -0.000687
    13  C    0.021565  -0.001779   0.003505   0.001201  -0.001674  -0.004428
    14  H    0.001348   0.001513  -0.002009   0.000573   0.000098   0.001345
    15  H   -0.000067   0.000000  -0.000002  -0.000000  -0.000000   0.000004
    16  H    0.000574   0.000014   0.000012  -0.000002  -0.000013  -0.000030
    17  C    0.000000  -0.000000   0.000000   0.000000   0.000000   0.000000
    18  H    0.000000  -0.000000   0.000000   0.000000   0.000000   0.000000
    19  H   -0.000001   0.000000   0.000000  -0.000000   0.000000   0.000000
    20  H   -0.000000   0.000000  -0.000000  -0.000000   0.000000   0.000000
    21  H   -0.000000   0.000000  -0.000000  -0.000000   0.000000   0.000000
    22  H    0.000000  -0.000000  -0.000000  -0.000000   0.000000   0.000000
    23  S    0.000002  -0.000002   0.000004  -0.000000  -0.000001   0.000022
    24  N    0.009403   0.028364   0.012723   0.003958  -0.008045  -0.003366
    25  C   -0.017547  -0.014715  -0.005114   0.003347   0.004486  -0.001346
    26  C    0.016454  -0.001060   0.003885  -0.002492   0.002205   0.000669
    27  C   -0.013528   0.002364  -0.000265   0.000055  -0.005554  -0.000434
    28  C    0.001375   0.000960   0.000047  -0.000192  -0.002346   0.000014
    29  C    0.000226   0.000042  -0.000114   0.000058   0.002131   0.000031
    30  C    0.000072  -0.000117   0.000038  -0.000021   0.000255  -0.000007
    31  H   -0.003292  -0.003396   0.000852   0.000464   0.000831   0.000021
    32  H   -0.000469  -0.000041   0.000012  -0.000002   0.000062  -0.000007
    33  H   -0.000031   0.000019  -0.000006   0.000003  -0.000014   0.000001
    34  H    0.000001  -0.000003   0.000000   0.000000   0.000008  -0.000000
    35  C    0.366303   0.068964  -0.025450  -0.131118  -0.014728  -0.034817
    36  C   -0.163173  -0.154055   0.001471   0.097497   0.390160   0.012600
    37  C    5.214305  -0.053659   0.388023  -0.031960   0.009656   0.410941
    38  C   -0.053659   6.130691  -0.211550   0.197244  -0.039045  -0.002630
    39  C    0.388023  -0.211550   5.286281   0.461169   0.000355  -0.045444
    40  C   -0.031960   0.197244   0.461169   5.019908   0.006792   0.012973
    41  H    0.009656  -0.039045   0.000355   0.006792   0.499502  -0.000174
    42  H    0.410941  -0.002630  -0.045444   0.012973  -0.000174   0.493102
    43  H    0.003531   0.374116   0.002621  -0.069627  -0.004161   0.000018
    44  H   -0.032052   0.013639   0.408618  -0.057645   0.000019  -0.006034
    45  O    0.005829  -0.113476  -0.081113   0.404754  -0.000011  -0.000075
    46  H   -0.001932  -0.041179   0.019990  -0.023930  -0.000022   0.000020
    47  O    0.000000   0.000000  -0.000000   0.000000  -0.000004  -0.000000
    48  H   -0.000000   0.000000   0.000000  -0.000000  -0.000001  -0.000000
              43         44         45         46         47         48
     1  C    0.000000  -0.000000  -0.000000   0.000000   0.000000   0.000000
     2  C   -0.000000  -0.000000   0.000000   0.000000  -0.000000  -0.000000
     3  S    0.000000   0.000000   0.000000   0.000000  -0.000000   0.000000
     4  C   -0.000000   0.000000   0.000000  -0.000000  -0.000000  -0.000000
     5  C   -0.000005   0.000014   0.000001   0.000000  -0.000000   0.000000
     6  C    0.000000  -0.000000   0.000000  -0.000000   0.000000  -0.000000
     7  C   -0.000000   0.000000   0.000000  -0.000000   0.000000  -0.000000
     8  C   -0.000000  -0.000000  -0.000000   0.000000  -0.000000  -0.000000
     9  H    0.000000   0.000000   0.000000   0.000000   0.000000   0.000000
    10  C   -0.000033   0.000127   0.000013  -0.000000   0.000000  -0.000000
    11  C   -0.000000   0.000001  -0.000000   0.000000   0.000000   0.000000
    12  C    0.000003  -0.000034  -0.000000   0.000000   0.000002  -0.000001
    13  C    0.000009  -0.000139  -0.000008  -0.000000   0.000008   0.000000
    14  H    0.000015   0.000011  -0.000006  -0.000001   0.000000  -0.000000
    15  H   -0.000000   0.000000  -0.000000  -0.000000  -0.000000  -0.000000
    16  H   -0.000000   0.000000  -0.000000  -0.000000  -0.000001   0.000001
    17  C    0.000000  -0.000000  -0.000000   0.000000   0.000000   0.000000
    18  H    0.000000   0.000000  -0.000000   0.000000  -0.000000   0.000000
    19  H    0.000000   0.000000   0.000000   0.000000  -0.000000   0.000000
    20  H    0.000000   0.000000   0.000000  -0.000000  -0.000000   0.000000
    21  H    0.000000   0.000000   0.000000  -0.000000  -0.000000   0.000000
    22  H    0.000000   0.000000   0.000000   0.000000   0.000000   0.000000
    23  S   -0.000000  -0.000001   0.000000   0.000000  -0.000000   0.000000
    24  N   -0.000605  -0.000528  -0.000010  -0.000002  -0.000007  -0.000002
    25  C   -0.000059  -0.000024   0.000016   0.000001  -0.001544  -0.000432
    26  C    0.000127  -0.000013  -0.000007  -0.000001   0.005240  -0.002102
    27  C   -0.000057   0.000003   0.000000  -0.000000   0.021404   0.007047
    28  C    0.000031  -0.000002  -0.000001   0.000000  -0.080820   0.020602
    29  C   -0.000007  -0.000000  -0.000000   0.000000  -0.112552  -0.039931
    30  C   -0.000000   0.000000   0.000000  -0.000000   0.404492  -0.025325
    31  H   -0.000022  -0.000001   0.000001   0.000001  -0.000081   0.000020
    32  H    0.000000  -0.000000   0.000000  -0.000000  -0.000034  -0.000028
    33  H   -0.000000  -0.000000  -0.000000  -0.000000   0.002209  -0.000412
    34  H    0.000000  -0.000000  -0.000000   0.000000  -0.005679   0.000333
    35  C    0.009966   0.014389  -0.002143  -0.000564  -0.000010  -0.000001
    36  C    0.021139  -0.002699   0.022466   0.007546   0.000005  -0.000000
    37  C    0.003531  -0.032052   0.005829  -0.001932   0.000000  -0.000000
    38  C    0.374116   0.013639  -0.113476  -0.041179   0.000000   0.000000
    39  C    0.002621   0.408618  -0.081113   0.019990  -0.000000   0.000000
    40  C   -0.069627  -0.057645   0.404754  -0.023930   0.000000  -0.000000
    41  H   -0.004161   0.000019  -0.000011  -0.000022  -0.000004  -0.000001
    42  H    0.000018  -0.006034  -0.000075   0.000020  -0.000000  -0.000000
    43  H    0.541642  -0.000204  -0.005818   0.000184  -0.000000   0.000000
    44  H   -0.000204   0.520975   0.002380  -0.000426  -0.000000   0.000000
    45  O   -0.005818   0.002380   7.701591   0.313278  -0.000000  -0.000000
    46  H    0.000184  -0.000426   0.313278   0.457036   0.000000  -0.000000
    47  O   -0.000000  -0.000000  -0.000000   0.000000   7.702105   0.313266
    48  H    0.000000   0.000000  -0.000000  -0.000000   0.313266   0.456930
 Mulliken charges:
               1
     1  C   -0.078818
     2  C   -0.187917
     3  S    0.178793
     4  C   -0.182951
     5  C   -0.244192
     6  C   -0.197433
     7  C   -0.114340
     8  C   -0.081536
     9  H    0.089473
    10  C   -0.047611
    11  C   -0.072657
    12  C   -0.165805
    13  C    0.014694
    14  H    0.175073
    15  H    0.115029
    16  H    0.173619
    17  C   -0.113119
    18  H    0.118336
    19  H    0.086718
    20  H    0.123296
    21  H    0.118707
    22  H    0.123326
    23  S    0.177338
    24  N   -0.046841
    25  C   -0.157548
    26  C   -0.064082
    27  C   -0.087821
    28  C   -0.214335
    29  C   -0.188293
    30  C    0.113145
    31  H    0.157657
    32  H    0.167704
    33  H    0.138856
    34  H    0.126197
    35  C   -0.151847
    36  C   -0.082818
    37  C   -0.070484
    38  C   -0.183466
    39  C   -0.211898
    40  C    0.109262
    41  H    0.159143
    42  H    0.168245
    43  H    0.127197
    44  H    0.139626
    45  O   -0.247661
    46  H    0.270001
    47  O   -0.248001
    48  H    0.270035
 Sum of Mulliken charges =  -0.00000
 Mulliken charges with hydrogens summed into heavy atoms:
               1
     1  C    0.039517
     2  C   -0.187917
     3  S    0.265511
     4  C   -0.182951
     5  C   -0.244192
     6  C   -0.197433
     7  C    0.008956
     8  C    0.037171
    10  C    0.127463
    11  C    0.042372
    12  C    0.007814
    13  C    0.014694
    17  C    0.010208
    23  S    0.266812
    24  N   -0.046841
    25  C   -0.157548
    26  C    0.093575
    27  C    0.079883
    28  C   -0.075479
    29  C   -0.062096
    30  C    0.113145
    35  C   -0.151847
    36  C    0.076325
    37  C    0.097761
    38  C   -0.056269
    39  C   -0.072272
    40  C    0.109262
    45  O    0.022341
    47  O    0.022034
 Electronic spatial extent (au):  <R**2>=          17768.9286
 Charge=             -0.0000 electrons
 Dipole moment (field-independent basis, Debye):
    X=             -0.7102    Y=             -1.4948    Z=              3.1280  Tot=              3.5388
 Quadrupole moment (field-independent basis, Debye-Ang):
   XX=           -174.5992   YY=           -165.7060   ZZ=           -176.7796
   XY=             -7.2993   XZ=             -5.2854   YZ=              5.5467
 Traceless Quadrupole moment (field-independent basis, Debye-Ang):
   XX=             -2.2376   YY=              6.6556   ZZ=             -4.4180
   XY=             -7.2993   XZ=             -5.2854   YZ=              5.5467
 Octapole moment (field-independent basis, Debye-Ang**2):
  XXX=             76.4867  YYY=            -69.4249  ZZZ=             11.8546  XYY=            -45.7685
  XXY=             29.8834  XXZ=             77.7384  XZZ=            -38.6620  YZZ=              4.9549
  YYZ=             69.7769  XYZ=             21.7793
 Hexadecapole moment (field-independent basis, Debye-Ang**3):
 XXXX=         -17675.6587 YYYY=          -4760.8480 ZZZZ=           -957.8866 XXXY=           -599.9824
 XXXZ=             63.3751 YYYX=             70.7233 YYYZ=             42.3131 ZZZX=            -49.5251
 ZZZY=            -26.7291 XXYY=          -3481.6458 XXZZ=          -3133.4437 YYZZ=           -854.6371
 XXYZ=            187.1615 YYXZ=           -391.7679 ZZXY=             60.8098
 N-N= 2.827246280079D+03 E-N=-1.017830091672D+04  KE= 1.919549340613D+03
 No NMR shielding tensors so no spin-rotation constants.
 Leave Link  601 at Mon Jan 18 06:47:27 2021, MaxMem=  4026531840 cpu:               4.4 elap:               0.7
 (Enter /opt/ohpc/pub/libs/gaussian/g16-A.03/sandybridge/g16/l9999.exe)

 Test job not archived.
 1\1\GINC-CASCADEB025\SP\RLC-wHPBE\TZVP\C24H19N1O2S2\RDU230\18-Jan-2021
 \0\\#P LC-wHPBE/TZVP iop(3/107=0328100000, 3/108=0328100000) scf=(conv
 er=6,fermi,ndamp=35,noincfock,novaracc,vshift=500,xqc)\\H19 C24 S2 N1 
 O2\\0,1\C,0,-6.54463,-1.193879,0.12701\C,0,-5.283469,-0.647909,0.13152
 3\S,0,-3.665919,-1.107322,1.042984\C,0,-4.996815,0.486583,-0.53783\C,0
 ,-1.475687,0.036886,0.221747\C,0,-1.772288,-1.094442,0.892846\C,0,-7.5
 17398,-0.549399,-0.618903\C,0,-5.951198,1.159916,-1.262339\H,0,-2.8434
 06,1.345523,-1.332578\C,0,-0.186077,0.430997,-0.028463\C,0,-0.77363,-1
 .912541,1.366813\C,0,0.53691,-1.552052,1.124661\C,0,0.845585,-0.387156
 ,0.425435\H,0,0.045427,1.33981,-0.567415\H,0,-0.986976,-2.816418,1.923
 251\H,0,1.342687,-2.175375,1.48462\C,0,-7.223748,0.615229,-1.306247\H,
 0,-6.782458,-2.097666,0.673346\H,0,-3.815781,-2.43941,0.928305\H,0,-8.
 517553,-0.958288,-0.663525\H,0,-5.730059,2.077989,-1.791552\H,0,-7.997
 253,1.105431,-1.881471\S,0,-3.166075,0.851646,-0.124057\N,0,2.182887,-
 0.044483,0.184905\C,0,3.146505,-1.044921,-0.067172\C,0,4.392012,-0.989
 098,0.539344\C,0,2.878694,-2.090316,-0.930362\C,0,5.345494,-1.946131,0
 .285899\C,0,3.822608,-3.066997,-1.170354\C,0,5.062274,-2.995295,-0.567
 641\H,0,4.612943,-0.17489,1.215121\H,0,1.913696,-2.145516,-1.414069\H,
 0,6.317156,-1.901598,0.755555\H,0,3.591387,-3.881585,-1.84538\C,0,2.57
 5405,1.310294,0.123192\C,0,3.391681,1.763268,-0.894977\C,0,2.16404,2.2
 11964,1.09371\C,0,3.796835,3.081396,-0.942072\C,0,2.544098,3.531176,1.
 038879\C,0,3.368807,3.972023,0.020733\H,0,3.723839,1.07184,-1.656403\H
 ,0,1.529535,1.868488,1.898614\H,0,4.442764,3.41523,-1.744528\H,0,2.220
 724,4.234697,1.791974\O,0,3.726245,5.28132,0.019257\H,0,4.294203,5.466
 041,-0.728132\O,0,6.032969,-3.920806,-0.776143\H,0,5.721078,-4.593785,
 -1.380389\\Version=EM64L-G16RevA.03\State=1-A\HF=-1926.6287442\RMSD=7.
 109e-07\Dipole=0.2793992,-0.5881032,-1.2306484\Quadrupole=-1.663587,4.
 9482885,-3.2847015,5.4268562,-3.9295575,-4.1238319\PG=C01 [X(C24H19N1O
 2S2)]\\@


 SUCCESS IS NEVER CERTAIN,
 FAILURE IS NEVER FINAL.
 Job cpu time:       0 days  1 hours 58 minutes 36.8 seconds.
 Elapsed time:       0 days  0 hours 14 minutes 52.5 seconds.
 File lengths (MBytes):  RWF=    192 Int=      0 D2E=      0 Chk=     32 Scr=      8
 Normal termination of Gaussian 16 at Mon Jan 18 06:47:27 2021.
