 Entering Gaussian System, Link 0=g16
 Input=mol_ta_ma_half_tune_c4.gjf
 Output=mol_ta_ma_half_tune_c4.log
 Initial command:
 /opt/ohpc/pub/libs/gaussian/g16-A.03/sandybridge/g16/l1.exe "/mnt/gpfs2_4m/scratch/rdu230/ondemand/projects/init_structures/wtuning/mol_ta_ma_half/tuning_mol_ta_ma_half_ocycle0/Gau-181261.inp" -scrdir="/mnt/gpfs2_4m/scratch/rdu230/ondemand/projects/init_structures/wtuning/mol_ta_ma_half/tuning_mol_ta_ma_half_ocycle0/"
 Entering Link 1 = /opt/ohpc/pub/libs/gaussian/g16-A.03/sandybridge/g16/l1.exe PID=    181262.
  
 Copyright (c) 1988,1990,1992,1993,1995,1998,2003,2009,2016,
            Gaussian, Inc.  All Rights Reserved.
  
 This is part of the Gaussian(R) 16 program.  It is based on
 the Gaussian(R) 09 system (copyright 2009, Gaussian, Inc.),
 the Gaussian(R) 03 system (copyright 2003, Gaussian, Inc.),
 the Gaussian(R) 98 system (copyright 1998, Gaussian, Inc.),
 the Gaussian(R) 94 system (copyright 1995, Gaussian, Inc.),
 the Gaussian 92(TM) system (copyright 1992, Gaussian, Inc.),
 the Gaussian 90(TM) system (copyright 1990, Gaussian, Inc.),
 the Gaussian 88(TM) system (copyright 1988, Gaussian, Inc.),
 the Gaussian 86(TM) system (copyright 1986, Carnegie Mellon
 University), and the Gaussian 82(TM) system (copyright 1983,
 Carnegie Mellon University). Gaussian is a federally registered
 trademark of Gaussian, Inc.
  
 This software contains proprietary and confidential information,
 including trade secrets, belonging to Gaussian, Inc.
  
 This software is provided under written license and may be
 used, copied, transmitted, or stored only in accord with that
 written license.
  
 The following legend is applicable only to US Government
 contracts under FAR:
  
                    RESTRICTED RIGHTS LEGEND
  
 Use, reproduction and disclosure by the US Government is
 subject to restrictions as set forth in subparagraphs (a)
 and (c) of the Commercial Computer Software - Restricted
 Rights clause in FAR 52.227-19.
  
 Gaussian, Inc.
 340 Quinnipiac St., Bldg. 40, Wallingford CT 06492
  
  
 ---------------------------------------------------------------
 Warning -- This program may not be used in any manner that
 competes with the business of Gaussian, Inc. or will provide
 assistance to any competitor of Gaussian, Inc.  The licensee
 of this program is prohibited from giving any competitor of
 Gaussian, Inc. access to this program.  By using this program,
 the user acknowledges that Gaussian, Inc. is engaged in the
 business of creating and licensing software in the field of
 computational chemistry and represents and warrants to the
 licensee that it is not a competitor of Gaussian, Inc. and that
 it will not use this program in any manner prohibited above.
 ---------------------------------------------------------------
  

 Cite this work as:
 Gaussian 16, Revision A.03,
 M. J. Frisch, G. W. Trucks, H. B. Schlegel, G. E. Scuseria, 
 M. A. Robb, J. R. Cheeseman, G. Scalmani, V. Barone, 
 G. A. Petersson, H. Nakatsuji, X. Li, M. Caricato, A. V. Marenich, 
 J. Bloino, B. G. Janesko, R. Gomperts, B. Mennucci, H. P. Hratchian, 
 J. V. Ortiz, A. F. Izmaylov, J. L. Sonnenberg, D. Williams-Young, 
 F. Ding, F. Lipparini, F. Egidi, J. Goings, B. Peng, A. Petrone, 
 T. Henderson, D. Ranasinghe, V. G. Zakrzewski, J. Gao, N. Rega, 
 G. Zheng, W. Liang, M. Hada, M. Ehara, K. Toyota, R. Fukuda, 
 J. Hasegawa, M. Ishida, T. Nakajima, Y. Honda, O. Kitao, H. Nakai, 
 T. Vreven, K. Throssell, J. A. Montgomery, Jr., J. E. Peralta, 
 F. Ogliaro, M. J. Bearpark, J. J. Heyd, E. N. Brothers, K. N. Kudin, 
 V. N. Staroverov, T. A. Keith, R. Kobayashi, J. Normand, 
 K. Raghavachari, A. P. Rendell, J. C. Burant, S. S. Iyengar, 
 J. Tomasi, M. Cossi, J. M. Millam, M. Klene, C. Adamo, R. Cammi, 
 J. W. Ochterski, R. L. Martin, K. Morokuma, O. Farkas, 
 J. B. Foresman, and D. J. Fox, Gaussian, Inc., Wallingford CT, 2016.
 
 ******************************************
 Gaussian 16:  EM64L-G16RevA.03 25-Dec-2016
                18-Jan-2021 
 ******************************************
 %mem=30GB
 %nproc=8
 Will use up to    8 processors via shared memory.
 ----------------------------------------------------------------------
 #P LC-wHPBE/TZVP iop(3/107=0181300000, 3/108=0181300000) scf=(conver=6
 ,fermi,ndamp=35,noincfock,novaracc,vshift=500,xqc)
 ----------------------------------------------------------------------
 1/38=1,172=1/1;
 2/12=2,17=6,18=5,40=1/2;
 3/5=19,7=101,11=2,25=1,30=1,74=-71,107=181300000,108=181300000/1,2,3;
 4//1;
 5/5=100002,6=6,8=3,10=500,13=1,18=-1,22=13,38=1,93=35/2,8;
 6/7=2,8=2,9=2,10=2,28=1/1;
 99/5=1,9=1/99;
 Leave Link    1 at Mon Jan 18 11:36:32 2021, MaxMem=  4026531840 cpu:               1.3 elap:               0.2
 (Enter /opt/ohpc/pub/libs/gaussian/g16-A.03/sandybridge/g16/l101.exe)
 ----------------
 H19 C24 S2 N1 O2
 ----------------
 Symbolic Z-matrix:
 Charge =  1 Multiplicity = 2
 C                    -6.54463  -1.19388   0.12701 
 C                    -5.28347  -0.64791   0.13152 
 S                    -3.66592  -1.10732   1.04298 
 C                    -4.99682   0.48658  -0.53783 
 C                    -1.47569   0.03689   0.22175 
 C                    -1.77229  -1.09444   0.89285 
 C                    -7.5174   -0.5494   -0.6189 
 C                    -5.9512    1.15992  -1.26234 
 H                    -2.84341   1.34552  -1.33258 
 C                    -0.18608   0.431    -0.02846 
 C                    -0.77363  -1.91254   1.36681 
 C                     0.53691  -1.55205   1.12466 
 C                     0.84559  -0.38716   0.42544 
 H                     0.04543   1.33981  -0.56742 
 H                    -0.98698  -2.81642   1.92325 
 H                     1.34269  -2.17537   1.48462 
 C                    -7.22375   0.61523  -1.30625 
 H                    -6.78246  -2.09767   0.67335 
 H                    -3.81578  -2.43941   0.92831 
 H                    -8.51755  -0.95829  -0.66353 
 H                    -5.73006   2.07799  -1.79155 
 H                    -7.99725   1.10543  -1.88147 
 S                    -3.16608   0.85165  -0.12406 
 N                     2.18289  -0.04448   0.18491 
 C                     3.1465   -1.04492  -0.06717 
 C                     4.39201  -0.9891    0.53934 
 C                     2.87869  -2.09032  -0.93036 
 C                     5.34549  -1.94613   0.2859 
 C                     3.82261  -3.067    -1.17035 
 C                     5.06227  -2.9953   -0.56764 
 H                     4.61294  -0.17489   1.21512 
 H                     1.9137   -2.14552  -1.41407 
 H                     6.31716  -1.9016    0.75556 
 H                     3.59139  -3.88159  -1.84538 
 C                     2.5754    1.31029   0.12319 
 C                     3.39168   1.76327  -0.89498 
 C                     2.16404   2.21196   1.09371 
 C                     3.79684   3.0814   -0.94207 
 C                     2.5441    3.53118   1.03888 
 C                     3.36881   3.97202   0.02073 
 H                     3.72384   1.07184  -1.6564 
 H                     1.52954   1.86849   1.89861 
 H                     4.44276   3.41523  -1.74453 
 H                     2.22072   4.2347    1.79197 
 O                     3.72625   5.28132   0.01926 
 H                     4.2942    5.46604  -0.72813 
 O                     6.03297  -3.92081  -0.77614 
 H                     5.72108  -4.59379  -1.38039 
 
 ITRead=  0  0  0  0  0  0  0  0  0  0  0  0  0  0  0  0  0  0  0  0
 ITRead=  0  0  0  0  0  0  0  0  0  0  0  0  0  0  0  0  0  0  0  0
 ITRead=  0  0  0  0  0  0  0  0
 MicOpt= -1 -1 -1 -1 -1 -1 -1 -1 -1 -1 -1 -1 -1 -1 -1 -1 -1 -1 -1 -1
 MicOpt= -1 -1 -1 -1 -1 -1 -1 -1 -1 -1 -1 -1 -1 -1 -1 -1 -1 -1 -1 -1
 MicOpt= -1 -1 -1 -1 -1 -1 -1 -1
 NAtoms=     48 NQM=       48 NQMF=       0 NMMI=      0 NMMIF=      0
                NMic=       0 NMicF=      0.
                    Isotopes and Nuclear Properties:
 (Nuclear quadrupole moments (NQMom) in fm**2, nuclear magnetic moments (NMagM)
  in nuclear magnetons)

  Atom         1           2           3           4           5           6           7           8           9          10
 IAtWgt=          12          12          32          12          12          12          12          12           1          12
 AtmWgt=  12.0000000  12.0000000  31.9720718  12.0000000  12.0000000  12.0000000  12.0000000  12.0000000   1.0078250  12.0000000
 NucSpn=           0           0           0           0           0           0           0           0           1           0
 AtZEff=  -0.0000000  -0.0000000  -0.0000000  -0.0000000  -0.0000000  -0.0000000  -0.0000000  -0.0000000  -0.0000000  -0.0000000
 NQMom=    0.0000000   0.0000000   0.0000000   0.0000000   0.0000000   0.0000000   0.0000000   0.0000000   0.0000000   0.0000000
 NMagM=    0.0000000   0.0000000   0.0000000   0.0000000   0.0000000   0.0000000   0.0000000   0.0000000   2.7928460   0.0000000
 AtZNuc=   6.0000000   6.0000000  16.0000000   6.0000000   6.0000000   6.0000000   6.0000000   6.0000000   1.0000000   6.0000000

  Atom        11          12          13          14          15          16          17          18          19          20
 IAtWgt=          12          12          12           1           1           1          12           1           1           1
 AtmWgt=  12.0000000  12.0000000  12.0000000   1.0078250   1.0078250   1.0078250  12.0000000   1.0078250   1.0078250   1.0078250
 NucSpn=           0           0           0           1           1           1           0           1           1           1
 AtZEff=  -0.0000000  -0.0000000  -0.0000000  -0.0000000  -0.0000000  -0.0000000  -0.0000000  -0.0000000  -0.0000000  -0.0000000
 NQMom=    0.0000000   0.0000000   0.0000000   0.0000000   0.0000000   0.0000000   0.0000000   0.0000000   0.0000000   0.0000000
 NMagM=    0.0000000   0.0000000   0.0000000   2.7928460   2.7928460   2.7928460   0.0000000   2.7928460   2.7928460   2.7928460
 AtZNuc=   6.0000000   6.0000000   6.0000000   1.0000000   1.0000000   1.0000000   6.0000000   1.0000000   1.0000000   1.0000000

  Atom        21          22          23          24          25          26          27          28          29          30
 IAtWgt=           1           1          32          14          12          12          12          12          12          12
 AtmWgt=   1.0078250   1.0078250  31.9720718  14.0030740  12.0000000  12.0000000  12.0000000  12.0000000  12.0000000  12.0000000
 NucSpn=           1           1           0           2           0           0           0           0           0           0
 AtZEff=  -0.0000000  -0.0000000  -0.0000000  -0.0000000  -0.0000000  -0.0000000  -0.0000000  -0.0000000  -0.0000000  -0.0000000
 NQMom=    0.0000000   0.0000000   0.0000000   2.0440000   0.0000000   0.0000000   0.0000000   0.0000000   0.0000000   0.0000000
 NMagM=    2.7928460   2.7928460   0.0000000   0.4037610   0.0000000   0.0000000   0.0000000   0.0000000   0.0000000   0.0000000
 AtZNuc=   1.0000000   1.0000000  16.0000000   7.0000000   6.0000000   6.0000000   6.0000000   6.0000000   6.0000000   6.0000000

  Atom        31          32          33          34          35          36          37          38          39          40
 IAtWgt=           1           1           1           1          12          12          12          12          12          12
 AtmWgt=   1.0078250   1.0078250   1.0078250   1.0078250  12.0000000  12.0000000  12.0000000  12.0000000  12.0000000  12.0000000
 NucSpn=           1           1           1           1           0           0           0           0           0           0
 AtZEff=  -0.0000000  -0.0000000  -0.0000000  -0.0000000  -0.0000000  -0.0000000  -0.0000000  -0.0000000  -0.0000000  -0.0000000
 NQMom=    0.0000000   0.0000000   0.0000000   0.0000000   0.0000000   0.0000000   0.0000000   0.0000000   0.0000000   0.0000000
 NMagM=    2.7928460   2.7928460   2.7928460   2.7928460   0.0000000   0.0000000   0.0000000   0.0000000   0.0000000   0.0000000
 AtZNuc=   1.0000000   1.0000000   1.0000000   1.0000000   6.0000000   6.0000000   6.0000000   6.0000000   6.0000000   6.0000000

  Atom        41          42          43          44          45          46          47          48
 IAtWgt=           1           1           1           1          16           1          16           1
 AtmWgt=   1.0078250   1.0078250   1.0078250   1.0078250  15.9949146   1.0078250  15.9949146   1.0078250
 NucSpn=           1           1           1           1           0           1           0           1
 AtZEff=  -0.0000000  -0.0000000  -0.0000000  -0.0000000  -0.0000000  -0.0000000  -0.0000000  -0.0000000
 NQMom=    0.0000000   0.0000000   0.0000000   0.0000000   0.0000000   0.0000000   0.0000000   0.0000000
 NMagM=    2.7928460   2.7928460   2.7928460   2.7928460   0.0000000   2.7928460   0.0000000   2.7928460
 AtZNuc=   1.0000000   1.0000000   1.0000000   1.0000000   8.0000000   1.0000000   8.0000000   1.0000000
 Leave Link  101 at Mon Jan 18 11:36:32 2021, MaxMem=  4026531840 cpu:               0.7 elap:               0.1
 (Enter /opt/ohpc/pub/libs/gaussian/g16-A.03/sandybridge/g16/l202.exe)
                          Input orientation:                          
 ---------------------------------------------------------------------
 Center     Atomic      Atomic             Coordinates (Angstroms)
 Number     Number       Type             X           Y           Z
 ---------------------------------------------------------------------
      1          6           0       -6.544630   -1.193879    0.127010
      2          6           0       -5.283469   -0.647909    0.131523
      3         16           0       -3.665919   -1.107322    1.042984
      4          6           0       -4.996815    0.486583   -0.537830
      5          6           0       -1.475687    0.036886    0.221747
      6          6           0       -1.772288   -1.094442    0.892846
      7          6           0       -7.517398   -0.549399   -0.618903
      8          6           0       -5.951198    1.159916   -1.262339
      9          1           0       -2.843406    1.345523   -1.332578
     10          6           0       -0.186077    0.430997   -0.028463
     11          6           0       -0.773630   -1.912541    1.366813
     12          6           0        0.536910   -1.552052    1.124661
     13          6           0        0.845585   -0.387156    0.425435
     14          1           0        0.045427    1.339810   -0.567415
     15          1           0       -0.986976   -2.816418    1.923251
     16          1           0        1.342687   -2.175375    1.484620
     17          6           0       -7.223748    0.615229   -1.306247
     18          1           0       -6.782458   -2.097666    0.673346
     19          1           0       -3.815781   -2.439410    0.928305
     20          1           0       -8.517553   -0.958288   -0.663525
     21          1           0       -5.730059    2.077989   -1.791552
     22          1           0       -7.997253    1.105431   -1.881471
     23         16           0       -3.166075    0.851646   -0.124057
     24          7           0        2.182887   -0.044483    0.184905
     25          6           0        3.146505   -1.044921   -0.067172
     26          6           0        4.392012   -0.989098    0.539344
     27          6           0        2.878694   -2.090316   -0.930362
     28          6           0        5.345494   -1.946131    0.285899
     29          6           0        3.822608   -3.066997   -1.170354
     30          6           0        5.062274   -2.995295   -0.567641
     31          1           0        4.612943   -0.174890    1.215121
     32          1           0        1.913696   -2.145516   -1.414069
     33          1           0        6.317156   -1.901598    0.755555
     34          1           0        3.591387   -3.881585   -1.845380
     35          6           0        2.575405    1.310294    0.123192
     36          6           0        3.391681    1.763268   -0.894977
     37          6           0        2.164040    2.211964    1.093710
     38          6           0        3.796835    3.081396   -0.942072
     39          6           0        2.544098    3.531176    1.038879
     40          6           0        3.368807    3.972023    0.020733
     41          1           0        3.723839    1.071840   -1.656403
     42          1           0        1.529535    1.868488    1.898614
     43          1           0        4.442764    3.415230   -1.744528
     44          1           0        2.220724    4.234697    1.791974
     45          8           0        3.726245    5.281320    0.019257
     46          1           0        4.294203    5.466041   -0.728132
     47          8           0        6.032969   -3.920806   -0.776143
     48          1           0        5.721078   -4.593785   -1.380389
 ---------------------------------------------------------------------
                    Distance matrix (angstroms):
                    1          2          3          4          5
     1  C    0.000000
     2  C    1.374275   0.000000
     3  S    3.022164   1.912666   0.000000
     4  C    2.379432   1.348064   2.609749   0.000000
     5  C    5.217082   3.869921   2.603989   3.630086   0.000000
     6  C    4.834422   3.620414   1.899617   3.865753   1.348425
     7  C    1.384925   2.358661   4.231671   2.726384   6.128025
     8  C    2.796927   2.378433   3.959467   1.374459   4.847051
     9  H    4.719960   3.474373   3.512303   2.450831   2.449309
    10  C    6.564723   5.212777   3.952686   4.837948   1.371504
    11  C    5.946262   4.843953   3.019698   5.217159   2.367346
    12  C    7.160433   5.973325   4.227083   6.127154   2.718552
    13  C    7.440103   6.141635   4.610171   5.985394   2.368460
    14  H    7.094410   5.730329   4.728206   5.114008   2.152713
    15  H    6.061900   5.135423   3.297365   5.748525   3.357871
    16  H    8.063263   6.933251   5.140225   7.166981   3.798971
    17  C    2.405888   2.725323   4.598284   2.359289   5.975739
    18  H    1.082532   2.154608   3.290931   3.366573   5.737776
    19  H    3.104841   2.449172   1.345388   3.479343   3.479555
    20  H    2.138428   3.344807   5.145166   3.807761   7.166726
    21  H    3.879372   3.365736   4.737243   2.154539   5.130220
    22  H    3.380967   3.806701   5.675312   3.345291   6.935138
    23  S    3.957504   2.607172   2.334392   1.912090   1.908095
    24  N    8.803069   7.490891   6.006202   7.235503   3.659664
    25  C    9.694225   8.441656   6.902569   8.299439   4.755885
    26  C   10.946328   9.690081   8.074521   9.564937   5.965183
    27  C    9.524740   8.356377   6.905963   8.295669   4.981263
    28  C   11.914956  10.709065   9.081979  10.656453   7.103871
    29  C   10.614676   9.511441   8.050915   9.529441   6.296345
    30  C   11.766387  10.631719   9.074134  10.644700   7.249979
    31  H   11.256721   9.966790   8.332984   9.790701   6.172767
    32  H    8.650076   7.512048   6.184421   7.446536   4.350482
    33  H   12.896568  11.684847  10.018746  11.635385   8.048048
    34  H   10.670189   9.650278   8.289009   9.723569   6.730726
    35  C    9.457586   8.099168   6.756109   7.645519   4.247661
    36  C   10.417267   9.062323   7.861660   8.492605   5.283819
    37  C    9.400809   8.035550   6.708849   7.544316   4.328845
    38  C   11.241299   9.874829   8.785130   9.177404   6.198629
    39  C   10.284096   8.919577   7.751128   8.283775   5.388547
    40  C   11.179180   9.809074   8.736825   9.079863   6.244584
    41  H   10.665622   9.342688   8.163575   8.811557   5.624380
    42  H    8.815260   7.474750   6.048164   7.102054   3.898462
    43  H   12.061068  10.706459   9.694041   9.956844   7.092779
    44  H   10.443801   9.105485   7.984405   8.459859   5.809534
    45  O   12.142104  10.786255   9.823790   9.969535   7.389532
    46  H   12.750141  11.395227  10.474230  10.542971   7.979325
    47  O   12.901466  11.815138  10.261254  11.880152   8.546287
    48  H   12.817145  11.787954  10.302615  11.890890   8.706514
                    6          7          8          9         10
     6  C    0.000000
     7  C    5.965630   0.000000
     8  C    5.214426   2.405982   0.000000
     9  H    3.471777   5.093747   3.114122   0.000000
    10  C    2.385758   7.420112   5.940572   3.098140   0.000000
    11  C    1.375227   7.160980   6.569600   4.710166   2.790015
    12  C    2.365489   8.301639   7.426176   5.085322   2.405180
    13  C    2.751724   8.429499   7.172048   4.438631   1.392740
    14  H    3.370761   7.795389   6.039436   2.988455   1.081667
    15  H    2.154913   7.365347   7.113559   5.600760   3.872510
    16  H    3.349878   9.250390   8.477659   6.152780   3.379307
    17  C    6.121879   1.383846   1.384917   4.440880   7.155102
    18  H    5.114337   2.146433   3.879396   5.603161   7.099219
    19  H    2.446643   4.434858   4.723778   4.514734   4.725399
    20  H    6.923830   1.081430   3.381057   6.160448   8.470355
    21  H    5.738838   3.387160   1.082510   3.013292   6.046222
    22  H    7.161457   2.136071   2.138372   5.188551   8.056238
    23  S    2.600768   4.598023   3.024504   1.344824   3.011058
    24  N    4.152951   9.746619   8.349157   5.431251   2.425613
    25  C    5.011847  10.689657   9.437051   6.572253   3.644988
    26  C    6.175326  11.973676  10.716637   7.829803   4.826797
    27  C    5.093867  10.514284   9.414946   6.686494   4.069799
    28  C    7.194205  12.970101  11.817776   8.972878   6.028917
    29  C    6.280974  11.629193  10.649063   7.995773   5.441455
    30  C    7.242755  12.815349  11.791732   9.051387   6.290896
    31  H    6.459149  12.273918  10.932547   8.024934   4.994416
    32  H    4.473599   9.598198   8.532612   5.901187   3.601023
    33  H    8.130772  13.968266  12.804580   9.940824   6.953253
    34  H    6.635892  11.662453  10.808219   8.306153   6.014049
    35  C    5.027679  10.289501   8.639749   5.611062   2.902059
    36  C    6.166798  11.154938   9.369545   6.264369   3.914862
    37  C    5.144642  10.212170   8.515566   5.631351   3.155022
    38  C    7.198589  11.886925   9.940765   6.874485   4.870614
    39  C    6.328417  10.983307   9.115291   6.279020   4.266636
    40  C    7.270523  11.805162   9.819201   6.879066   5.017817
    41  H    6.434195  11.404834   9.683459   6.580917   4.283493
    42  H    4.548907   9.696962   8.151998   5.462299   2.953529
    43  H    8.119098  12.650328  10.646755   7.585622   5.768596
    44  H    6.719546  11.114447   9.250049   6.614799   4.855390
    45  O    8.464477  12.681642  10.596290   7.776778   6.231707
    46  H    9.081290  13.255616  11.126380   8.263745   6.775995
    47  O    8.467343  13.964367  13.025758  10.336047   7.627172
    48  H    8.576919  13.863411  13.013879  10.422478   7.872142
                   11         12         13         14         15
    11  C    0.000000
    12  C    1.380618   0.000000
    13  C    2.415543   1.393262   0.000000
    14  H    3.871677   3.386376   2.146722   0.000000
    15  H    1.082651   2.135087   3.391614   4.954140   0.000000
    16  H    2.135827   1.080453   2.136986   4.272032   2.455741
    17  C    7.425557   8.416308   8.313702   7.342465   7.816853
    18  H    6.051544   7.353538   7.821403   7.744401   5.972142
    19  H    3.118423   4.446558   5.117906   5.606122   3.022282
    20  H    8.062333   9.248430   9.443536   8.866517   8.176408
    21  H    7.103928   7.807458   7.364174   5.949761   7.762204
    22  H    8.475862   9.430323   9.259882   8.152691   8.888239
    23  S    3.948065   4.587936   4.234382   3.278508   4.732297
    24  N    3.691550   2.421806   1.401305   2.655370   4.555601
    25  C    4.263395   2.913354   2.443266   3.943839   4.917891
    26  C    5.312373   3.939711   3.598952   5.053863   5.847034
    27  C    4.318343   3.161772   2.978669   4.463731   4.859397
    28  C    6.213951   4.897071   4.764352   6.294145   6.598371
    29  C    5.375443   4.284619   4.311700   5.835287   5.724096
    30  C    6.242775   5.042396   5.056585   6.630376   6.544461
    31  H    5.661944   4.303348   3.855081   5.131662   6.232031
    32  H    3.874184   2.948371   2.759795   4.044101   4.472327
    33  H    7.117092   5.802557   5.686880   7.182727   7.453238
    34  H    5.766168   4.855687   4.990698   6.439720   6.024829
    35  C    4.811371   3.653960   2.442328   2.622708   5.741126
    36  C    5.998090   4.818714   3.584748   3.388809   6.934592
    37  C    5.071098   4.100771   2.990040   2.829931   5.991800
    38  C    7.152587   6.030534   4.755082   4.152897   8.116596
    39  C    6.383488   5.465837   4.314462   3.691290   7.317277
    40  C    7.321189   6.305054   5.053006   4.280107   8.287059
    41  H    6.186565   4.977514   3.840191   3.845571   7.079848
    42  H    4.459099   3.644777   2.779564   2.926325   5.318062
    43  H    8.079378   6.939873   5.666266   5.002953   9.042572
    44  H    6.850945   6.063580   5.011982   4.321921   7.747567
    45  O    8.591648   7.621598   6.371405   5.424768   9.561015
    46  H    9.193215   8.173354   6.890834   5.924838  10.174469
    47  O    7.413176   6.279388   6.390573   7.972974   7.601712
    48  H    7.544363   6.511760   6.687837   8.251151   7.685770
                   16         17         18         19         20
    16  H    0.000000
    17  C    9.431872   0.000000
    18  H    8.165916   3.387230   0.000000
    19  H    5.195093   5.092964   2.997160   0.000000
    20  H   10.164653   2.136113   2.469000   5.180184   0.000000
    21  H    8.879648   2.146228   4.961790   5.609722   4.273353
    22  H   10.456038   1.081430   4.273482   6.159988   2.452150
    23  S    5.663888   4.232987   4.734186   3.515769   5.674963
    24  N    2.633609   9.546912   9.210404   6.501718  10.772850
    25  C    2.634339  10.575138  10.012040   7.170007  11.679614
    26  C    3.405757  11.870381  11.230123   8.344014  12.965520
    27  C    2.863336  10.465209   9.793354   6.956472  11.455441
    28  C    4.184728  12.925995  12.135085   9.197009  13.930589
    29  C    3.740840  11.644709  10.807694   7.946271  12.529290
    30  C    4.326589  12.826837  11.943344   9.020351  13.732090
    31  H    3.843064  12.128019  11.569172   8.732337  13.287323
    32  H    2.954546   9.546006   8.943304   6.196773  10.525388
    33  H    5.035060  13.926289  13.101339  10.148670  14.932254
    34  H    4.365399  11.725150  10.823262   8.039859  12.512748
    35  C    3.939920   9.927226   9.974290   7.453573  11.349850
    36  C    5.037238  10.685245  10.994524   8.540162  12.218441
    37  C    4.480644   9.820383   9.939288   7.577658  11.279840
    38  C    6.288507  11.299020  11.889226   9.587989  12.963055
    39  C    5.848658  10.460075  10.899639   8.724000  12.058756
    40  C    6.636161  11.190673  11.845472   9.672046  12.886494
    41  H    5.106889  10.962699  11.218546   8.709504  12.448249
    42  H    4.069291   9.405411   9.290903   6.933389  10.747055
    43  H    7.161895  12.005815  12.737494  10.470168  13.721007
    44  H    6.477225  10.578165  11.063789   9.040410  12.178143
    45  O    7.964354  11.976298  12.857298  10.831352  13.758978
    46  H    8.485220  12.511107  13.485779  11.446038  14.332385
    47  O    5.491477  14.021311  13.025361  10.104333  14.849474
    48  H    5.764312  13.953775  12.914598  10.046048  14.712897
                   21         22         23         24         25
    21  H    0.000000
    22  H    2.468628   0.000000
    23  S    3.295219   5.147154   0.000000
    24  N    8.427692  10.451194   5.432301   0.000000
    25  C    9.566579  11.493435   6.591576   1.411729   0.000000
    26  C   10.830347  12.796143   7.807248   2.428612   1.386458
    27  C    9.603491  11.375572   6.770857   2.431748   1.381908
    28  C   11.965668  13.857793   8.968970   3.691686   2.402580
    29  C   10.867852  12.554838   8.080358   3.696079   2.400608
    30  C   11.987936  13.751122   9.094034   4.191001   2.779316
    31  H   11.004237  13.047802   7.959918   2.642636   2.133464
    32  H    8.741137  10.440978   6.037482   2.653963   2.131961
    33  H   12.940644  14.862652   9.913916   4.568008   3.385824
    34  H   11.063850  12.616188   8.427913   4.563911   3.377367
    35  C    8.557823  10.762980   5.765074   1.411843   2.430932
    36  C    9.171098  11.450491   6.665548   2.428022   2.937907
    37  C    8.405920  10.645562   5.634141   2.432660   3.594466
    38  C    9.617180  11.995308   7.356837   3.694053   4.267888
    39  C    8.864805  11.204140   6.413921   3.693925   4.746252
    40  C    9.468955  11.875313   7.243093   4.191143   5.022636
    41  H    9.508248  11.723301   7.061691   2.647853   2.709178
    42  H    8.146344  10.277694   5.212861   2.650118   3.868702
    43  H   10.260446  12.653377   8.190990   4.560633   4.938295
    44  H    8.983763  11.300157   6.643328   4.571158   5.673435
    45  O   10.147021  12.589330   8.194304   5.547393   6.353337
    46  H   10.634641  13.092937   8.792798   5.971362   6.644299
    47  O   13.243316  14.944294  10.383830   5.547308   4.135823
    48  H   13.259342  14.863538  10.498218   5.972026   4.576833
                   26         27         28         29         30
    26  C    0.000000
    27  C    2.379674   0.000000
    28  C    1.374509   2.754121   0.000000
    29  C    2.750446   1.379303   2.386670   0.000000
    30  C    2.387361   2.391354   1.381843   1.380281   0.000000
    31  H    1.080935   3.358508   2.130112   3.831371   3.366723
    32  H    3.360830   1.080852   3.834955   2.133652   3.369289
    33  H    2.141397   3.834182   1.080133   3.360067   2.126441
    34  H    3.833326   2.133971   3.371235   1.082902   2.140476
    35  C    2.959805   3.572969   4.278337   4.731749   5.019947
    36  C    3.260898   3.887739   4.355628   4.857262   5.053905
    37  C    3.939287   4.808036   5.297543   5.978651   6.186711
    38  C    4.372385   5.252592   5.402063   6.152683   6.218336
    39  C    4.908890   5.965822   6.198039   7.074686   7.177530
    40  C    5.092016   6.156033   6.245170   7.153490   7.194271
    41  H    3.084676   3.352706   3.938331   4.168449   4.417963
    42  H    4.266988   5.049303   5.631493   6.247860   6.497618
    43  H    4.961527   5.781022   5.803598   6.537089   6.547036
    44  H    5.794101   6.917357   7.087671   8.040905   8.118804
    45  O    6.327075   7.480718   7.411418   8.433200   8.404271
    46  H    6.579125   7.690455   7.554718   8.557494   8.497641
    47  O    3.608068   3.650196   2.345186   2.402101   1.357311
    48  H    4.294829   3.814319   3.150817   2.445278   1.910432
                   31         32         33         34         35
    31  H    0.000000
    32  H    4.252287   0.000000
    33  H    2.469223   4.915000   0.000000
    34  H    4.914248   2.452471   4.256175   0.000000
    35  C    2.747661   3.839746   4.971603   5.644741   0.000000
    36  C    3.114555   4.210996   4.971308   5.727784   1.381362
    37  C    3.421833   5.033812   5.855264   6.914254   1.387132
    38  C    3.990352   5.575805   5.836453   7.024335   2.400725
    39  C    4.248071   6.216043   6.620519   8.022767   2.402453
    40  C    4.491250   6.449829   6.613029   8.075338   2.779350
    41  H    3.254304   3.699557   4.624302   4.958798   2.131366
    42  H    3.761643   5.218590   6.200117   7.164640   2.134841
    43  H    4.655904   6.117784   6.167043   7.347008   3.377301
    44  H    5.049745   7.147034   7.450439   8.999061   3.385671
    45  O    5.655665   7.778024   7.671327   9.351678   4.135732
    46  H    5.974774   8.004569   7.783044   9.440355   4.577035
    47  O    4.473644   4.530675   2.550306   2.665732   6.334663
    48  H    5.243212   4.526733   3.487899   2.293257   6.856687
                   36         37         38         39         40
    36  C    0.000000
    37  C    2.379770   0.000000
    38  C    1.379793   2.750698   0.000000
    39  C    2.753851   1.373962   2.386591   0.000000
    40  C    2.391160   2.387583   1.379644   1.382430   0.000000
    41  H    1.080820   3.360949   2.133990   3.834667   3.368960
    42  H    3.358989   1.080945   3.831617   2.129088   3.366633
    43  H    2.134360   3.833540   1.082869   3.371310   2.139988
    44  H    3.833902   2.140615   3.359946   1.080123   2.127061
    45  O    3.650267   3.607753   2.401833   2.345230   1.357211
    46  H    3.814828   4.294848   2.445338   3.151015   1.910300
    47  O    6.268909   7.488380   7.352459   8.426064   8.368364
    48  H    6.787771   8.067955   7.924849   9.053234   8.992741
                   41         42         43         44         45
    41  H    0.000000
    42  H    4.252971   0.000000
    43  H    2.452773   4.914448   0.000000
    44  H    4.914705   2.467399   4.256270   0.000000
    45  O    4.530735   4.472688   2.665826   2.550400   0.000000
    46  H    4.527251   5.242668   2.293678   3.488045   0.956707
    47  O    5.570768   7.807123   7.568616   9.361659   9.520124
    48  H    6.013689   8.371491   8.118559  10.012915  10.171336
                   46         47         48
    46  H    0.000000
    47  O    9.546649   0.000000
    48  H   10.181430   0.956708   0.000000
 Stoichiometry    C24H19NO2S2(1+,2)
 Framework group  C1[X(C24H19NO2S2)]
 Deg. of freedom   138
 Full point group                 C1      NOp   1
 Largest Abelian subgroup         C1      NOp   1
 Largest concise Abelian subgroup C1      NOp   1
                         Standard orientation:                         
 ---------------------------------------------------------------------
 Center     Atomic      Atomic             Coordinates (Angstroms)
 Number     Number       Type             X           Y           Z
 ---------------------------------------------------------------------
      1          6           0        6.544630   -1.193879   -0.127010
      2          6           0        5.283469   -0.647909   -0.131523
      3         16           0        3.665919   -1.107322   -1.042984
      4          6           0        4.996815    0.486583    0.537830
      5          6           0        1.475687    0.036886   -0.221747
      6          6           0        1.772288   -1.094442   -0.892846
      7          6           0        7.517398   -0.549399    0.618903
      8          6           0        5.951198    1.159916    1.262339
      9          1           0        2.843406    1.345523    1.332578
     10          6           0        0.186077    0.430997    0.028463
     11          6           0        0.773630   -1.912541   -1.366813
     12          6           0       -0.536910   -1.552052   -1.124661
     13          6           0       -0.845585   -0.387156   -0.425435
     14          1           0       -0.045427    1.339810    0.567415
     15          1           0        0.986976   -2.816418   -1.923251
     16          1           0       -1.342687   -2.175375   -1.484620
     17          6           0        7.223748    0.615229    1.306247
     18          1           0        6.782458   -2.097666   -0.673346
     19          1           0        3.815781   -2.439410   -0.928305
     20          1           0        8.517553   -0.958288    0.663525
     21          1           0        5.730059    2.077989    1.791552
     22          1           0        7.997253    1.105431    1.881471
     23         16           0        3.166075    0.851646    0.124057
     24          7           0       -2.182887   -0.044483   -0.184905
     25          6           0       -3.146505   -1.044921    0.067172
     26          6           0       -4.392012   -0.989098   -0.539344
     27          6           0       -2.878694   -2.090316    0.930362
     28          6           0       -5.345494   -1.946131   -0.285899
     29          6           0       -3.822608   -3.066997    1.170354
     30          6           0       -5.062274   -2.995295    0.567641
     31          1           0       -4.612943   -0.174890   -1.215121
     32          1           0       -1.913696   -2.145516    1.414069
     33          1           0       -6.317156   -1.901598   -0.755555
     34          1           0       -3.591387   -3.881585    1.845380
     35          6           0       -2.575405    1.310294   -0.123192
     36          6           0       -3.391681    1.763268    0.894977
     37          6           0       -2.164040    2.211964   -1.093710
     38          6           0       -3.796835    3.081396    0.942072
     39          6           0       -2.544098    3.531176   -1.038879
     40          6           0       -3.368807    3.972023   -0.020733
     41          1           0       -3.723839    1.071840    1.656403
     42          1           0       -1.529535    1.868488   -1.898614
     43          1           0       -4.442764    3.415230    1.744528
     44          1           0       -2.220724    4.234697   -1.791974
     45          8           0       -3.726245    5.281320   -0.019257
     46          1           0       -4.294203    5.466041    0.728132
     47          8           0       -6.032969   -3.920806    0.776143
     48          1           0       -5.721078   -4.593785    1.380389
 ---------------------------------------------------------------------
 Rotational constants (GHZ):           0.2280536           0.0702108           0.0568934
 Leave Link  202 at Mon Jan 18 11:36:32 2021, MaxMem=  4026531840 cpu:               0.3 elap:               0.1
 (Enter /opt/ohpc/pub/libs/gaussian/g16-A.03/sandybridge/g16/l301.exe)
 Standard basis: TZVP (5D, 7F)
 Ernie: Thresh=  0.10000D-02 Tol=  0.10000D-05 Strict=F.
 There are   700 symmetry adapted cartesian basis functions of A   symmetry.
 There are   671 symmetry adapted basis functions of A   symmetry.
   671 basis functions,  1191 primitive gaussians,   700 cartesian basis functions
   109 alpha electrons      108 beta electrons
       nuclear repulsion energy      2827.2462800785 Hartrees.
 IExCor=33909 DFT=T Ex+Corr=LC-wHPBE ExCW=0 ScaHFX=  1.000000
 ScaDFX=  1.000000  1.000000  1.000000  1.000000 ScalE2=  1.000000  1.000000
 IRadAn=      5 IRanWt=     -1 IRanGd=            0 ICorTp=0 IEmpDi=  4
 HFx  wShort=  0.000000 wLong=  0.181300 cFull=  0.000000 cShort=  0.000000 cLong=  1.000000
 DFx  wShort=  0.000000 wLong=  0.181300 cFull=  0.000000 cShort=  1.000000 cLong=  0.000000
 NAtoms=   48 NActive=   48 NUniq=   48 SFac= 1.00D+00 NAtFMM=   60 NAOKFM=F Big=F
 Integral buffers will be    131072 words long.
 Raffenetti 2 integral format.
 Two-electron integral symmetry is turned on.
 Leave Link  301 at Mon Jan 18 11:36:32 2021, MaxMem=  4026531840 cpu:               0.4 elap:               0.1
 (Enter /opt/ohpc/pub/libs/gaussian/g16-A.03/sandybridge/g16/l302.exe)
 NPDir=0 NMtPBC=     1 NCelOv=     1 NCel=       1 NClECP=     1 NCelD=      1
         NCelK=      1 NCelE2=     1 NClLst=     1 CellRange=     0.0.
 One-electron integrals computed using PRISM.
 One-electron integral symmetry used in STVInt
 NBasis=   671 RedAO= T EigKep=  6.34D-06  NBF=   671
 NBsUse=   671 1.00D-06 EigRej= -1.00D+00 NBFU=   671
 Precomputing XC quadrature grid using
 IXCGrd= 4 IRadAn=           5 IRanWt=          -1 IRanGd=           0 AccXCQ= 0.00D+00.
 Generated NRdTot=       0 NPtTot=           0 NUsed=           0 NTot=          32
 NSgBfM=   657   657   657   657   657 MxSgAt=    48 MxSgA2=    48.
 Leave Link  302 at Mon Jan 18 11:36:34 2021, MaxMem=  4026531840 cpu:              10.2 elap:               1.3
 (Enter /opt/ohpc/pub/libs/gaussian/g16-A.03/sandybridge/g16/l303.exe)
 DipDrv:  MaxL=1.
 Leave Link  303 at Mon Jan 18 11:36:34 2021, MaxMem=  4026531840 cpu:               0.8 elap:               0.1
 (Enter /opt/ohpc/pub/libs/gaussian/g16-A.03/sandybridge/g16/l401.exe)
 ExpMin= 9.52D-02 ExpMax= 6.07D+04 ExpMxC= 2.07D+03 IAcc=3 IRadAn=         5 AccDes= 0.00D+00
 Harris functional with IExCor=33909 and IRadAn=       5 diagonalized for initial guess.
 HarFok:  IExCor=33909 AccDes= 0.00D+00 IRadAn=         5 IDoV= 1 UseB2=F ITyADJ=14
 ICtDFT=  3500011 ScaDFX=  1.000000  1.000000  1.000000  1.000000
 FoFCou: FMM=F IPFlag=           0 FMFlag=      100000 FMFlg1=           0
         NFxFlg=           0 DoJE=T BraDBF=F KetDBF=T FulRan=T
         wScrn=  0.000000 ICntrl=       500 IOpCl=  0 I1Cent=   200000004 NGrid=           0
         NMat0=    1 NMatS0=      1 NMatT0=    0 NMatD0=    1 NMtDS0=    0 NMtDT0=    0
 Petite list used in FoFCou.
 Harris En= -1905.07321599113    
 JPrj=0 DoOrth=F DoCkMO=F.
 Initial guess <Sx>= 0.0000 <Sy>= 0.0000 <Sz>= 0.5000 <S**2>= 0.7500 S= 0.5000
 Leave Link  401 at Mon Jan 18 11:36:41 2021, MaxMem=  4026531840 cpu:              57.3 elap:               7.2
 (Enter /opt/ohpc/pub/libs/gaussian/g16-A.03/sandybridge/g16/l502.exe)
 Integral symmetry usage will be decided dynamically.
 UHF open shell SCF:
 Using DIIS extrapolation, IDIIS=    10.
 NGot=  4026531840 LenX=  4025539370 LenY=  4025048670
 Requested convergence on RMS density matrix=1.00D-06 within  32 cycles.
 Requested convergence on MAX density matrix=1.00D-04.
 Requested convergence on             energy=1.00D-04.
 Virtual orbitals will be shifted by   0.500 hartree.
 No special actions if energy rises.
 Dynamic level shift is on during FON iterations.

 Cycle   1  Pass 1  IDiag  1:
 FoFJK:  IHMeth= 1 ICntrl=       0 DoSepK=T KAlg= 0 I1Cent=           0 FoldK=F
 IRaf=         1 NMat=       1 IRICut=       1 DoRegI=T DoRafI=F ISym2E= 0 IDoP0=0 IntGTp=1.
 FoFCou: FMM=F IPFlag=           0 FMFlag=      100000 FMFlg1=           0
         NFxFlg=           0 DoJE=T BraDBF=F KetDBF=F FulRan=T
         wScrn=  0.000000 ICntrl=       500 IOpCl=  0 I1Cent=           0 NGrid=           0
         NMat0=    1 NMatS0=      1 NMatT0=    0 NMatD0=    1 NMtDS0=    0 NMtDT0=    0
 Symmetry not used in FoFCou.
 E= -1925.53208585421    
 DIIS: error= 1.97D-02 at cycle   1 NSaved=   1.
 NSaved= 1 IEnMin= 1 EnMin= -1925.53208585421     IErMin= 1 ErrMin= 1.97D-02
 ErrMax= 1.97D-02  0.00D+00 EMaxC= 1.00D+00 BMatC= 2.68D+00 BMatP= 2.68D+00
 IDIUse=1 WtCom= 1.00D+00 WtEn= 0.00D+00
 Coeff-Com:  0.100D+01
 Coeff:      0.100D+01
 Gap=     0.516 Goal=   None    Shift=    0.500
 T= 1242. Gap= 0.526 NK=0 IS=  110 IE=  671 IFin=  109
          NO(<0.9)=   0  NV(>0.1)=   0    109.00e < EF      0.00e >EF  Err=0.0D+00
 Gap=    -0.018 Goal=   None    Shift=    0.500
 T= 1242. Gap= 0.416 NK=0 IS=  109 IE=  671 IFin=  108
          NO(<0.9)=   0  NV(>0.1)=   0    108.00e < EF      0.00e >EF  Err=0.0D+00
 GapD=   -0.018 DampG=0.250 DampE=0.500 DampFc=0.1250 IDamp=-1.
 Damping current iteration by 1.25D-01
 RMSDP=4.25D-03 MaxDP=3.81D-01              OVMax= 1.04D-01

 Cycle   2  Pass 1  IDiag  1:
 E= -1925.66181163601     Delta-E=       -0.129725781799 Rises=F Damp=T
 DIIS: error= 1.69D-02 at cycle   2 NSaved=   2.
 NSaved= 2 IEnMin= 2 EnMin= -1925.66181163601     IErMin= 2 ErrMin= 1.69D-02
 ErrMax= 1.69D-02  0.00D+00 EMaxC= 1.00D+00 BMatC= 1.87D+00 BMatP= 2.68D+00
 IDIUse=1 WtCom= 1.00D+00 WtEn= 0.00D+00
 Coeff-Com: -0.478D+01 0.578D+01
 Coeff:     -0.478D+01 0.578D+01
 Gap=     0.214 Goal=   None    Shift=    0.500
 T= 1214. Gap= 0.688 NK=4 IS=  110 IE=  120 IFin=  109
          NO(<0.9)=   0  NV(>0.1)=   0    109.00e < EF      0.00e >EF  Err=0.0D+00
 Gap=     0.077 Goal=   None    Shift=    0.500
 T= 1214. Gap= 0.558 NK=4 IS=  109 IE=  120 IFin=  108
          NO(<0.9)=   0  NV(>0.1)=   0    108.00e < EF      0.00e >EF  Err=0.0D+00
 GapD=    0.077 DampG=0.500 DampE=0.500 DampFc=0.2500 IDamp=-1.
 Damping current iteration by 2.50D-01
 RMSDP=3.47D-03 MaxDP=3.28D-01 DE=-1.30D-01 OVMax= 2.71D-02

 Cycle   3  Pass 1  IDiag  1:
 E= -1925.84357988809     Delta-E=       -0.181768252082 Rises=F Damp=T
 DIIS: error= 1.23D-02 at cycle   3 NSaved=   3.
 NSaved= 3 IEnMin= 3 EnMin= -1925.84357988809     IErMin= 3 ErrMin= 1.23D-02
 ErrMax= 1.23D-02  0.00D+00 EMaxC= 1.00D+00 BMatC= 9.63D-01 BMatP= 1.87D+00
 IDIUse=1 WtCom= 1.00D+00 WtEn= 0.00D+00
 Coeff-Com:  0.124D+00-0.273D+01 0.360D+01
 Coeff:      0.124D+00-0.273D+01 0.360D+01
 Gap=     0.217 Goal=   None    Shift=    0.500
 T= 1130. Gap= 0.715 NK=4 IS=  110 IE=  121 IFin=  109
          NO(<0.9)=   0  NV(>0.1)=   0    109.00e < EF      0.00e >EF  Err=0.0D+00
 Gap=     0.082 Goal=   None    Shift=    0.500
 T= 1130. Gap= 0.581 NK=4 IS=  109 IE=  121 IFin=  108
          NO(<0.9)=   0  NV(>0.1)=   0    108.00e < EF      0.00e >EF  Err=0.0D+00
 GapD=    0.082 DampG=0.500 DampE=0.500 DampFc=0.2500 IDamp=-1.
 Damping current iteration by 2.50D-01
 RMSDP=2.44D-03 MaxDP=2.17D-01 DE=-1.82D-01 OVMax= 1.49D-02

 Cycle   4  Pass 1  IDiag  1:
 E= -1925.95317045433     Delta-E=       -0.109590566240 Rises=F Damp=T
 DIIS: error= 9.24D-03 at cycle   4 NSaved=   4.
 NSaved= 4 IEnMin= 4 EnMin= -1925.95317045433     IErMin= 4 ErrMin= 9.24D-03
 ErrMax= 9.24D-03  0.00D+00 EMaxC= 1.00D+00 BMatC= 5.19D-01 BMatP= 9.63D-01
 IDIUse=1 WtCom= 1.00D+00 WtEn= 0.00D+00
 Coeff-Com:  0.498D+00-0.731D+00-0.269D+01 0.393D+01
 Coeff:      0.498D+00-0.731D+00-0.269D+01 0.393D+01
 Gap=     0.218 Goal=   None    Shift=    0.500
 T=  986. Gap= 0.717 NK=4 IS=  110 IE=  121 IFin=  109
          NO(<0.9)=   0  NV(>0.1)=   0    109.00e < EF      0.00e >EF  Err=0.0D+00
 Gap=     0.083 Goal=   None    Shift=    0.500
 T=  986. Gap= 0.583 NK=4 IS=  109 IE=  121 IFin=  108
          NO(<0.9)=   0  NV(>0.1)=   0    108.00e < EF      0.00e >EF  Err=0.0D+00
 GapD=    0.083 DampG=0.500 DampE=1.000 DampFc=0.5000 IDamp=-1.
 Damping current iteration by 5.00D-01
 RMSDP=1.74D-03 MaxDP=1.38D-01 DE=-1.10D-01 OVMax= 1.35D-02

 Cycle   5  Pass 1  IDiag  1:
 E= -1926.08710304762     Delta-E=       -0.133932593284 Rises=F Damp=T
 DIIS: error= 4.78D-03 at cycle   5 NSaved=   5.
 NSaved= 5 IEnMin= 5 EnMin= -1926.08710304762     IErMin= 5 ErrMin= 4.78D-03
 ErrMax= 4.78D-03  0.00D+00 EMaxC= 1.00D+00 BMatC= 1.24D-01 BMatP= 5.19D-01
 IDIUse=1 WtCom= 1.00D+00 WtEn= 0.00D+00
 Coeff-Com:  0.534D-01 0.320D+00-0.658D+00-0.897D+00 0.218D+01
 Coeff:      0.534D-01 0.320D+00-0.658D+00-0.897D+00 0.218D+01
 Gap=     0.220 Goal=   None    Shift=    0.500
 T=  759. Gap= 0.720 NK=4 IS=  110 IE=  121 IFin=  109
          NO(<0.9)=   0  NV(>0.1)=   0    109.00e < EF      0.00e >EF  Err=0.0D+00
 Gap=     0.085 Goal=   None    Shift=    0.500
 T=  759. Gap= 0.585 NK=4 IS=  109 IE=  121 IFin=  108
          NO(<0.9)=   0  NV(>0.1)=   0    108.00e < EF      0.00e >EF  Err=0.0D+00
 GapD=    0.085 DampG=0.500 DampE=1.000 DampFc=0.5000 IDamp=-1.
 Damping current iteration by 5.00D-01
 RMSDP=8.47D-04 MaxDP=5.98D-02 DE=-1.34D-01 OVMax= 1.32D-02

 Cycle   6  Pass 1  IDiag  1:
 E= -1926.14243803492     Delta-E=       -0.055334987306 Rises=F Damp=T
 DIIS: error= 2.58D-03 at cycle   6 NSaved=   6.
 NSaved= 6 IEnMin= 6 EnMin= -1926.14243803492     IErMin= 6 ErrMin= 2.58D-03
 ErrMax= 2.58D-03  0.00D+00 EMaxC= 1.00D+00 BMatC= 3.07D-02 BMatP= 1.24D-01
 IDIUse=1 WtCom= 1.00D+00 WtEn= 0.00D+00
 Coeff-Com: -0.590D-01 0.187D+00 0.944D-01-0.128D+00-0.178D+01 0.268D+01
 Coeff:     -0.590D-01 0.187D+00 0.944D-01-0.128D+00-0.178D+01 0.268D+01
 Gap=     0.223 Goal=   None    Shift=    0.500
 T=  482. Gap= 0.723 NK=4 IS=  110 IE=  121 IFin=  109
          NO(<0.9)=   0  NV(>0.1)=   0    109.00e < EF      0.00e >EF  Err=0.0D+00
 Gap=     0.087 Goal=   None    Shift=    0.500
 T=  482. Gap= 0.587 NK=4 IS=  109 IE=  121 IFin=  108
          NO(<0.9)=   0  NV(>0.1)=   0    108.00e < EF      0.00e >EF  Err=0.0D+00
 GapD=    0.087 DampG=0.500 DampE=1.000 DampFc=0.5000 IDamp=-1.
 Damping current iteration by 5.00D-01
 RMSDP=4.33D-04 MaxDP=2.82D-02 DE=-5.53D-02 OVMax= 1.28D-02

 Cycle   7  Pass 1  IDiag  1:
 E= -1926.16765220021     Delta-E=       -0.025214165285 Rises=F Damp=T
 DIIS: error= 1.97D-03 at cycle   7 NSaved=   7.
 NSaved= 7 IEnMin= 7 EnMin= -1926.16765220021     IErMin= 7 ErrMin= 1.97D-03
 ErrMax= 1.97D-03  0.00D+00 EMaxC= 1.00D+00 BMatC= 7.82D-03 BMatP= 3.07D-02
 IDIUse=1 WtCom= 1.00D+00 WtEn= 0.00D+00
 Coeff-Com: -0.144D-01-0.104D+00 0.273D+00 0.352D+00-0.707D+00-0.241D+01
 Coeff-Com:  0.361D+01
 Coeff:     -0.144D-01-0.104D+00 0.273D+00 0.352D+00-0.707D+00-0.241D+01
 Coeff:      0.361D+01
 Gap=     0.225 Goal=   None    Shift=    0.500
 T=  137. Gap= 0.725 NK=4 IS=  110 IE=  121 IFin=  109
          NO(<0.9)=   0  NV(>0.1)=   0    109.00e < EF      0.00e >EF  Err=0.0D+00
 Gap=     0.088 Goal=   None    Shift=    0.500
 T=  137. Gap= 0.588 NK=4 IS=  109 IE=  121 IFin=  108
          NO(<0.9)=   0  NV(>0.1)=   0    108.00e < EF      0.00e >EF  Err=0.0D+00
 GapD=    0.088 DampG=0.500 DampE=1.000 DampFc=0.5000 IDamp=-1.
 Damping current iteration by 5.00D-01
 RMSDP=2.52D-04 MaxDP=1.43D-02 DE=-2.52D-02 OVMax= 1.43D-02

 Cycle   8  Pass 1  IDiag  1:
 E= -1926.17983995283     Delta-E=       -0.012187752620 Rises=F Damp=T
 DIIS: error= 1.83D-03 at cycle   8 NSaved=   8.
 NSaved= 8 IEnMin= 8 EnMin= -1926.17983995283     IErMin= 8 ErrMin= 1.83D-03
 ErrMax= 1.83D-03  0.00D+00 EMaxC= 1.00D+00 BMatC= 2.14D-03 BMatP= 7.82D-03
 IDIUse=1 WtCom= 1.00D+00 WtEn= 0.00D+00
 Coeff-Com:  0.188D-01-0.126D+00 0.117D+00 0.152D+00 0.655D+00-0.234D+01
 Coeff-Com: -0.366D+00 0.289D+01
 Coeff:      0.188D-01-0.126D+00 0.117D+00 0.152D+00 0.655D+00-0.234D+01
 Coeff:     -0.366D+00 0.289D+01
 Gap=     0.227 Goal=   None    Shift=    0.500
 Gap=     0.089 Goal=   None    Shift=    0.500
 GapD=    0.089 DampG=0.500 DampE=1.000 DampFc=0.5000 IDamp=-1.
 Damping current iteration by 5.00D-01
 RMSDP=1.77D-04 MaxDP=1.24D-02 DE=-1.22D-02 OVMax= 1.45D-02

 Cycle   9  Pass 1  IDiag  1:
 E= -1926.18597159271     Delta-E=       -0.006131639881 Rises=F Damp=T
 DIIS: error= 1.76D-03 at cycle   9 NSaved=   9.
 NSaved= 9 IEnMin= 9 EnMin= -1926.18597159271     IErMin= 9 ErrMin= 1.76D-03
 ErrMax= 1.76D-03  0.00D+00 EMaxC= 1.00D+00 BMatC= 6.82D-04 BMatP= 2.14D-03
 IDIUse=1 WtCom= 1.00D+00 WtEn= 0.00D+00
 Coeff-Com: -0.405D-03-0.923D-02 0.158D-01-0.576D-01 0.424D+00-0.383D+00
 Coeff-Com: -0.539D+00-0.145D+01 0.300D+01
 Coeff:     -0.405D-03-0.923D-02 0.158D-01-0.576D-01 0.424D+00-0.383D+00
 Coeff:     -0.539D+00-0.145D+01 0.300D+01
 Gap=     0.228 Goal=   None    Shift=    0.500
 Gap=     0.089 Goal=   None    Shift=    0.500
 GapD=    0.089 DampG=0.500 DampE=1.000 DampFc=0.5000 IDamp=-1.
 Damping current iteration by 5.00D-01
 RMSDP=1.37D-04 MaxDP=1.24D-02 DE=-6.13D-03 OVMax= 1.42D-02

 Cycle  10  Pass 1  IDiag  1:
 E= -1926.18916079812     Delta-E=       -0.003189205414 Rises=F Damp=T
 DIIS: error= 1.72D-03 at cycle  10 NSaved=  10.
 NSaved=10 IEnMin=10 EnMin= -1926.18916079812     IErMin=10 ErrMin= 1.72D-03
 ErrMax= 1.72D-03  0.00D+00 EMaxC= 1.00D+00 BMatC= 2.85D-04 BMatP= 6.82D-04
 IDIUse=1 WtCom= 1.00D+00 WtEn= 0.00D+00
 Coeff-Com: -0.173D-01 0.374D-01 0.479D-01-0.156D-01-0.596D+00 0.100D+01
 Coeff-Com:  0.600D+00-0.871D+00-0.426D+01 0.507D+01
 Coeff:     -0.173D-01 0.374D-01 0.479D-01-0.156D-01-0.596D+00 0.100D+01
 Coeff:      0.600D+00-0.871D+00-0.426D+01 0.507D+01
 Gap=     0.231 Goal=   None    Shift=    0.500
 Gap=     0.090 Goal=   None    Shift=    0.500
 GapD=    0.090 DampG=0.500 DampE=1.000 DampFc=0.5000 IDamp=-1.
 Damping current iteration by 5.00D-01
 RMSDP=1.23D-04 MaxDP=1.18D-02 DE=-3.19D-03 OVMax= 1.57D-02

 Cycle  11  Pass 1  IDiag  1:
 E= -1926.19089499798     Delta-E=       -0.001734199860 Rises=F Damp=T
 DIIS: error= 1.73D-03 at cycle  11 NSaved=  11.
 NSaved=11 IEnMin=11 EnMin= -1926.19089499798     IErMin=10 ErrMin= 1.72D-03
 ErrMax= 1.73D-03  0.00D+00 EMaxC= 1.00D+00 BMatC= 1.74D-04 BMatP= 2.85D-04
 IDIUse=1 WtCom= 1.00D+00 WtEn= 0.00D+00
 Coeff-Com: -0.195D-01 0.224D-01 0.106D+00-0.100D-01-0.797D+00 0.108D+01
 Coeff-Com:  0.648D+00 0.437D-01-0.482D+01 0.318D+01 0.157D+01
 Coeff:     -0.195D-01 0.224D-01 0.106D+00-0.100D-01-0.797D+00 0.108D+01
 Coeff:      0.648D+00 0.437D-01-0.482D+01 0.318D+01 0.157D+01
 Gap=     0.232 Goal=   None    Shift=    0.500
 Gap=     0.091 Goal=   None    Shift=    0.500
 GapD=    0.091 DampG=0.500 DampE=1.000 DampFc=0.5000 IDamp=-1.
 Damping current iteration by 5.00D-01
 RMSDP=1.07D-04 MaxDP=9.84D-03 DE=-1.73D-03 OVMax= 1.48D-02

 Cycle  12  Pass 1  IDiag  1:
 E= -1926.19189666971     Delta-E=       -0.001001671724 Rises=F Damp=T
 DIIS: error= 1.72D-03 at cycle  12 NSaved=  12.
 NSaved=12 IEnMin=12 EnMin= -1926.19189666971     IErMin=12 ErrMin= 1.72D-03
 ErrMax= 1.72D-03  0.00D+00 EMaxC= 1.00D+00 BMatC= 1.36D-04 BMatP= 1.74D-04
 IDIUse=1 WtCom= 1.00D+00 WtEn= 0.00D+00
 Coeff-Com: -0.132D-01-0.174D-01 0.136D+00 0.122D-01-0.396D+00-0.920D-01
 Coeff-Com:  0.615D+00 0.110D+01-0.218D+01 0.124D+01-0.383D+01 0.444D+01
 Coeff:     -0.132D-01-0.174D-01 0.136D+00 0.122D-01-0.396D+00-0.920D-01
 Coeff:      0.615D+00 0.110D+01-0.218D+01 0.124D+01-0.383D+01 0.444D+01
 Gap=     0.234 Goal=   None    Shift=    0.500
 Gap=     0.091 Goal=   None    Shift=    0.500
 GapD=    0.091 DampG=0.500 DampE=1.000 DampFc=0.5000 IDamp=-1.
 Damping current iteration by 5.00D-01
 RMSDP=1.03D-04 MaxDP=8.26D-03 DE=-1.00D-03 OVMax= 1.59D-02

 Cycle  13  Pass 1  IDiag  1:
 E= -1926.19253132180     Delta-E=       -0.000634652093 Rises=F Damp=T
 DIIS: error= 1.73D-03 at cycle  13 NSaved=  13.
 NSaved=13 IEnMin=13 EnMin= -1926.19253132180     IErMin=12 ErrMin= 1.72D-03
 ErrMax= 1.73D-03  0.00D+00 EMaxC= 1.00D+00 BMatC= 1.24D-04 BMatP= 1.36D-04
 IDIUse=1 WtCom= 1.00D+00 WtEn= 0.00D+00
 Coeff-Com: -0.130D-01-0.168D-01 0.132D+00 0.111D-01-0.362D+00-0.136D+00
 Coeff-Com:  0.578D+00 0.107D+01-0.196D+01 0.129D+01-0.396D+01 0.400D+01
 Coeff-Com:  0.380D+00
 Coeff:     -0.130D-01-0.168D-01 0.132D+00 0.111D-01-0.362D+00-0.136D+00
 Coeff:      0.578D+00 0.107D+01-0.196D+01 0.129D+01-0.396D+01 0.400D+01
 Coeff:      0.380D+00
 Gap=     0.235 Goal=   None    Shift=    0.500
 Gap=     0.092 Goal=   None    Shift=    0.500
 GapD=    0.092 DampG=0.500 DampE=1.000 DampFc=0.5000 IDamp=-1.
 Damping current iteration by 5.00D-01
 RMSDP=8.77D-05 MaxDP=6.28D-03 DE=-6.35D-04 OVMax= 1.37D-02

 Cycle  14  Pass 1  IDiag  1:
 E= -1926.19296893086     Delta-E=       -0.000437609056 Rises=F Damp=T
 DIIS: error= 1.73D-03 at cycle  14 NSaved=  14.
 NSaved=14 IEnMin=14 EnMin= -1926.19296893086     IErMin=12 ErrMin= 1.72D-03
 ErrMax= 1.73D-03  0.00D+00 EMaxC= 1.00D+00 BMatC= 1.17D-04 BMatP= 1.24D-04
 IDIUse=1 WtCom= 1.00D+00 WtEn= 0.00D+00
 Coeff-Com: -0.131D-01-0.974D-02 0.103D+00 0.329D-01-0.315D+00-0.253D+00
 Coeff-Com:  0.759D+00 0.721D+00-0.134D+01-0.592D+00-0.389D+00 0.295D+01
 Coeff-Com: -0.296D+01 0.231D+01
 Coeff:     -0.131D-01-0.974D-02 0.103D+00 0.329D-01-0.315D+00-0.253D+00
 Coeff:      0.759D+00 0.721D+00-0.134D+01-0.592D+00-0.389D+00 0.295D+01
 Coeff:     -0.296D+01 0.231D+01
 Gap=     0.235 Goal=   None    Shift=    0.500
 Gap=     0.092 Goal=   None    Shift=    0.500
 GapD=    0.092 DampG=0.500 DampE=1.000 DampFc=0.5000 IDamp=-1.
 Damping current iteration by 5.00D-01
 RMSDP=7.49D-05 MaxDP=4.71D-03 DE=-4.38D-04 OVMax= 1.25D-02

 Cycle  15  Pass 1  IDiag  1:
 E= -1926.19329355039     Delta-E=       -0.000324619529 Rises=F Damp=T
 DIIS: error= 1.71D-03 at cycle  15 NSaved=  15.
 NSaved=15 IEnMin=15 EnMin= -1926.19329355039     IErMin=15 ErrMin= 1.71D-03
 ErrMax= 1.71D-03  0.00D+00 EMaxC= 1.00D+00 BMatC= 1.14D-04 BMatP= 1.17D-04
 IDIUse=1 WtCom= 1.00D+00 WtEn= 0.00D+00
 Coeff-Com: -0.134D-01-0.742D-02 0.978D-01 0.331D-01-0.308D+00-0.238D+00
 Coeff-Com:  0.738D+00 0.656D+00-0.116D+01-0.122D+01 0.113D+01 0.469D+00
 Coeff-Com:  0.164D+01-0.351D+01 0.269D+01
 Coeff:     -0.134D-01-0.742D-02 0.978D-01 0.331D-01-0.308D+00-0.238D+00
 Coeff:      0.738D+00 0.656D+00-0.116D+01-0.122D+01 0.113D+01 0.469D+00
 Coeff:      0.164D+01-0.351D+01 0.269D+01
 Gap=     0.236 Goal=   None    Shift=    0.500
 Gap=     0.093 Goal=   None    Shift=    0.500
 GapD=    0.093 DampG=0.500 DampE=1.000 DampFc=0.5000 IDamp=-1.
 Damping current iteration by 5.00D-01
 RMSDP=6.47D-05 MaxDP=3.49D-03 DE=-3.25D-04 OVMax= 1.13D-02

 Cycle  16  Pass 1  IDiag  1:
 E= -1926.19354872227     Delta-E=       -0.000255171883 Rises=F Damp=T
 DIIS: error= 1.68D-03 at cycle  16 NSaved=  16.
 NSaved=16 IEnMin=16 EnMin= -1926.19354872227     IErMin=16 ErrMin= 1.68D-03
 ErrMax= 1.68D-03  0.00D+00 EMaxC= 1.00D+00 BMatC= 1.17D-04 BMatP= 1.14D-04
 IDIUse=1 WtCom= 1.00D+00 WtEn= 0.00D+00
 Coeff-Com: -0.134D-01-0.953D-02 0.104D+00 0.305D-01-0.315D+00-0.224D+00
 Coeff-Com:  0.696D+00 0.758D+00-0.125D+01-0.936D+00 0.534D+00-0.212D+00
 Coeff-Com:  0.384D+01-0.305D+01-0.934D+00 0.198D+01
 Coeff:     -0.134D-01-0.953D-02 0.104D+00 0.305D-01-0.315D+00-0.224D+00
 Coeff:      0.696D+00 0.758D+00-0.125D+01-0.936D+00 0.534D+00-0.212D+00
 Coeff:      0.384D+01-0.305D+01-0.934D+00 0.198D+01
 Gap=     0.236 Goal=   None    Shift=    0.500
 Gap=     0.093 Goal=   None    Shift=    0.500
 GapD=    0.093 DampG=0.500 DampE=1.000 DampFc=0.5000 IDamp=-1.
 Damping current iteration by 5.00D-01
 RMSDP=5.43D-05 MaxDP=2.80D-03 DE=-2.55D-04 OVMax= 9.78D-03

 Cycle  17  Pass 1  IDiag  1:
 E= -1926.19375400175     Delta-E=       -0.000205279483 Rises=F Damp=T
 DIIS: error= 1.64D-03 at cycle  17 NSaved=  17.
 NSaved=17 IEnMin=17 EnMin= -1926.19375400175     IErMin=17 ErrMin= 1.64D-03
 ErrMax= 1.64D-03  0.00D+00 EMaxC= 1.00D+00 BMatC= 1.28D-04 BMatP= 1.14D-04
 IDIUse=1 WtCom= 1.00D+00 WtEn= 0.00D+00
 Large coefficients: NSaved= 17 BigCof=   33.56 CofMax=   10.00 Det=-7.60D-10
 Inversion failed.  Reducing to 16 matrices.
 Large coefficients: NSaved= 16 BigCof=   33.75 CofMax=   10.00 Det=-7.60D-10
 Inversion failed.  Reducing to 15 matrices.
 Large coefficients: NSaved= 15 BigCof=   33.70 CofMax=   10.00 Det=-7.60D-10
 Inversion failed.  Reducing to 14 matrices.
 Large coefficients: NSaved= 14 BigCof=   34.70 CofMax=   10.00 Det=-7.75D-10
 Inversion failed.  Reducing to 13 matrices.
 Large coefficients: NSaved= 13 BigCof=   37.37 CofMax=   10.00 Det=-7.93D-10
 Inversion failed.  Reducing to 12 matrices.
 Large coefficients: NSaved= 12 BigCof=   26.24 CofMax=   10.00 Det=-8.85D-10
 Inversion failed.  Reducing to 11 matrices.
 Large coefficients: NSaved= 11 BigCof=   19.15 CofMax=   10.00 Det=-1.02D-09
 Inversion failed.  Reducing to 10 matrices.
 Large coefficients: NSaved= 10 BigCof=   19.28 CofMax=   10.00 Det=-1.03D-09
 Inversion failed.  Reducing to  9 matrices.
 Large coefficients: NSaved=  9 BigCof=   19.95 CofMax=   10.00 Det=-1.05D-09
 Inversion failed.  Reducing to  8 matrices.
 Large coefficients: NSaved=  8 BigCof=   16.03 CofMax=   10.00 Det=-1.11D-09
 Inversion failed.  Reducing to  7 matrices.
 Coeff-Com:  0.594D+00-0.421D+01 0.757D+01-0.519D+01 0.683D+01-0.968D+01
 Coeff-Com:  0.509D+01
 Coeff:      0.594D+00-0.421D+01 0.757D+01-0.519D+01 0.683D+01-0.968D+01
 Coeff:      0.509D+01
 Gap=     0.235 Goal=   None    Shift=    0.500
 Gap=     0.093 Goal=   None    Shift=    0.500
 GapD=    0.093 DampG=0.500 DampE=1.000 DampFc=0.5000 IDamp=-1.
 Damping current iteration by 5.00D-01
 RMSDP=4.01D-05 MaxDP=2.21D-03 DE=-2.05D-04 OVMax= 7.20D-03

 Cycle  18  Pass 1  IDiag  1:
 E= -1926.19390853896     Delta-E=       -0.000154537211 Rises=F Damp=T
 DIIS: error= 1.58D-03 at cycle  18 NSaved=   8.
 NSaved= 8 IEnMin= 8 EnMin= -1926.19390853896     IErMin= 8 ErrMin= 1.58D-03
 ErrMax= 1.58D-03  0.00D+00 EMaxC= 1.00D+00 BMatC= 1.54D-04 BMatP= 1.14D-04
 IDIUse=1 WtCom= 1.00D+00 WtEn= 0.00D+00
 Large coefficients: NSaved=  8 BigCof=   23.31 CofMax=   10.00 Det=-1.08D-09
 Inversion failed.  Reducing to  7 matrices.
 Large coefficients: NSaved=  7 BigCof=   10.24 CofMax=   10.00 Det=-1.35D-09
 Inversion failed.  Reducing to  6 matrices.
 Large coefficients: NSaved=  6 BigCof=   12.43 CofMax=   10.00 Det=-1.47D-09
 Inversion failed.  Reducing to  5 matrices.
 Large coefficients: NSaved=  5 BigCof=   10.68 CofMax=   10.00 Det=-2.27D-09
 Inversion failed.  Reducing to  4 matrices.
 Coeff-Com: -0.257D+01 0.806D+01-0.555D+01 0.106D+01
 Coeff:     -0.257D+01 0.806D+01-0.555D+01 0.106D+01
 Gap=     0.235 Goal=   None    Shift=    0.500
 Gap=     0.093 Goal=   None    Shift=    0.500
 GapD=    0.093 DampG=0.500 DampE=1.000 DampFc=0.5000 IDamp=-1.
 Damping current iteration by 5.00D-01
 RMSDP=3.14D-05 MaxDP=1.76D-03 DE=-1.55D-04 OVMax= 5.91D-03

 Cycle  19  Pass 1  IDiag  1:
 E= -1926.19402278593     Delta-E=       -0.000114246965 Rises=F Damp=T
 DIIS: error= 1.51D-03 at cycle  19 NSaved=   5.
 NSaved= 5 IEnMin= 5 EnMin= -1926.19402278593     IErMin= 5 ErrMin= 1.51D-03
 ErrMax= 1.51D-03  0.00D+00 EMaxC= 1.00D+00 BMatC= 1.96D-04 BMatP= 1.14D-04
 IDIUse=1 WtCom= 1.00D+00 WtEn= 0.00D+00
 Large coefficients: NSaved=  5 BigCof=   14.47 CofMax=   10.00 Det=-3.30D-09
 Inversion failed.  Reducing to  4 matrices.
 Coeff-Com:  0.256D+01-0.153D+01-0.520D+00 0.492D+00
 Coeff:      0.256D+01-0.153D+01-0.520D+00 0.492D+00
 Gap=     0.235 Goal=   None    Shift=    0.500
 Gap=     0.093 Goal=   None    Shift=    0.500
 GapD=    0.093 DampG=0.500 DampE=1.000 DampFc=0.5000 IDamp=-1.
 Damping current iteration by 5.00D-01
 RMSDP=2.41D-05 MaxDP=1.33D-03 DE=-1.14D-04 OVMax= 4.08D-03

 Cycle  20  Pass 1  IDiag  1:
 E= -1926.19409785189     Delta-E=       -0.000075065965 Rises=F Damp=T
 DIIS: error= 1.44D-03 at cycle  20 NSaved=   5.
 NSaved= 5 IEnMin= 5 EnMin= -1926.19409785189     IErMin= 5 ErrMin= 1.44D-03
 ErrMax= 1.44D-03  0.00D+00 EMaxC= 1.00D+00 BMatC= 2.54D-04 BMatP= 1.17D-04
 IDIUse=1 WtCom= 1.00D+00 WtEn= 0.00D+00
 Coeff-Com:  0.169D+01 0.696D+00 0.242D+01-0.866D+01 0.486D+01
 Coeff:      0.169D+01 0.696D+00 0.242D+01-0.866D+01 0.486D+01
 Gap=     0.234 Goal=   None    Shift=    0.500
 Gap=     0.093 Goal=   None    Shift=    0.500
 GapD=    0.093 DampG=0.500 DampE=1.000 DampFc=0.5000 IDamp=-1.
 Damping current iteration by 5.00D-01
 RMSDP=2.00D-05 MaxDP=1.35D-03 DE=-7.51D-05 OVMax= 2.31D-03

 Cycle  21  Pass 1  IDiag  1:
 E= -1926.19413488272     Delta-E=       -0.000037030825 Rises=F Damp=T
 DIIS: error= 1.37D-03 at cycle  21 NSaved=   6.
 NSaved= 6 IEnMin= 6 EnMin= -1926.19413488272     IErMin= 6 ErrMin= 1.37D-03
 ErrMax= 1.37D-03  0.00D+00 EMaxC= 1.00D+00 BMatC= 3.29D-04 BMatP= 1.17D-04
 IDIUse=1 WtCom= 1.00D+00 WtEn= 0.00D+00
 Large coefficients: NSaved=  6 BigCof=   10.48 CofMax=   10.00 Det=-3.09D-09
 Inversion failed.  Reducing to  5 matrices.
 Large coefficients: NSaved=  5 BigCof=   13.66 CofMax=   10.00 Det=-5.21D-09
 Inversion failed.  Reducing to  4 matrices.
 Coeff-Com:  0.654D+01-0.795D+01 0.160D+01 0.815D+00
 Coeff:      0.654D+01-0.795D+01 0.160D+01 0.815D+00
 Gap=     0.236 Goal=   None    Shift=    0.500
 Gap=     0.093 Goal=   None    Shift=    0.500
 GapD=    0.093 DampG=0.500 DampE=1.000 DampFc=0.5000 IDamp=-1.
 Damping current iteration by 5.00D-01
 RMSDP=1.81D-05 MaxDP=8.46D-04 DE=-3.70D-05 OVMax= 4.62D-03

 Cycle  22  Pass 1  IDiag  1:
 E= -1926.19419169240     Delta-E=       -0.000056809688 Rises=F Damp=T
 DIIS: error= 1.34D-03 at cycle  22 NSaved=   5.
 NSaved= 5 IEnMin= 5 EnMin= -1926.19419169240     IErMin= 5 ErrMin= 1.34D-03
 ErrMax= 1.34D-03  0.00D+00 EMaxC= 1.00D+00 BMatC= 3.58D-04 BMatP= 1.54D-04
 IDIUse=1 WtCom= 1.00D+00 WtEn= 0.00D+00
 Large coefficients: NSaved=  5 BigCof=   12.37 CofMax=   10.00 Det=-5.32D-09
 Inversion failed.  Reducing to  4 matrices.
 Coeff-Com:  0.293D+01-0.345D+00-0.255D+01 0.972D+00
 Coeff:      0.293D+01-0.345D+00-0.255D+01 0.972D+00
 Gap=     0.238 Goal=   None    Shift=    0.500
 Gap=     0.094 Goal=   None    Shift=    0.500
 GapD=    0.094 DampG=0.500 DampE=1.000 DampFc=0.5000 IDamp=-1.
 Damping current iteration by 5.00D-01
 RMSDP=3.52D-05 MaxDP=1.95D-03 DE=-5.68D-05 OVMax= 6.93D-03

 Cycle  23  Pass 1  IDiag  1:
 E= -1926.19428722410     Delta-E=       -0.000095531698 Rises=F Damp=T
 DIIS: error= 1.36D-03 at cycle  23 NSaved=   5.
 NSaved= 5 IEnMin= 5 EnMin= -1926.19428722410     IErMin= 4 ErrMin= 1.34D-03
 ErrMax= 1.36D-03  0.00D+00 EMaxC= 1.00D+00 BMatC= 3.38D-04 BMatP= 1.96D-04
 IDIUse=1 WtCom= 1.00D+00 WtEn= 0.00D+00
 Coeff-Com:  0.301D+01-0.723D+00-0.200D+01 0.239D+00 0.471D+00
 Coeff:      0.301D+01-0.723D+00-0.200D+01 0.239D+00 0.471D+00
 Gap=     0.238 Goal=   None    Shift=    0.500
 Gap=     0.094 Goal=   None    Shift=    0.500
 GapD=    0.094 DampG=0.500 DampE=1.000 DampFc=0.5000 IDamp=-1.
 Damping current iteration by 5.00D-01
 RMSDP=3.67D-05 MaxDP=2.24D-03 DE=-9.55D-05 OVMax= 6.17D-03

 Cycle  24  Pass 1  IDiag  1:
 E= -1926.19438657408     Delta-E=       -0.000099349977 Rises=F Damp=T
 DIIS: error= 1.37D-03 at cycle  24 NSaved=   6.
 NSaved= 6 IEnMin= 6 EnMin= -1926.19438657408     IErMin= 4 ErrMin= 1.34D-03
 ErrMax= 1.37D-03  0.00D+00 EMaxC= 1.00D+00 BMatC= 3.26D-04 BMatP= 1.96D-04
 IDIUse=1 WtCom= 1.00D+00 WtEn= 0.00D+00
 Coeff-Com:  0.256D+01 0.153D+00-0.184D+01-0.274D+01 0.793D+01-0.506D+01
 Coeff:      0.256D+01 0.153D+00-0.184D+01-0.274D+01 0.793D+01-0.506D+01
 Gap=     0.236 Goal=   None    Shift=    0.500
 Gap=     0.094 Goal=   None    Shift=    0.500
 GapD=    0.094 DampG=0.500 DampE=1.000 DampFc=0.5000 IDamp=-1.
 Damping current iteration by 5.00D-01
 RMSDP=1.84D-05 MaxDP=1.16D-03 DE=-9.93D-05 OVMax= 2.24D-03

 Cycle  25  Pass 1  IDiag  1:
 E= -1926.19443602724     Delta-E=       -0.000049453157 Rises=F Damp=T
 DIIS: error= 1.33D-03 at cycle  25 NSaved=   7.
 NSaved= 7 IEnMin= 7 EnMin= -1926.19443602724     IErMin= 7 ErrMin= 1.33D-03
 ErrMax= 1.33D-03  0.00D+00 EMaxC= 1.00D+00 BMatC= 3.76D-04 BMatP= 1.96D-04
 IDIUse=1 WtCom= 1.00D+00 WtEn= 0.00D+00
 Large coefficients: NSaved=  7 BigCof=   20.54 CofMax=   10.00 Det=-2.62D-09
 Inversion failed.  Reducing to  6 matrices.
 Large coefficients: NSaved=  6 BigCof=   21.60 CofMax=   10.00 Det=-2.63D-09
 Inversion failed.  Reducing to  5 matrices.
 Large coefficients: NSaved=  5 BigCof=   15.57 CofMax=   10.00 Det=-2.94D-09
 Inversion failed.  Reducing to  4 matrices.
 Large coefficients: NSaved=  4 BigCof=   24.98 CofMax=   10.00 Det=-9.13D-09
 Inversion failed.  Reducing to  3 matrices.
 Large coefficients: NSaved=  3 BigCof=   10.89 CofMax=   10.00 Det=-4.92D-08
 Inversion failed.  Reducing to  2 matrices.
 Coeff-Com:  0.939D+01-0.839D+01
 Coeff:      0.939D+01-0.839D+01
 Gap=     0.238 Goal=   None    Shift=    0.500
 Gap=     0.094 Goal=   None    Shift=    0.500
 GapD=    0.094 DampG=0.500 DampE=1.000 DampFc=0.5000 IDamp=-1.
 Damping current iteration by 5.00D-01
 RMSDP=2.56D-05 MaxDP=1.27D-03 DE=-4.95D-05 OVMax= 4.84D-03

 Cycle  26  Pass 1  IDiag  1:
 E= -1926.19451008359     Delta-E=       -0.000074056353 Rises=F Damp=T
 DIIS: error= 1.33D-03 at cycle  26 NSaved=   3.
 NSaved= 3 IEnMin= 3 EnMin= -1926.19451008359     IErMin= 2 ErrMin= 1.33D-03
 ErrMax= 1.33D-03  0.00D+00 EMaxC= 1.00D+00 BMatC= 3.67D-04 BMatP= 3.26D-04
 IDIUse=1 WtCom= 1.00D+00 WtEn= 0.00D+00
 Large coefficients: NSaved=  3 BigCof=   10.03 CofMax=   10.00 Det=-1.08D-06
 Inversion failed.  Reducing to  2 matrices.
 Coeff-Com: -0.252D+01 0.352D+01
 Coeff:     -0.252D+01 0.352D+01
 Gap=     0.247 Goal=   None    Shift=    0.500
 Gap=     0.097 Goal=   None    Shift=    0.500
 GapD=    0.097 DampG=0.500 DampE=1.000 DampFc=0.5000 IDamp=-1.
 Damping current iteration by 5.00D-01
 RMSDP=8.26D-05 MaxDP=4.25D-03 DE=-7.41D-05 OVMax= 9.91D-03

 Cycle  27  Pass 1  IDiag  1:
 E= -1926.19467800695     Delta-E=       -0.000167923360 Rises=F Damp=T
 DIIS: error= 1.54D-03 at cycle  27 NSaved=   3.
 NSaved= 3 IEnMin= 3 EnMin= -1926.19467800695     IErMin= 1 ErrMin= 1.33D-03
 ErrMax= 1.54D-03  0.00D+00 EMaxC= 1.00D+00 BMatC= 1.57D-04 BMatP= 3.67D-04
 IDIUse=1 WtCom= 1.00D+00 WtEn= 0.00D+00
 Coeff-Com: -0.107D+01 0.703D+00 0.136D+01
 Coeff:     -0.107D+01 0.703D+00 0.136D+01
 Gap=     0.244 Goal=   None    Shift=    0.500
 Gap=     0.096 Goal=   None    Shift=    0.500
 GapD=    0.096 DampG=0.500 DampE=1.000 DampFc=0.5000 IDamp=-1.
 Damping current iteration by 5.00D-01
 RMSDP=7.67D-05 MaxDP=5.80D-03 DE=-1.68D-04 OVMax= 1.13D-02

 Cycle  28  Pass 1  IDiag  1:
 E= -1926.19484599016     Delta-E=       -0.000167983208 Rises=F Damp=T
 DIIS: error= 1.62D-03 at cycle  28 NSaved=   4.
 NSaved= 4 IEnMin= 4 EnMin= -1926.19484599016     IErMin= 1 ErrMin= 1.33D-03
 ErrMax= 1.62D-03  0.00D+00 EMaxC= 1.00D+00 BMatC= 1.33D-04 BMatP= 1.57D-04
 IDIUse=1 WtCom= 1.00D+00 WtEn= 0.00D+00
 Coeff-Com:  0.258D+00-0.224D+00-0.112D+01 0.208D+01
 Coeff:      0.258D+00-0.224D+00-0.112D+01 0.208D+01
 Gap=     0.244 Goal=   None    Shift=    0.500
 Gap=     0.096 Goal=   None    Shift=    0.500
 GapD=    0.096 DampG=0.500 DampE=1.000 DampFc=0.5000 IDamp=-1.
 Damping current iteration by 5.00D-01
 RMSDP=7.39D-05 MaxDP=5.39D-03 DE=-1.68D-04 OVMax= 1.18D-02

 Cycle  29  Pass 1  IDiag  1:
 E= -1926.19502515358     Delta-E=       -0.000179163419 Rises=F Damp=T
 DIIS: error= 1.65D-03 at cycle  29 NSaved=   5.
 NSaved= 5 IEnMin= 5 EnMin= -1926.19502515358     IErMin= 1 ErrMin= 1.33D-03
 ErrMax= 1.65D-03  0.00D+00 EMaxC= 1.00D+00 BMatC= 1.31D-04 BMatP= 1.33D-04
 IDIUse=1 WtCom= 1.00D+00 WtEn= 0.00D+00
 Coeff-Com:  0.425D+00-0.533D+00-0.415D+00-0.119D+00 0.164D+01
 Coeff:      0.425D+00-0.533D+00-0.415D+00-0.119D+00 0.164D+01
 Gap=     0.245 Goal=   None    Shift=    0.500
 Gap=     0.096 Goal=   None    Shift=    0.500
 GapD=    0.096 DampG=0.500 DampE=1.000 DampFc=0.5000 IDamp=-1.
 Damping current iteration by 5.00D-01
 RMSDP=7.18D-05 MaxDP=4.76D-03 DE=-1.79D-04 OVMax= 1.20D-02

 Cycle  30  Pass 1  IDiag  1:
 E= -1926.19521360953     Delta-E=       -0.000188455957 Rises=F Damp=T
 DIIS: error= 1.65D-03 at cycle  30 NSaved=   6.
 NSaved= 6 IEnMin= 6 EnMin= -1926.19521360953     IErMin= 1 ErrMin= 1.33D-03
 ErrMax= 1.65D-03  0.00D+00 EMaxC= 1.00D+00 BMatC= 1.34D-04 BMatP= 1.31D-04
 IDIUse=1 WtCom= 1.00D+00 WtEn= 0.00D+00
 Coeff-Com:  0.776D+00-0.650D+00-0.586D+00-0.303D+01 0.970D+01-0.521D+01
 Coeff:      0.776D+00-0.650D+00-0.586D+00-0.303D+01 0.970D+01-0.521D+01
 Gap=     0.243 Goal=   None    Shift=    0.500
 Gap=     0.096 Goal=   None    Shift=    0.500
 GapD=    0.096 DampG=0.500 DampE=1.000 DampFc=0.5000 IDamp=-1.
 Damping current iteration by 5.00D-01
 RMSDP=3.78D-05 MaxDP=2.61D-03 DE=-1.88D-04 OVMax= 4.63D-03

 Cycle  31  Pass 1  IDiag  1:
 E= -1926.19533512371     Delta-E=       -0.000121514178 Rises=F Damp=T
 DIIS: error= 1.56D-03 at cycle  31 NSaved=   7.
 NSaved= 7 IEnMin= 7 EnMin= -1926.19533512371     IErMin= 1 ErrMin= 1.33D-03
 ErrMax= 1.56D-03  0.00D+00 EMaxC= 1.00D+00 BMatC= 1.78D-04 BMatP= 1.31D-04
 IDIUse=1 WtCom= 1.00D+00 WtEn= 0.00D+00
 Coeff-Com:  0.714D+00 0.291D+00-0.114D+01-0.182D+01 0.756D+01-0.211D+01
 Coeff-Com: -0.249D+01
 Coeff:      0.714D+00 0.291D+00-0.114D+01-0.182D+01 0.756D+01-0.211D+01
 Coeff:     -0.249D+01
 Gap=     0.240 Goal=   None    Shift=    0.500
 Gap=     0.095 Goal=   None    Shift=    0.500
 GapD=    0.095 DampG=0.500 DampE=1.000 DampFc=0.5000 IDamp=-1.
 Damping current iteration by 5.00D-01
 RMSDP=4.68D-05 MaxDP=3.12D-03 DE=-1.22D-04 OVMax= 2.52D-03

 Cycle  32  Pass 1  IDiag  1:
 E= -1926.19532136923     Delta-E=        0.000013754483 Rises=F Damp=T
 DIIS: error= 1.38D-03 at cycle  32 NSaved=   8.
 NSaved= 8 IEnMin= 7 EnMin= -1926.19533512371     IErMin= 1 ErrMin= 1.33D-03
 ErrMax= 1.38D-03  0.00D+00 EMaxC= 1.00D+00 BMatC= 3.30D-04 BMatP= 1.31D-04
 IDIUse=1 WtCom= 1.00D+00 WtEn= 0.00D+00
 Coeff-Com:  0.658D+00 0.456D+00-0.108D+01-0.167D+01 0.769D+01-0.396D+01
 Coeff-Com: -0.601D-01-0.103D+01
 Coeff:      0.658D+00 0.456D+00-0.108D+01-0.167D+01 0.769D+01-0.396D+01
 Coeff:     -0.601D-01-0.103D+01
 Gap=     0.239 Goal=   None    Shift=    0.000
 Gap=     0.095 Goal=   None    Shift=    0.000
 GapD=    0.095 DampG=0.500 DampE=1.000 DampFc=0.5000 IDamp=-1.
 Damping current iteration by 5.00D-01
 RMSDP=8.01D-05 MaxDP=6.73D-03 DE= 1.38D-05 OVMax= 1.48D-02

 >>>>>>>>>> Convergence criterion not met.
 SCF Done:  E(ULC-wHPBE) =  -1926.19532137     A.U. after   33 cycles
            NFock= 32  Conv=0.80D-04     -V/T= 2.0033
 <Sx>= 0.0000 <Sy>= 0.0000 <Sz>= 0.5000 <S**2>= 0.7572 S= 0.5036
 <L.S>= 0.000000000000E+00
 KE= 1.919863560272D+03 PE=-1.015281851908D+04 EE= 3.479513357360D+03
 Annihilation of the first spin contaminant:
 S**2 before annihilation     0.7575,   after     0.7499
 Leave Link  502 at Mon Jan 18 12:09:56 2021, MaxMem=  4026531840 cpu:           15917.5 elap:            1994.9
 (Enter /opt/ohpc/pub/libs/gaussian/g16-A.03/sandybridge/g16/l508.exe)
 Integral symmetry usage will be decided dynamically.
 Tight linear equation convergence will be used.
 ULC-wHPBE wavefunction.
 Quadratic Convergence SCF Method.
 Line search only if initial step raises energy.
 FoFJK:  IHMeth= 1 ICntrl=       0 DoSepK=T KAlg= 0 I1Cent=           0 FoldK=F
 IRaf=         1 NMat=       1 IRICut=       1 DoRegI=T DoRafI=F ISym2E= 1 IDoP0=0 IntGTp=1.
 FoFCou: FMM=F IPFlag=           0 FMFlag=      100000 FMFlg1=           0
         NFxFlg=           0 DoJE=T BraDBF=F KetDBF=F FulRan=T
         wScrn=  0.000000 ICntrl=       500 IOpCl=  0 I1Cent=           0 NGrid=           0
         NMat0=    1 NMatS0=      1 NMatT0=    0 NMatD0=    1 NMtDS0=    0 NMtDT0=    0
 Petite list used in FoFCou.
 Iteration   1 EE= -1926.19495513325                                    Grad=1.903D-02 Max rot=    0.2197 deg.
 Gradient too large for Newton-Raphson -- use scaled steepest descent instead.
     ILin= 1 X=0.000D+00 Y=-1.926194955133D+03 DE= 0.00D+00 F= -6.07D-04
     ILin= 2 X=3.000D-01 Y=-1.926195111344D+03 DE=-1.56D-04 F= -4.34D-04
     ILin= 3 X=6.000D-01 Y=-1.926195215580D+03 DE=-2.60D-04 F= -2.61D-04
     ILin= 4 X=1.200D+00 Y=-1.926195268266D+03 DE=-3.13D-04 F=  8.52D-05
     Accept linear search using points  3 and  4.
     An  expanding polynomial of degree  4 produced  0.9676
 Iteration   2 EE= -1926.19527249075     Delta-E=       -0.000317357499 Grad=1.140D-02 Max rot=    0.4256 deg.
 Gradient too large for Newton-Raphson -- use scaled steepest descent instead.
     ILin= 1 X=0.000D+00 Y=-1.926195272491D+03 DE= 0.00D+00 F= -2.89D-04
     ILin= 2 X=5.000D-01 Y=-1.926195399993D+03 DE=-1.28D-04 F= -2.21D-04
     ILin= 3 X=1.100D+00 Y=-1.926195507498D+03 DE=-2.35D-04 F= -1.38D-04
     ILin= 4 X=2.200D+00 Y=-1.926195574908D+03 DE=-3.02D-04 F=  1.53D-05
     Accept linear search using points  3 and  4.
     An  expanding polynomial of degree  4 produced  2.1106
     Minimum is close to point  4 DX= -8.94D-02 DF= -6.20D-07 DXR=  4.24D-02 DFR=  2.05D-03 which will be used.
 Iteration   3 EE= -1926.19557490766     Delta-E=       -0.000302416907 Grad=2.323D-02 Max rot=    0.2695 deg.
 Gradient too large for Newton-Raphson -- use scaled steepest descent instead.
     ILin= 1 X=0.000D+00 Y=-1.926195574908D+03 DE= 0.00D+00 F= -7.42D-04
     ILin= 2 X=1.400D+00 Y=-1.926195758532D+03 DE=-1.84D-04 F=  4.80D-04
     Accept linear search using points  1 and  2.
     An  expanding polynomial of degree  2 produced  0.9317
 Iteration   4 EE= -1926.19588750172     Delta-E=       -0.000312594065 Grad=1.284D-02 Max rot=    0.4584 deg.
 Gradient too large for Newton-Raphson -- use scaled steepest descent instead.
     ILin= 1 X=0.000D+00 Y=-1.926195887502D+03 DE= 0.00D+00 F= -3.44D-04
     ILin= 2 X=1.400D+00 Y=-1.926196142402D+03 DE=-2.55D-04 F= -1.96D-05
     Reject lnstep minimum 1.430D+00 FVal=-1.926196142616D+03 Lims=  0.00D+00  1.40D+00
     ILin= 3 X=2.800D+00 Y=-1.926195941315D+03 DE=-5.38D-05 F=  3.07D-04
     An  expanding polynomial of degree  3 produced  1.4826
     Minimum is close to point  2 DX=  8.26D-02 DF= -7.94D-07 DXR=  5.57D-02 DFR=  3.11D-03 which will be used.
 Iteration   5 EE= -1926.19614240173     Delta-E=       -0.000254900003 Grad=1.683D-02 Max rot=    0.3258 deg.
 Gradient too large for Newton-Raphson -- use scaled steepest descent instead.
     ILin= 1 X=0.000D+00 Y=-1.926196142402D+03 DE= 0.00D+00 F= -4.42D-04
     ILin= 2 X=1.200D+00 Y=-1.926196391454D+03 DE=-2.49D-04 F=  2.65D-05
     Accept linear search using points  1 and  2.
     An  expanding polynomial of degree  2 produced  1.1563
     Minimum is close to point  2 DX= -4.37D-02 DF= -4.81D-07 DXR=  3.78D-02 DFR=  1.93D-03 which will be used.
 Iteration   6 EE= -1926.19639145428     Delta-E=       -0.000249052555 Grad=1.532D-02 Max rot=    0.4729 deg.
 Gradient too large for Newton-Raphson -- use scaled steepest descent instead.
     ILin= 1 X=0.000D+00 Y=-1.926196391454D+03 DE= 0.00D+00 F= -4.32D-04
     ILin= 2 X=1.300D+00 Y=-1.926196637401D+03 DE=-2.46D-04 F=  5.36D-05
     Accept linear search using points  1 and  2.
     An  expanding polynomial of degree  2 produced  1.2170
     Minimum is close to point  2 DX= -8.30D-02 DF= -1.69D-06 DXR=  6.82D-02 DFR=  6.87D-03 which will be used.
 Iteration   7 EE= -1926.19663740090     Delta-E=       -0.000245946617 Grad=1.839D-02 Max rot=    0.3255 deg.
 Gradient too large for Newton-Raphson -- use scaled steepest descent instead.
     ILin= 1 X=0.000D+00 Y=-1.926196637401D+03 DE= 0.00D+00 F= -5.04D-04
     ILin= 2 X=1.200D+00 Y=-1.926196888392D+03 DE=-2.51D-04 F=  8.52D-05
     Accept linear search using points  1 and  2.
     An  expanding polynomial of degree  2 produced  1.0763
 Iteration   8 EE= -1926.19689517584     Delta-E=       -0.000257774937 Grad=1.421D-02 Max rot=    0.4648 deg.
 Gradient too large for Newton-Raphson -- use scaled steepest descent instead.
     ILin= 1 X=0.000D+00 Y=-1.926196895176D+03 DE= 0.00D+00 F= -3.88D-04
     ILin= 2 X=1.100D+00 Y=-1.926197140935D+03 DE=-2.46D-04 F= -5.88D-05
     Reject lnstep minimum 1.231D+00 FVal=-1.926197144488D+03 Lims=  0.00D+00  1.10D+00
     ILin= 3 X=2.300D+00 Y=-1.926196995591D+03 DE=-1.00D-04 F=  3.01D-04
     An  expanding polynomial of degree  3 produced  1.2957
 Iteration   9 EE= -1926.19714669878     Delta-E=       -0.000251522948 Grad=1.697D-02 Max rot=    0.3387 deg.
 Gradient too large for Newton-Raphson -- use scaled steepest descent instead.
     ILin= 1 X=0.000D+00 Y=-1.926197146699D+03 DE= 0.00D+00 F= -4.45D-04
     ILin= 2 X=1.200D+00 Y=-1.926197397688D+03 DE=-2.51D-04 F=  2.66D-05
     Accept linear search using points  1 and  2.
     An  expanding polynomial of degree  2 produced  1.1564
     Minimum is close to point  2 DX= -4.36D-02 DF= -4.81D-07 DXR=  3.77D-02 DFR=  1.92D-03 which will be used.
 Iteration  10 EE= -1926.19739768818     Delta-E=       -0.000250989393 Grad=1.565D-02 Max rot=    0.4716 deg.
 Gradient too large for Newton-Raphson -- use scaled steepest descent instead.
     ILin= 1 X=0.000D+00 Y=-1.926197397688D+03 DE= 0.00D+00 F= -4.40D-04
     ILin= 2 X=1.200D+00 Y=-1.926197648375D+03 DE=-2.51D-04 F=  2.21D-05
     Accept linear search using points  1 and  2.
     An  expanding polynomial of degree  2 produced  1.1634
     Minimum is close to point  2 DX= -3.66D-02 DF= -3.36D-07 DXR=  3.14D-02 DFR=  1.34D-03 which will be used.
 Iteration  11 EE= -1926.19764837508     Delta-E=       -0.000250686900 Grad=1.674D-02 Max rot=    0.3423 deg.
 Gradient too large for Newton-Raphson -- use scaled steepest descent instead.
     ILin= 1 X=0.000D+00 Y=-1.926197648375D+03 DE= 0.00D+00 F= -4.35D-04
     ILin= 2 X=1.200D+00 Y=-1.926197898822D+03 DE=-2.50D-04 F=  1.78D-05
     Accept linear search using points  1 and  2.
     An  expanding polynomial of degree  2 produced  1.1703
     Minimum is close to point  2 DX= -2.97D-02 DF= -2.19D-07 DXR=  2.53D-02 DFR=  8.74D-04 which will be used.
 Iteration  12 EE= -1926.19789882188     Delta-E=       -0.000250446798 Grad=1.546D-02 Max rot=    0.4684 deg.
 Gradient too large for Newton-Raphson -- use scaled steepest descent instead.
     ILin= 1 X=0.000D+00 Y=-1.926197898822D+03 DE= 0.00D+00 F= -4.30D-04
     ILin= 2 X=1.200D+00 Y=-1.926198148264D+03 DE=-2.49D-04 F=  1.46D-05
     Accept linear search using points  1 and  2.
     An  expanding polynomial of degree  2 produced  1.1753
     Minimum is close to point  2 DX= -2.47D-02 DF= -1.50D-07 DXR=  2.10D-02 DFR=  6.02D-04 which will be used.
 Iteration  13 EE= -1926.19814826359     Delta-E=       -0.000249441716 Grad=1.652D-02 Max rot=    0.3437 deg.
[...]
    19   Atom        0.000663      0.000728     -0.001390
    20   Atom        0.000308     -0.000111     -0.000197
    21   Atom        0.000389     -0.000182     -0.000207
    22   Atom        0.000241     -0.000148     -0.000093
    23   Atom        0.004109      0.006182     -0.010291
    24   Atom       -0.423188     -0.477842      0.901030
    25   Atom       -0.009857     -0.007340      0.017197
    26   Atom        0.010897     -0.008079     -0.002818
    27   Atom       -0.023776      0.032746     -0.008969
    28   Atom        0.010772     -0.001403     -0.009369
    29   Atom        0.004807      0.007342     -0.012149
    30   Atom       -0.037599     -0.011981      0.049580
    31   Atom        0.001301     -0.000577     -0.000724
    32   Atom        0.001951     -0.001266     -0.000685
    33   Atom        0.000610     -0.000175     -0.000436
    34   Atom        0.000421      0.000053     -0.000473
    35   Atom       -0.014385      0.002965      0.011420
    36   Atom        0.078468     -0.043593     -0.034875
    37   Atom        0.050702     -0.018343     -0.032359
    38   Atom       -0.002843      0.006462     -0.003619
    39   Atom       -0.010700      0.013383     -0.002683
    40   Atom        0.038536     -0.042904      0.004368
    41   Atom       -0.000814     -0.001624      0.002438
    42   Atom       -0.000869     -0.001573      0.002442
    43   Atom       -0.001237      0.000565      0.000673
    44   Atom       -0.001343      0.000772      0.000570
    45   Atom        0.084566     -0.075620     -0.008946
    46   Atom        0.000795     -0.003347      0.002552
    47   Atom       -0.057016     -0.008835      0.065851
    48   Atom       -0.004061      0.002926      0.001135
 --------------------------------------------------------
                        XY            XZ            YZ
 --------------------------------------------------------
     1   Atom        0.000805     -0.000949     -0.001550
     2   Atom       -0.001240      0.003323      0.000590
     3   Atom        0.005566     -0.036146     -0.033252
     4   Atom        0.004020     -0.002687     -0.002348
     5   Atom       -0.004151     -0.000825      0.021892
     6   Atom       -0.005680      0.002071     -0.098735
     7   Atom        0.000393      0.000028      0.000296
     8   Atom       -0.000201      0.001201      0.001254
     9   Atom        0.000656      0.000667      0.000659
    10   Atom        0.012248     -0.009292     -0.075451
    11   Atom       -0.000325      0.000294      0.028037
    12   Atom       -0.004667      0.002073     -0.099999
    13   Atom       -0.006402      0.002198      0.007296
    14   Atom        0.001105     -0.000071      0.004927
    15   Atom        0.000273      0.000116      0.001630
    16   Atom        0.004886      0.003938      0.003721
    17   Atom        0.000735     -0.000559     -0.002704
    18   Atom       -0.000335     -0.000050      0.000080
    19   Atom       -0.001381     -0.000205      0.000419
    20   Atom       -0.000067      0.000079      0.000024
    21   Atom        0.000218      0.000251      0.000147
    22   Atom        0.000310      0.000255      0.000059
    23   Atom        0.011454     -0.000739     -0.003385
    24   Atom        0.010808      0.281343      0.053215
    25   Atom        0.011133     -0.002379      0.004549
    26   Atom       -0.039206     -0.041463      0.037336
    27   Atom       -0.043298     -0.030995      0.050611
    28   Atom        0.004833      0.002596     -0.014241
    29   Atom        0.006408      0.009107     -0.009060
    30   Atom       -0.021141     -0.039277      0.064117
    31   Atom       -0.002301      0.003240     -0.003433
    32   Atom       -0.002092      0.004077     -0.002519
    33   Atom        0.000623      0.001183     -0.001441
    34   Atom        0.000729      0.001057     -0.001557
    35   Atom       -0.002149      0.013052      0.007418
    36   Atom        0.013430      0.033645      0.007007
    37   Atom        0.044290      0.028599      0.010551
    38   Atom       -0.008784     -0.010235     -0.006075
    39   Atom       -0.001837     -0.015244     -0.001078
    40   Atom        0.023511      0.074360      0.019910
    41   Atom        0.000692     -0.004507     -0.002558
    42   Atom        0.000437     -0.004625     -0.001059
    43   Atom       -0.000782     -0.001608     -0.000272
    44   Atom       -0.000688     -0.001457     -0.000400
    45   Atom        0.045546      0.115962      0.032603
    46   Atom       -0.002101     -0.004585      0.003228
    47   Atom       -0.049077     -0.069522      0.107514
    48   Atom       -0.002171      0.001009     -0.005048
 --------------------------------------------------------


 ---------------------------------------------------------------------------------
              Anisotropic Spin Dipole Couplings in Principal Axis System
 ---------------------------------------------------------------------------------

       Atom             a.u.   MegaHertz   Gauss  10(-4) cm-1        Axes

              Baa    -0.0016    -0.220    -0.079    -0.073 -0.0278  0.7866  0.6168
     1 C(13)  Bbb    -0.0006    -0.083    -0.030    -0.028  0.8656 -0.2897  0.4085
              Bcc     0.0023     0.303     0.108     0.101 -0.5000 -0.5452  0.6729
 
              Baa    -0.0043    -0.578    -0.206    -0.193  0.4944  0.8292 -0.2608
     2 C(13)  Bbb    -0.0014    -0.181    -0.065    -0.061  0.7266 -0.5589 -0.3996
              Bcc     0.0057     0.760     0.271     0.253  0.4771 -0.0080  0.8788
 
              Baa    -0.0603    -2.472    -0.882    -0.825  0.9479  0.1784  0.2640
     3 S(33)  Bbb    -0.0479    -1.963    -0.700    -0.655 -0.2276  0.9589  0.1692
              Bcc     0.1082     4.435     1.583     1.479 -0.2229 -0.2205  0.9496
 
              Baa    -0.0048    -0.646    -0.230    -0.215  0.8208 -0.5498  0.1552
     4 C(13)  Bbb    -0.0013    -0.171    -0.061    -0.057  0.2198  0.5547  0.8025
              Bcc     0.0061     0.817     0.291     0.272  0.5273  0.6246 -0.5761
 
              Baa    -0.0334    -4.477    -1.598    -1.494 -0.0281 -0.5095  0.8600
     5 C(13)  Bbb     0.0127     1.703     0.608     0.568  0.7097  0.5957  0.3761
              Bcc     0.0207     2.775     0.990     0.926  0.7039 -0.6209 -0.3449
 
              Baa    -0.0864   -11.592    -4.136    -3.867  0.3353  0.8427  0.4213
     6 C(13)  Bbb    -0.0733    -9.840    -3.511    -3.282  0.9419 -0.2909 -0.1678
              Bcc     0.1597    21.431     7.647     7.149  0.0189 -0.4531  0.8913
 
              Baa    -0.0011    -0.141    -0.050    -0.047  0.0380 -0.2524  0.9669
     7 C(13)  Bbb     0.0000     0.004     0.001     0.001 -0.4301  0.8692  0.2439
              Bcc     0.0010     0.138     0.049     0.046  0.9020  0.4251  0.0755
 
              Baa    -0.0021    -0.283    -0.101    -0.094 -0.3370 -0.5584  0.7580
     8 C(13)  Bbb     0.0004     0.055     0.020     0.018 -0.5102  0.7850  0.3515
              Bcc     0.0017     0.227     0.081     0.076  0.7913  0.2683  0.5495
 
              Baa    -0.0010    -0.555    -0.198    -0.185 -0.0730 -0.6071  0.7913
     9 H(1)   Bbb    -0.0004    -0.232    -0.083    -0.077 -0.6176  0.6505  0.4421
              Bcc     0.0015     0.787     0.281     0.263  0.7831  0.4564  0.4224
 
              Baa    -0.0534    -7.166    -2.557    -2.390 -0.5677  0.6392  0.5187
    10 C(13)  Bbb    -0.0478    -6.418    -2.290    -2.141  0.8170  0.3602  0.4502
              Bcc     0.1012    13.584     4.847     4.531 -0.1009 -0.6794  0.7268
 
              Baa    -0.0458    -6.145    -2.193    -2.050 -0.0058 -0.4804  0.8770
    11 C(13)  Bbb     0.0207     2.784     0.994     0.929  0.0335  0.8765  0.4803
              Bcc     0.0250     3.360     1.199     1.121  0.9994 -0.0322 -0.0110
 
              Baa    -0.0699    -9.383    -3.348    -3.130  0.9087  0.3165  0.2720
    12 C(13)  Bbb    -0.0648    -8.692    -3.101    -2.899 -0.4167  0.6519  0.6335
              Bcc     0.1347    18.075     6.450     6.029  0.0232 -0.6890  0.7244
 
              Baa    -0.0183    -2.458    -0.877    -0.820  0.2387  0.9201 -0.3106
    13 C(13)  Bbb     0.0074     0.999     0.356     0.333 -0.0100  0.3222  0.9466
              Bcc     0.0109     1.460     0.521     0.487  0.9710 -0.2229  0.0861
 
              Baa    -0.0044    -2.335    -0.833    -0.779  0.4033 -0.5061  0.7623
    14 H(1)   Bbb    -0.0027    -1.418    -0.506    -0.473  0.9105  0.1388 -0.3896
              Bcc     0.0070     3.753     1.339     1.252  0.0914  0.8512  0.5168
 
              Baa    -0.0028    -1.500    -0.535    -0.500  0.0131 -0.5844  0.8113
    15 H(1)   Bbb     0.0006     0.308     0.110     0.103 -0.1771  0.7972  0.5771
              Bcc     0.0022     1.193     0.426     0.398  0.9841  0.1512  0.0931
 
              Baa    -0.0052    -2.762    -0.986    -0.921 -0.6242  0.0195  0.7810
    16 H(1)   Bbb    -0.0036    -1.901    -0.678    -0.634 -0.5269  0.7277 -0.4393
              Bcc     0.0087     4.664     1.664     1.556  0.5769  0.6857  0.4440
 
              Baa    -0.0023    -0.309    -0.110    -0.103 -0.5494  0.7392  0.3896
    17 C(13)  Bbb    -0.0016    -0.220    -0.079    -0.073  0.8215  0.3927  0.4133
              Bcc     0.0039     0.529     0.189     0.176 -0.1525 -0.5471  0.8231
 
              Baa    -0.0004    -0.209    -0.075    -0.070  0.2293  0.7324 -0.6412
    18 H(1)   Bbb    -0.0003    -0.148    -0.053    -0.049  0.2855  0.5791  0.7636
              Bcc     0.0007     0.358     0.128     0.119  0.9306 -0.3581 -0.0763
 
              Baa    -0.0015    -0.786    -0.280    -0.262 -0.0448 -0.2140  0.9758
    19 H(1)   Bbb    -0.0007    -0.352    -0.126    -0.117  0.7237  0.6664  0.1794
              Bcc     0.0021     1.138     0.406     0.380 -0.6886  0.7143  0.1250
 
              Baa    -0.0002    -0.117    -0.042    -0.039 -0.1787 -0.3127  0.9329
    20 H(1)   Bbb    -0.0001    -0.058    -0.021    -0.019  0.0876  0.9393  0.3316
              Bcc     0.0003     0.175     0.063     0.059  0.9800 -0.1410  0.1405
 
              Baa    -0.0003    -0.185    -0.066    -0.062 -0.1004 -0.5873  0.8031
    21 H(1)   Bbb    -0.0002    -0.118    -0.042    -0.040 -0.4635  0.7419  0.4846
              Bcc     0.0006     0.303     0.108     0.101  0.8804  0.3236  0.3467
 
              Baa    -0.0003    -0.186    -0.066    -0.062 -0.5534  0.7421  0.3782
    22 H(1)   Bbb    -0.0002    -0.090    -0.032    -0.030 -0.1268 -0.5239  0.8423
              Bcc     0.0005     0.276     0.098     0.092  0.8232  0.4182  0.3840
 
              Baa    -0.0112    -0.461    -0.164    -0.154 -0.1785  0.2996  0.9372
    23 S(33)  Bbb    -0.0057    -0.236    -0.084    -0.079  0.7258 -0.6030  0.3310
              Bcc     0.0170     0.696     0.248     0.232  0.6644  0.7393 -0.1098
 
              Baa    -0.4805   -18.531    -6.612    -6.181  0.9784  0.0479 -0.2011
    24 N(14)  Bbb    -0.4799   -18.508    -6.604    -6.174 -0.0545  0.9981 -0.0274
              Bcc     0.9604    37.040    13.217    12.355  0.1994  0.0377  0.9792
 
              Baa    -0.0204    -2.740    -0.978    -0.914  0.7330 -0.6682  0.1272
    25 C(13)  Bbb     0.0024     0.322     0.115     0.107  0.6800  0.7244 -0.1134
              Bcc     0.0180     2.418     0.863     0.807 -0.0164  0.1696  0.9854
 
              Baa    -0.0429    -5.756    -2.054    -1.920  0.0398  0.7513 -0.6588
    26 C(13)  Bbb    -0.0366    -4.908    -1.751    -1.637  0.7676  0.3991  0.5015
              Bcc     0.0795    10.664     3.805     3.557  0.6397 -0.5256 -0.5608
 
              Baa    -0.0488    -6.547    -2.336    -2.184  0.8799  0.1996  0.4312
    27 C(13)  Bbb    -0.0425    -5.699    -2.034    -1.901 -0.2223 -0.6291  0.7448
              Bcc     0.0913    12.246     4.370     4.085 -0.4200  0.7512  0.5092
 
              Baa    -0.0210    -2.813    -1.004    -0.938 -0.1561  0.6063  0.7798
    28 C(13)  Bbb     0.0080     1.071     0.382     0.357 -0.5255  0.6175 -0.5853
              Bcc     0.0130     1.741     0.621     0.581  0.8364  0.5011 -0.2222
 
              Baa    -0.0204    -2.737    -0.977    -0.913 -0.3972  0.3666  0.8413
    29 C(13)  Bbb     0.0077     1.029     0.367     0.343  0.7298 -0.4297  0.5318
              Bcc     0.0127     1.708     0.609     0.570  0.5565  0.8252 -0.0968
 
              Baa    -0.0549    -7.363    -2.627    -2.456  0.6318 -0.5317  0.5640
    30 C(13)  Bbb    -0.0491    -6.582    -2.349    -2.196  0.7146  0.6813 -0.1583
              Bcc     0.1039    13.945     4.976     4.652 -0.3001  0.5031  0.8105
 
              Baa    -0.0042    -2.259    -0.806    -0.753 -0.2047  0.5985  0.7745
    31 H(1)   Bbb    -0.0018    -0.966    -0.345    -0.322  0.7410  0.6118 -0.2769
              Bcc     0.0060     3.224     1.151     1.076  0.6396 -0.5172  0.5687
 
              Baa    -0.0040    -2.158    -0.770    -0.720 -0.3987  0.4330  0.8084
    32 H(1)   Bbb    -0.0022    -1.186    -0.423    -0.395  0.5616  0.8122 -0.1581
              Bcc     0.0063     3.343     1.193     1.115  0.7251 -0.3910  0.5670
 
              Baa    -0.0023    -1.242    -0.443    -0.414 -0.4065  0.5864  0.7006
    33 H(1)   Bbb     0.0009     0.456     0.163     0.152  0.6164  0.7420 -0.2635
              Bcc     0.0015     0.786     0.280     0.262  0.6744 -0.3248  0.6631
 
              Baa    -0.0024    -1.267    -0.452    -0.423 -0.4163  0.5762  0.7034
    34 H(1)   Bbb     0.0010     0.519     0.185     0.173  0.8722  0.4715  0.1300
              Bcc     0.0014     0.748     0.267     0.250  0.2567 -0.6676  0.6988
 
              Baa    -0.0209    -2.799    -0.999    -0.934  0.8896  0.2070 -0.4072
    35 C(13)  Bbb     0.0017     0.224     0.080     0.075 -0.3279  0.9101 -0.2536
              Bcc     0.0192     2.575     0.919     0.859  0.3181  0.3591  0.8774
 
              Baa    -0.0479    -6.429    -2.294    -2.144  0.0898  0.7619 -0.6414
    36 C(13)  Bbb    -0.0414    -5.561    -1.984    -1.855 -0.2734  0.6381  0.7198
              Bcc     0.0894    11.990     4.278     4.000  0.9577  0.1107  0.2656
 
              Baa    -0.0432    -5.800    -2.070    -1.935 -0.4645  0.5243  0.7137
    37 C(13)  Bbb    -0.0373    -5.001    -1.785    -1.668 -0.1621  0.7420 -0.6505
              Bcc     0.0805    10.801     3.854     3.603  0.8706  0.4179  0.2597
 
              Baa    -0.0180    -2.414    -0.861    -0.805  0.6606  0.3958  0.6379
    38 C(13)  Bbb     0.0062     0.837     0.299     0.279 -0.5412 -0.3377  0.7701
              Bcc     0.0118     1.577     0.563     0.526 -0.5203  0.8540  0.0089
 
              Baa    -0.0226    -3.030    -1.081    -1.011  0.7909  0.0587  0.6092
    39 C(13)  Bbb     0.0091     1.215     0.434     0.405 -0.6063 -0.0599  0.7930
              Bcc     0.0135     1.815     0.648     0.605 -0.0830  0.9965  0.0118
 
              Baa    -0.0550    -7.379    -2.633    -2.462 -0.5904 -0.1561  0.7919
    40 C(13)  Bbb    -0.0492    -6.603    -2.356    -2.202 -0.2576  0.9663 -0.0016
              Bcc     0.1042    13.982     4.989     4.664  0.7649  0.2049  0.6107
 
              Baa    -0.0044    -2.329    -0.831    -0.777  0.6929  0.3907  0.6060
    41 H(1)   Bbb    -0.0020    -1.078    -0.385    -0.360 -0.4923  0.8704  0.0018
              Bcc     0.0064     3.407     1.216     1.136 -0.5268 -0.2996  0.7955
 
              Baa    -0.0042    -2.215    -0.790    -0.739  0.8066  0.1023  0.5822
    42 H(1)   Bbb    -0.0017    -0.915    -0.327    -0.305 -0.1695  0.9836  0.0620
              Bcc     0.0059     3.130     1.117     1.044 -0.5663 -0.1487  0.8107
 
              Baa    -0.0024    -1.269    -0.453    -0.423  0.8425  0.2672  0.4679
    43 H(1)   Bbb     0.0008     0.408     0.146     0.136 -0.1446  0.9486 -0.2814
              Bcc     0.0016     0.861     0.307     0.287 -0.5190  0.1694  0.8378
 
              Baa    -0.0023    -1.245    -0.444    -0.415  0.8516  0.2483  0.4616
    44 H(1)   Bbb     0.0010     0.520     0.186     0.173 -0.2485  0.9667 -0.0615
              Bcc     0.0014     0.725     0.259     0.242 -0.4615 -0.0624  0.8849
 
              Baa    -0.0892     6.457     2.304     2.154  0.1909  0.7820 -0.5933
    45 O(17)  Bbb    -0.0861     6.230     2.223     2.078 -0.5571  0.5839  0.5905
              Bcc     0.1753   -12.687    -4.527    -4.232  0.8082  0.2178  0.5471
 
              Baa    -0.0048    -2.546    -0.909    -0.849  0.0274  0.9209 -0.3887
    46 H(1)   Bbb    -0.0029    -1.548    -0.552    -0.516  0.8060  0.2097  0.5535
              Bcc     0.0077     4.094     1.461     1.366 -0.5913  0.3285  0.7365
 
              Baa    -0.0884     6.399     2.283     2.134  0.9344  0.1259  0.3333
    47 O(17)  Bbb    -0.0853     6.171     2.202     2.058  0.0849  0.8299 -0.5514
              Bcc     0.1737   -12.569    -4.485    -4.193 -0.3460  0.5435  0.7648
 
              Baa    -0.0047    -2.531    -0.903    -0.844  0.9206  0.3601  0.1513
    48 H(1)   Bbb    -0.0029    -1.532    -0.547    -0.511 -0.3386  0.5425  0.7688
              Bcc     0.0076     4.064     1.450     1.356 -0.1948  0.7589 -0.6214
 

 ---------------------------------------------------------------------------------

 No NMR shielding tensors so no spin-rotation constants.
 Leave Link  601 at Mon Jan 18 14:02:47 2021, MaxMem=  4026531840 cpu:               6.3 elap:               0.9
 (Enter /opt/ohpc/pub/libs/gaussian/g16-A.03/sandybridge/g16/l9999.exe)

 Test job not archived.
 1\1\GINC-CASCADEB025\SP\ULC-wHPBE\TZVP\C24H19N1O2S2(1+,2)\RDU230\18-Ja
 n-2021\0\\#P LC-wHPBE/TZVP iop(3/107=0181300000, 3/108=0181300000) scf
 =(conver=6,fermi,ndamp=35,noincfock,novaracc,vshift=500,xqc)\\H19 C24 
 S2 N1 O2\\1,2\C,0,-6.54463,-1.193879,0.12701\C,0,-5.283469,-0.647909,0
 .131523\S,0,-3.665919,-1.107322,1.042984\C,0,-4.996815,0.486583,-0.537
 83\C,0,-1.475687,0.036886,0.221747\C,0,-1.772288,-1.094442,0.892846\C,
 0,-7.517398,-0.549399,-0.618903\C,0,-5.951198,1.159916,-1.262339\H,0,-
 2.843406,1.345523,-1.332578\C,0,-0.186077,0.430997,-0.028463\C,0,-0.77
 363,-1.912541,1.366813\C,0,0.53691,-1.552052,1.124661\C,0,0.845585,-0.
 387156,0.425435\H,0,0.045427,1.33981,-0.567415\H,0,-0.986976,-2.816418
 ,1.923251\H,0,1.342687,-2.175375,1.48462\C,0,-7.223748,0.615229,-1.306
 247\H,0,-6.782458,-2.097666,0.673346\H,0,-3.815781,-2.43941,0.928305\H
 ,0,-8.517553,-0.958288,-0.663525\H,0,-5.730059,2.077989,-1.791552\H,0,
 -7.997253,1.105431,-1.881471\S,0,-3.166075,0.851646,-0.124057\N,0,2.18
 2887,-0.044483,0.184905\C,0,3.146505,-1.044921,-0.067172\C,0,4.392012,
 -0.989098,0.539344\C,0,2.878694,-2.090316,-0.930362\C,0,5.345494,-1.94
 6131,0.285899\C,0,3.822608,-3.066997,-1.170354\C,0,5.062274,-2.995295,
 -0.567641\H,0,4.612943,-0.17489,1.215121\H,0,1.913696,-2.145516,-1.414
 069\H,0,6.317156,-1.901598,0.755555\H,0,3.591387,-3.881585,-1.84538\C,
 0,2.575405,1.310294,0.123192\C,0,3.391681,1.763268,-0.894977\C,0,2.164
 04,2.211964,1.09371\C,0,3.796835,3.081396,-0.942072\C,0,2.544098,3.531
 176,1.038879\C,0,3.368807,3.972023,0.020733\H,0,3.723839,1.07184,-1.65
 6403\H,0,1.529535,1.868488,1.898614\H,0,4.442764,3.41523,-1.744528\H,0
 ,2.220724,4.234697,1.791974\O,0,3.726245,5.28132,0.019257\H,0,4.294203
 ,5.466041,-0.728132\O,0,6.032969,-3.920806,-0.776143\H,0,5.721078,-4.5
 93785,-1.380389\\Version=EM64L-G16RevA.03\State=2-A\HF=-1926.205496\S2
 =0.764444\S2-1=0.\S2A=0.750186\RMSD=4.122e-09\Dipole=2.8484382,-0.5631
 982,-1.1926476\Quadrupole=28.5200337,0.978518,-29.4985517,4.8983082,-5
 .4335759,-3.4819531\PG=C01 [X(C24H19N1O2S2)]\\@


 A great many people think they are thinking when they
 are merely rearranging their prejudices.
                               -- William James
 Job cpu time:       0 days 19 hours 26 minutes 15.2 seconds.
 Elapsed time:       0 days  2 hours 26 minutes 15.6 seconds.
 File lengths (MBytes):  RWF=    264 Int=      0 D2E=      0 Chk=     36 Scr=      8
 Normal termination of Gaussian 16 at Mon Jan 18 14:02:47 2021.
