 Entering Gaussian System, Link 0=g16
 Input=mol_ta_ma_half_tune_n4.gjf
 Output=mol_ta_ma_half_tune_n4.log
 Initial command:
 /opt/ohpc/pub/libs/gaussian/g16-A.03/sandybridge/g16/l1.exe "/mnt/gpfs2_4m/scratch/rdu230/ondemand/projects/init_structures/wtuning/mol_ta_ma_half/tuning_mol_ta_ma_half_ocycle0/Gau-178394.inp" -scrdir="/mnt/gpfs2_4m/scratch/rdu230/ondemand/projects/init_structures/wtuning/mol_ta_ma_half/tuning_mol_ta_ma_half_ocycle0/"
 Entering Link 1 = /opt/ohpc/pub/libs/gaussian/g16-A.03/sandybridge/g16/l1.exe PID=    178395.
  
 Copyright (c) 1988,1990,1992,1993,1995,1998,2003,2009,2016,
            Gaussian, Inc.  All Rights Reserved.
  
 This is part of the Gaussian(R) 16 program.  It is based on
 the Gaussian(R) 09 system (copyright 2009, Gaussian, Inc.),
 the Gaussian(R) 03 system (copyright 2003, Gaussian, Inc.),
 the Gaussian(R) 98 system (copyright 1998, Gaussian, Inc.),
 the Gaussian(R) 94 system (copyright 1995, Gaussian, Inc.),
 the Gaussian 92(TM) system (copyright 1992, Gaussian, Inc.),
 the Gaussian 90(TM) system (copyright 1990, Gaussian, Inc.),
 the Gaussian 88(TM) system (copyright 1988, Gaussian, Inc.),
 the Gaussian 86(TM) system (copyright 1986, Carnegie Mellon
 University), and the Gaussian 82(TM) system (copyright 1983,
 Carnegie Mellon University). Gaussian is a federally registered
 trademark of Gaussian, Inc.
  
 This software contains proprietary and confidential information,
 including trade secrets, belonging to Gaussian, Inc.
  
 This software is provided under written license and may be
 used, copied, transmitted, or stored only in accord with that
 written license.
  
 The following legend is applicable only to US Government
 contracts under FAR:
  
                    RESTRICTED RIGHTS LEGEND
  
 Use, reproduction and disclosure by the US Government is
 subject to restrictions as set forth in subparagraphs (a)
 and (c) of the Commercial Computer Software - Restricted
 Rights clause in FAR 52.227-19.
  
 Gaussian, Inc.
 340 Quinnipiac St., Bldg. 40, Wallingford CT 06492
  
  
 ---------------------------------------------------------------
 Warning -- This program may not be used in any manner that
 competes with the business of Gaussian, Inc. or will provide
 assistance to any competitor of Gaussian, Inc.  The licensee
 of this program is prohibited from giving any competitor of
 Gaussian, Inc. access to this program.  By using this program,
 the user acknowledges that Gaussian, Inc. is engaged in the
 business of creating and licensing software in the field of
 computational chemistry and represents and warrants to the
 licensee that it is not a competitor of Gaussian, Inc. and that
 it will not use this program in any manner prohibited above.
 ---------------------------------------------------------------
  

 Cite this work as:
 Gaussian 16, Revision A.03,
 M. J. Frisch, G. W. Trucks, H. B. Schlegel, G. E. Scuseria, 
 M. A. Robb, J. R. Cheeseman, G. Scalmani, V. Barone, 
 G. A. Petersson, H. Nakatsuji, X. Li, M. Caricato, A. V. Marenich, 
 J. Bloino, B. G. Janesko, R. Gomperts, B. Mennucci, H. P. Hratchian, 
 J. V. Ortiz, A. F. Izmaylov, J. L. Sonnenberg, D. Williams-Young, 
 F. Ding, F. Lipparini, F. Egidi, J. Goings, B. Peng, A. Petrone, 
 T. Henderson, D. Ranasinghe, V. G. Zakrzewski, J. Gao, N. Rega, 
 G. Zheng, W. Liang, M. Hada, M. Ehara, K. Toyota, R. Fukuda, 
 J. Hasegawa, M. Ishida, T. Nakajima, Y. Honda, O. Kitao, H. Nakai, 
 T. Vreven, K. Throssell, J. A. Montgomery, Jr., J. E. Peralta, 
 F. Ogliaro, M. J. Bearpark, J. J. Heyd, E. N. Brothers, K. N. Kudin, 
 V. N. Staroverov, T. A. Keith, R. Kobayashi, J. Normand, 
 K. Raghavachari, A. P. Rendell, J. C. Burant, S. S. Iyengar, 
 J. Tomasi, M. Cossi, J. M. Millam, M. Klene, C. Adamo, R. Cammi, 
 J. W. Ochterski, R. L. Martin, K. Morokuma, O. Farkas, 
 J. B. Foresman, and D. J. Fox, Gaussian, Inc., Wallingford CT, 2016.
 
 ******************************************
 Gaussian 16:  EM64L-G16RevA.03 25-Dec-2016
                18-Jan-2021 
 ******************************************
 %mem=30GB
 %nproc=8
 Will use up to    8 processors via shared memory.
 ----------------------------------------------------------------------
 #P LC-wHPBE/TZVP iop(3/107=0181300000, 3/108=0181300000) scf=(conver=6
 ,fermi,ndamp=35,noincfock,novaracc,vshift=500,xqc)
 ----------------------------------------------------------------------
 1/38=1,172=1/1;
 2/12=2,17=6,18=5,40=1/2;
 3/5=19,7=101,11=2,25=1,30=1,74=-71,107=181300000,108=181300000/1,2,3;
 4//1;
 5/5=100002,6=6,8=3,10=500,13=1,18=-1,22=13,38=1,93=35/2,8;
 6/7=2,8=2,9=2,10=2,28=1/1;
 99/5=1,9=1/99;
 Leave Link    1 at Mon Jan 18 11:20:54 2021, MaxMem=  4026531840 cpu:               1.6 elap:               0.2
 (Enter /opt/ohpc/pub/libs/gaussian/g16-A.03/sandybridge/g16/l101.exe)
 ----------------
 H19 C24 S2 N1 O2
 ----------------
 Symbolic Z-matrix:
 Charge =  0 Multiplicity = 1
 C                    -6.54463  -1.19388   0.12701 
 C                    -5.28347  -0.64791   0.13152 
 S                    -3.66592  -1.10732   1.04298 
 C                    -4.99682   0.48658  -0.53783 
 C                    -1.47569   0.03689   0.22175 
 C                    -1.77229  -1.09444   0.89285 
 C                    -7.5174   -0.5494   -0.6189 
 C                    -5.9512    1.15992  -1.26234 
 H                    -2.84341   1.34552  -1.33258 
 C                    -0.18608   0.431    -0.02846 
 C                    -0.77363  -1.91254   1.36681 
 C                     0.53691  -1.55205   1.12466 
 C                     0.84559  -0.38716   0.42544 
 H                     0.04543   1.33981  -0.56742 
 H                    -0.98698  -2.81642   1.92325 
 H                     1.34269  -2.17537   1.48462 
 C                    -7.22375   0.61523  -1.30625 
 H                    -6.78246  -2.09767   0.67335 
 H                    -3.81578  -2.43941   0.92831 
 H                    -8.51755  -0.95829  -0.66353 
 H                    -5.73006   2.07799  -1.79155 
 H                    -7.99725   1.10543  -1.88147 
 S                    -3.16608   0.85165  -0.12406 
 N                     2.18289  -0.04448   0.18491 
 C                     3.1465   -1.04492  -0.06717 
 C                     4.39201  -0.9891    0.53934 
 C                     2.87869  -2.09032  -0.93036 
 C                     5.34549  -1.94613   0.2859 
 C                     3.82261  -3.067    -1.17035 
 C                     5.06227  -2.9953   -0.56764 
 H                     4.61294  -0.17489   1.21512 
 H                     1.9137   -2.14552  -1.41407 
 H                     6.31716  -1.9016    0.75556 
 H                     3.59139  -3.88159  -1.84538 
 C                     2.5754    1.31029   0.12319 
 C                     3.39168   1.76327  -0.89498 
 C                     2.16404   2.21196   1.09371 
 C                     3.79684   3.0814   -0.94207 
 C                     2.5441    3.53118   1.03888 
 C                     3.36881   3.97202   0.02073 
 H                     3.72384   1.07184  -1.6564 
 H                     1.52954   1.86849   1.89861 
 H                     4.44276   3.41523  -1.74453 
 H                     2.22072   4.2347    1.79197 
 O                     3.72625   5.28132   0.01926 
 H                     4.2942    5.46604  -0.72813 
 O                     6.03297  -3.92081  -0.77614 
 H                     5.72108  -4.59379  -1.38039 
 
 ITRead=  0  0  0  0  0  0  0  0  0  0  0  0  0  0  0  0  0  0  0  0
 ITRead=  0  0  0  0  0  0  0  0  0  0  0  0  0  0  0  0  0  0  0  0
 ITRead=  0  0  0  0  0  0  0  0
 MicOpt= -1 -1 -1 -1 -1 -1 -1 -1 -1 -1 -1 -1 -1 -1 -1 -1 -1 -1 -1 -1
 MicOpt= -1 -1 -1 -1 -1 -1 -1 -1 -1 -1 -1 -1 -1 -1 -1 -1 -1 -1 -1 -1
 MicOpt= -1 -1 -1 -1 -1 -1 -1 -1
 NAtoms=     48 NQM=       48 NQMF=       0 NMMI=      0 NMMIF=      0
                NMic=       0 NMicF=      0.
                    Isotopes and Nuclear Properties:
 (Nuclear quadrupole moments (NQMom) in fm**2, nuclear magnetic moments (NMagM)
  in nuclear magnetons)

  Atom         1           2           3           4           5           6           7           8           9          10
 IAtWgt=          12          12          32          12          12          12          12          12           1          12
 AtmWgt=  12.0000000  12.0000000  31.9720718  12.0000000  12.0000000  12.0000000  12.0000000  12.0000000   1.0078250  12.0000000
 NucSpn=           0           0           0           0           0           0           0           0           1           0
 AtZEff=  -0.0000000  -0.0000000  -0.0000000  -0.0000000  -0.0000000  -0.0000000  -0.0000000  -0.0000000  -0.0000000  -0.0000000
 NQMom=    0.0000000   0.0000000   0.0000000   0.0000000   0.0000000   0.0000000   0.0000000   0.0000000   0.0000000   0.0000000
 NMagM=    0.0000000   0.0000000   0.0000000   0.0000000   0.0000000   0.0000000   0.0000000   0.0000000   2.7928460   0.0000000
 AtZNuc=   6.0000000   6.0000000  16.0000000   6.0000000   6.0000000   6.0000000   6.0000000   6.0000000   1.0000000   6.0000000

  Atom        11          12          13          14          15          16          17          18          19          20
 IAtWgt=          12          12          12           1           1           1          12           1           1           1
 AtmWgt=  12.0000000  12.0000000  12.0000000   1.0078250   1.0078250   1.0078250  12.0000000   1.0078250   1.0078250   1.0078250
 NucSpn=           0           0           0           1           1           1           0           1           1           1
 AtZEff=  -0.0000000  -0.0000000  -0.0000000  -0.0000000  -0.0000000  -0.0000000  -0.0000000  -0.0000000  -0.0000000  -0.0000000
 NQMom=    0.0000000   0.0000000   0.0000000   0.0000000   0.0000000   0.0000000   0.0000000   0.0000000   0.0000000   0.0000000
 NMagM=    0.0000000   0.0000000   0.0000000   2.7928460   2.7928460   2.7928460   0.0000000   2.7928460   2.7928460   2.7928460
 AtZNuc=   6.0000000   6.0000000   6.0000000   1.0000000   1.0000000   1.0000000   6.0000000   1.0000000   1.0000000   1.0000000

  Atom        21          22          23          24          25          26          27          28          29          30
 IAtWgt=           1           1          32          14          12          12          12          12          12          12
 AtmWgt=   1.0078250   1.0078250  31.9720718  14.0030740  12.0000000  12.0000000  12.0000000  12.0000000  12.0000000  12.0000000
 NucSpn=           1           1           0           2           0           0           0           0           0           0
 AtZEff=  -0.0000000  -0.0000000  -0.0000000  -0.0000000  -0.0000000  -0.0000000  -0.0000000  -0.0000000  -0.0000000  -0.0000000
 NQMom=    0.0000000   0.0000000   0.0000000   2.0440000   0.0000000   0.0000000   0.0000000   0.0000000   0.0000000   0.0000000
 NMagM=    2.7928460   2.7928460   0.0000000   0.4037610   0.0000000   0.0000000   0.0000000   0.0000000   0.0000000   0.0000000
 AtZNuc=   1.0000000   1.0000000  16.0000000   7.0000000   6.0000000   6.0000000   6.0000000   6.0000000   6.0000000   6.0000000

  Atom        31          32          33          34          35          36          37          38          39          40
 IAtWgt=           1           1           1           1          12          12          12          12          12          12
 AtmWgt=   1.0078250   1.0078250   1.0078250   1.0078250  12.0000000  12.0000000  12.0000000  12.0000000  12.0000000  12.0000000
 NucSpn=           1           1           1           1           0           0           0           0           0           0
 AtZEff=  -0.0000000  -0.0000000  -0.0000000  -0.0000000  -0.0000000  -0.0000000  -0.0000000  -0.0000000  -0.0000000  -0.0000000
 NQMom=    0.0000000   0.0000000   0.0000000   0.0000000   0.0000000   0.0000000   0.0000000   0.0000000   0.0000000   0.0000000
 NMagM=    2.7928460   2.7928460   2.7928460   2.7928460   0.0000000   0.0000000   0.0000000   0.0000000   0.0000000   0.0000000
 AtZNuc=   1.0000000   1.0000000   1.0000000   1.0000000   6.0000000   6.0000000   6.0000000   6.0000000   6.0000000   6.0000000

  Atom        41          42          43          44          45          46          47          48
 IAtWgt=           1           1           1           1          16           1          16           1
 AtmWgt=   1.0078250   1.0078250   1.0078250   1.0078250  15.9949146   1.0078250  15.9949146   1.0078250
 NucSpn=           1           1           1           1           0           1           0           1
 AtZEff=  -0.0000000  -0.0000000  -0.0000000  -0.0000000  -0.0000000  -0.0000000  -0.0000000  -0.0000000
 NQMom=    0.0000000   0.0000000   0.0000000   0.0000000   0.0000000   0.0000000   0.0000000   0.0000000
 NMagM=    2.7928460   2.7928460   2.7928460   2.7928460   0.0000000   2.7928460   0.0000000   2.7928460
 AtZNuc=   1.0000000   1.0000000   1.0000000   1.0000000   8.0000000   1.0000000   8.0000000   1.0000000
 Leave Link  101 at Mon Jan 18 11:20:54 2021, MaxMem=  4026531840 cpu:               0.8 elap:               0.1
 (Enter /opt/ohpc/pub/libs/gaussian/g16-A.03/sandybridge/g16/l202.exe)
                          Input orientation:                          
 ---------------------------------------------------------------------
 Center     Atomic      Atomic             Coordinates (Angstroms)
 Number     Number       Type             X           Y           Z
 ---------------------------------------------------------------------
      1          6           0       -6.544630   -1.193879    0.127010
      2          6           0       -5.283469   -0.647909    0.131523
      3         16           0       -3.665919   -1.107322    1.042984
      4          6           0       -4.996815    0.486583   -0.537830
      5          6           0       -1.475687    0.036886    0.221747
      6          6           0       -1.772288   -1.094442    0.892846
      7          6           0       -7.517398   -0.549399   -0.618903
      8          6           0       -5.951198    1.159916   -1.262339
      9          1           0       -2.843406    1.345523   -1.332578
     10          6           0       -0.186077    0.430997   -0.028463
     11          6           0       -0.773630   -1.912541    1.366813
     12          6           0        0.536910   -1.552052    1.124661
     13          6           0        0.845585   -0.387156    0.425435
     14          1           0        0.045427    1.339810   -0.567415
     15          1           0       -0.986976   -2.816418    1.923251
     16          1           0        1.342687   -2.175375    1.484620
     17          6           0       -7.223748    0.615229   -1.306247
     18          1           0       -6.782458   -2.097666    0.673346
     19          1           0       -3.815781   -2.439410    0.928305
     20          1           0       -8.517553   -0.958288   -0.663525
     21          1           0       -5.730059    2.077989   -1.791552
     22          1           0       -7.997253    1.105431   -1.881471
     23         16           0       -3.166075    0.851646   -0.124057
     24          7           0        2.182887   -0.044483    0.184905
     25          6           0        3.146505   -1.044921   -0.067172
     26          6           0        4.392012   -0.989098    0.539344
     27          6           0        2.878694   -2.090316   -0.930362
     28          6           0        5.345494   -1.946131    0.285899
     29          6           0        3.822608   -3.066997   -1.170354
     30          6           0        5.062274   -2.995295   -0.567641
     31          1           0        4.612943   -0.174890    1.215121
     32          1           0        1.913696   -2.145516   -1.414069
     33          1           0        6.317156   -1.901598    0.755555
     34          1           0        3.591387   -3.881585   -1.845380
     35          6           0        2.575405    1.310294    0.123192
     36          6           0        3.391681    1.763268   -0.894977
     37          6           0        2.164040    2.211964    1.093710
     38          6           0        3.796835    3.081396   -0.942072
     39          6           0        2.544098    3.531176    1.038879
     40          6           0        3.368807    3.972023    0.020733
     41          1           0        3.723839    1.071840   -1.656403
     42          1           0        1.529535    1.868488    1.898614
     43          1           0        4.442764    3.415230   -1.744528
     44          1           0        2.220724    4.234697    1.791974
     45          8           0        3.726245    5.281320    0.019257
     46          1           0        4.294203    5.466041   -0.728132
     47          8           0        6.032969   -3.920806   -0.776143
     48          1           0        5.721078   -4.593785   -1.380389
 ---------------------------------------------------------------------
                    Distance matrix (angstroms):
                    1          2          3          4          5
     1  C    0.000000
     2  C    1.374275   0.000000
     3  S    3.022164   1.912666   0.000000
     4  C    2.379432   1.348064   2.609749   0.000000
     5  C    5.217082   3.869921   2.603989   3.630086   0.000000
     6  C    4.834422   3.620414   1.899617   3.865753   1.348425
     7  C    1.384925   2.358661   4.231671   2.726384   6.128025
     8  C    2.796927   2.378433   3.959467   1.374459   4.847051
     9  H    4.719960   3.474373   3.512303   2.450831   2.449309
    10  C    6.564723   5.212777   3.952686   4.837948   1.371504
    11  C    5.946262   4.843953   3.019698   5.217159   2.367346
    12  C    7.160433   5.973325   4.227083   6.127154   2.718552
    13  C    7.440103   6.141635   4.610171   5.985394   2.368460
    14  H    7.094410   5.730329   4.728206   5.114008   2.152713
    15  H    6.061900   5.135423   3.297365   5.748525   3.357871
    16  H    8.063263   6.933251   5.140225   7.166981   3.798971
    17  C    2.405888   2.725323   4.598284   2.359289   5.975739
    18  H    1.082532   2.154608   3.290931   3.366573   5.737776
    19  H    3.104841   2.449172   1.345388   3.479343   3.479555
    20  H    2.138428   3.344807   5.145166   3.807761   7.166726
    21  H    3.879372   3.365736   4.737243   2.154539   5.130220
    22  H    3.380967   3.806701   5.675312   3.345291   6.935138
    23  S    3.957504   2.607172   2.334392   1.912090   1.908095
    24  N    8.803069   7.490891   6.006202   7.235503   3.659664
    25  C    9.694225   8.441656   6.902569   8.299439   4.755885
    26  C   10.946328   9.690081   8.074521   9.564937   5.965183
    27  C    9.524740   8.356377   6.905963   8.295669   4.981263
    28  C   11.914956  10.709065   9.081979  10.656453   7.103871
    29  C   10.614676   9.511441   8.050915   9.529441   6.296345
    30  C   11.766387  10.631719   9.074134  10.644700   7.249979
    31  H   11.256721   9.966790   8.332984   9.790701   6.172767
    32  H    8.650076   7.512048   6.184421   7.446536   4.350482
    33  H   12.896568  11.684847  10.018746  11.635385   8.048048
    34  H   10.670189   9.650278   8.289009   9.723569   6.730726
    35  C    9.457586   8.099168   6.756109   7.645519   4.247661
    36  C   10.417267   9.062323   7.861660   8.492605   5.283819
    37  C    9.400809   8.035550   6.708849   7.544316   4.328845
    38  C   11.241299   9.874829   8.785130   9.177404   6.198629
    39  C   10.284096   8.919577   7.751128   8.283775   5.388547
    40  C   11.179180   9.809074   8.736825   9.079863   6.244584
    41  H   10.665622   9.342688   8.163575   8.811557   5.624380
    42  H    8.815260   7.474750   6.048164   7.102054   3.898462
    43  H   12.061068  10.706459   9.694041   9.956844   7.092779
    44  H   10.443801   9.105485   7.984405   8.459859   5.809534
    45  O   12.142104  10.786255   9.823790   9.969535   7.389532
    46  H   12.750141  11.395227  10.474230  10.542971   7.979325
    47  O   12.901466  11.815138  10.261254  11.880152   8.546287
    48  H   12.817145  11.787954  10.302615  11.890890   8.706514
                    6          7          8          9         10
     6  C    0.000000
     7  C    5.965630   0.000000
     8  C    5.214426   2.405982   0.000000
     9  H    3.471777   5.093747   3.114122   0.000000
    10  C    2.385758   7.420112   5.940572   3.098140   0.000000
    11  C    1.375227   7.160980   6.569600   4.710166   2.790015
    12  C    2.365489   8.301639   7.426176   5.085322   2.405180
    13  C    2.751724   8.429499   7.172048   4.438631   1.392740
    14  H    3.370761   7.795389   6.039436   2.988455   1.081667
    15  H    2.154913   7.365347   7.113559   5.600760   3.872510
    16  H    3.349878   9.250390   8.477659   6.152780   3.379307
    17  C    6.121879   1.383846   1.384917   4.440880   7.155102
    18  H    5.114337   2.146433   3.879396   5.603161   7.099219
    19  H    2.446643   4.434858   4.723778   4.514734   4.725399
    20  H    6.923830   1.081430   3.381057   6.160448   8.470355
    21  H    5.738838   3.387160   1.082510   3.013292   6.046222
    22  H    7.161457   2.136071   2.138372   5.188551   8.056238
    23  S    2.600768   4.598023   3.024504   1.344824   3.011058
    24  N    4.152951   9.746619   8.349157   5.431251   2.425613
    25  C    5.011847  10.689657   9.437051   6.572253   3.644988
    26  C    6.175326  11.973676  10.716637   7.829803   4.826797
    27  C    5.093867  10.514284   9.414946   6.686494   4.069799
    28  C    7.194205  12.970101  11.817776   8.972878   6.028917
    29  C    6.280974  11.629193  10.649063   7.995773   5.441455
    30  C    7.242755  12.815349  11.791732   9.051387   6.290896
    31  H    6.459149  12.273918  10.932547   8.024934   4.994416
    32  H    4.473599   9.598198   8.532612   5.901187   3.601023
    33  H    8.130772  13.968266  12.804580   9.940824   6.953253
    34  H    6.635892  11.662453  10.808219   8.306153   6.014049
    35  C    5.027679  10.289501   8.639749   5.611062   2.902059
    36  C    6.166798  11.154938   9.369545   6.264369   3.914862
    37  C    5.144642  10.212170   8.515566   5.631351   3.155022
    38  C    7.198589  11.886925   9.940765   6.874485   4.870614
    39  C    6.328417  10.983307   9.115291   6.279020   4.266636
    40  C    7.270523  11.805162   9.819201   6.879066   5.017817
    41  H    6.434195  11.404834   9.683459   6.580917   4.283493
    42  H    4.548907   9.696962   8.151998   5.462299   2.953529
    43  H    8.119098  12.650328  10.646755   7.585622   5.768596
    44  H    6.719546  11.114447   9.250049   6.614799   4.855390
    45  O    8.464477  12.681642  10.596290   7.776778   6.231707
    46  H    9.081290  13.255616  11.126380   8.263745   6.775995
    47  O    8.467343  13.964367  13.025758  10.336047   7.627172
    48  H    8.576919  13.863411  13.013879  10.422478   7.872142
                   11         12         13         14         15
    11  C    0.000000
    12  C    1.380618   0.000000
    13  C    2.415543   1.393262   0.000000
    14  H    3.871677   3.386376   2.146722   0.000000
    15  H    1.082651   2.135087   3.391614   4.954140   0.000000
    16  H    2.135827   1.080453   2.136986   4.272032   2.455741
    17  C    7.425557   8.416308   8.313702   7.342465   7.816853
    18  H    6.051544   7.353538   7.821403   7.744401   5.972142
    19  H    3.118423   4.446558   5.117906   5.606122   3.022282
    20  H    8.062333   9.248430   9.443536   8.866517   8.176408
    21  H    7.103928   7.807458   7.364174   5.949761   7.762204
    22  H    8.475862   9.430323   9.259882   8.152691   8.888239
    23  S    3.948065   4.587936   4.234382   3.278508   4.732297
    24  N    3.691550   2.421806   1.401305   2.655370   4.555601
    25  C    4.263395   2.913354   2.443266   3.943839   4.917891
    26  C    5.312373   3.939711   3.598952   5.053863   5.847034
    27  C    4.318343   3.161772   2.978669   4.463731   4.859397
    28  C    6.213951   4.897071   4.764352   6.294145   6.598371
    29  C    5.375443   4.284619   4.311700   5.835287   5.724096
    30  C    6.242775   5.042396   5.056585   6.630376   6.544461
    31  H    5.661944   4.303348   3.855081   5.131662   6.232031
    32  H    3.874184   2.948371   2.759795   4.044101   4.472327
    33  H    7.117092   5.802557   5.686880   7.182727   7.453238
    34  H    5.766168   4.855687   4.990698   6.439720   6.024829
    35  C    4.811371   3.653960   2.442328   2.622708   5.741126
    36  C    5.998090   4.818714   3.584748   3.388809   6.934592
    37  C    5.071098   4.100771   2.990040   2.829931   5.991800
    38  C    7.152587   6.030534   4.755082   4.152897   8.116596
    39  C    6.383488   5.465837   4.314462   3.691290   7.317277
    40  C    7.321189   6.305054   5.053006   4.280107   8.287059
    41  H    6.186565   4.977514   3.840191   3.845571   7.079848
    42  H    4.459099   3.644777   2.779564   2.926325   5.318062
    43  H    8.079378   6.939873   5.666266   5.002953   9.042572
    44  H    6.850945   6.063580   5.011982   4.321921   7.747567
    45  O    8.591648   7.621598   6.371405   5.424768   9.561015
    46  H    9.193215   8.173354   6.890834   5.924838  10.174469
    47  O    7.413176   6.279388   6.390573   7.972974   7.601712
    48  H    7.544363   6.511760   6.687837   8.251151   7.685770
                   16         17         18         19         20
    16  H    0.000000
    17  C    9.431872   0.000000
    18  H    8.165916   3.387230   0.000000
    19  H    5.195093   5.092964   2.997160   0.000000
    20  H   10.164653   2.136113   2.469000   5.180184   0.000000
    21  H    8.879648   2.146228   4.961790   5.609722   4.273353
    22  H   10.456038   1.081430   4.273482   6.159988   2.452150
    23  S    5.663888   4.232987   4.734186   3.515769   5.674963
    24  N    2.633609   9.546912   9.210404   6.501718  10.772850
    25  C    2.634339  10.575138  10.012040   7.170007  11.679614
    26  C    3.405757  11.870381  11.230123   8.344014  12.965520
    27  C    2.863336  10.465209   9.793354   6.956472  11.455441
    28  C    4.184728  12.925995  12.135085   9.197009  13.930589
    29  C    3.740840  11.644709  10.807694   7.946271  12.529290
    30  C    4.326589  12.826837  11.943344   9.020351  13.732090
    31  H    3.843064  12.128019  11.569172   8.732337  13.287323
    32  H    2.954546   9.546006   8.943304   6.196773  10.525388
    33  H    5.035060  13.926289  13.101339  10.148670  14.932254
    34  H    4.365399  11.725150  10.823262   8.039859  12.512748
    35  C    3.939920   9.927226   9.974290   7.453573  11.349850
    36  C    5.037238  10.685245  10.994524   8.540162  12.218441
    37  C    4.480644   9.820383   9.939288   7.577658  11.279840
    38  C    6.288507  11.299020  11.889226   9.587989  12.963055
    39  C    5.848658  10.460075  10.899639   8.724000  12.058756
    40  C    6.636161  11.190673  11.845472   9.672046  12.886494
    41  H    5.106889  10.962699  11.218546   8.709504  12.448249
    42  H    4.069291   9.405411   9.290903   6.933389  10.747055
    43  H    7.161895  12.005815  12.737494  10.470168  13.721007
    44  H    6.477225  10.578165  11.063789   9.040410  12.178143
    45  O    7.964354  11.976298  12.857298  10.831352  13.758978
    46  H    8.485220  12.511107  13.485779  11.446038  14.332385
    47  O    5.491477  14.021311  13.025361  10.104333  14.849474
    48  H    5.764312  13.953775  12.914598  10.046048  14.712897
                   21         22         23         24         25
    21  H    0.000000
    22  H    2.468628   0.000000
    23  S    3.295219   5.147154   0.000000
    24  N    8.427692  10.451194   5.432301   0.000000
    25  C    9.566579  11.493435   6.591576   1.411729   0.000000
    26  C   10.830347  12.796143   7.807248   2.428612   1.386458
    27  C    9.603491  11.375572   6.770857   2.431748   1.381908
    28  C   11.965668  13.857793   8.968970   3.691686   2.402580
    29  C   10.867852  12.554838   8.080358   3.696079   2.400608
    30  C   11.987936  13.751122   9.094034   4.191001   2.779316
    31  H   11.004237  13.047802   7.959918   2.642636   2.133464
    32  H    8.741137  10.440978   6.037482   2.653963   2.131961
    33  H   12.940644  14.862652   9.913916   4.568008   3.385824
    34  H   11.063850  12.616188   8.427913   4.563911   3.377367
    35  C    8.557823  10.762980   5.765074   1.411843   2.430932
    36  C    9.171098  11.450491   6.665548   2.428022   2.937907
    37  C    8.405920  10.645562   5.634141   2.432660   3.594466
    38  C    9.617180  11.995308   7.356837   3.694053   4.267888
    39  C    8.864805  11.204140   6.413921   3.693925   4.746252
    40  C    9.468955  11.875313   7.243093   4.191143   5.022636
    41  H    9.508248  11.723301   7.061691   2.647853   2.709178
    42  H    8.146344  10.277694   5.212861   2.650118   3.868702
    43  H   10.260446  12.653377   8.190990   4.560633   4.938295
    44  H    8.983763  11.300157   6.643328   4.571158   5.673435
    45  O   10.147021  12.589330   8.194304   5.547393   6.353337
    46  H   10.634641  13.092937   8.792798   5.971362   6.644299
    47  O   13.243316  14.944294  10.383830   5.547308   4.135823
    48  H   13.259342  14.863538  10.498218   5.972026   4.576833
                   26         27         28         29         30
    26  C    0.000000
    27  C    2.379674   0.000000
    28  C    1.374509   2.754121   0.000000
    29  C    2.750446   1.379303   2.386670   0.000000
    30  C    2.387361   2.391354   1.381843   1.380281   0.000000
    31  H    1.080935   3.358508   2.130112   3.831371   3.366723
    32  H    3.360830   1.080852   3.834955   2.133652   3.369289
    33  H    2.141397   3.834182   1.080133   3.360067   2.126441
    34  H    3.833326   2.133971   3.371235   1.082902   2.140476
    35  C    2.959805   3.572969   4.278337   4.731749   5.019947
    36  C    3.260898   3.887739   4.355628   4.857262   5.053905
    37  C    3.939287   4.808036   5.297543   5.978651   6.186711
    38  C    4.372385   5.252592   5.402063   6.152683   6.218336
    39  C    4.908890   5.965822   6.198039   7.074686   7.177530
    40  C    5.092016   6.156033   6.245170   7.153490   7.194271
    41  H    3.084676   3.352706   3.938331   4.168449   4.417963
    42  H    4.266988   5.049303   5.631493   6.247860   6.497618
    43  H    4.961527   5.781022   5.803598   6.537089   6.547036
    44  H    5.794101   6.917357   7.087671   8.040905   8.118804
    45  O    6.327075   7.480718   7.411418   8.433200   8.404271
    46  H    6.579125   7.690455   7.554718   8.557494   8.497641
    47  O    3.608068   3.650196   2.345186   2.402101   1.357311
    48  H    4.294829   3.814319   3.150817   2.445278   1.910432
                   31         32         33         34         35
    31  H    0.000000
    32  H    4.252287   0.000000
    33  H    2.469223   4.915000   0.000000
    34  H    4.914248   2.452471   4.256175   0.000000
    35  C    2.747661   3.839746   4.971603   5.644741   0.000000
    36  C    3.114555   4.210996   4.971308   5.727784   1.381362
    37  C    3.421833   5.033812   5.855264   6.914254   1.387132
    38  C    3.990352   5.575805   5.836453   7.024335   2.400725
    39  C    4.248071   6.216043   6.620519   8.022767   2.402453
    40  C    4.491250   6.449829   6.613029   8.075338   2.779350
    41  H    3.254304   3.699557   4.624302   4.958798   2.131366
    42  H    3.761643   5.218590   6.200117   7.164640   2.134841
    43  H    4.655904   6.117784   6.167043   7.347008   3.377301
    44  H    5.049745   7.147034   7.450439   8.999061   3.385671
    45  O    5.655665   7.778024   7.671327   9.351678   4.135732
    46  H    5.974774   8.004569   7.783044   9.440355   4.577035
    47  O    4.473644   4.530675   2.550306   2.665732   6.334663
    48  H    5.243212   4.526733   3.487899   2.293257   6.856687
                   36         37         38         39         40
    36  C    0.000000
    37  C    2.379770   0.000000
    38  C    1.379793   2.750698   0.000000
    39  C    2.753851   1.373962   2.386591   0.000000
    40  C    2.391160   2.387583   1.379644   1.382430   0.000000
    41  H    1.080820   3.360949   2.133990   3.834667   3.368960
    42  H    3.358989   1.080945   3.831617   2.129088   3.366633
    43  H    2.134360   3.833540   1.082869   3.371310   2.139988
    44  H    3.833902   2.140615   3.359946   1.080123   2.127061
    45  O    3.650267   3.607753   2.401833   2.345230   1.357211
    46  H    3.814828   4.294848   2.445338   3.151015   1.910300
    47  O    6.268909   7.488380   7.352459   8.426064   8.368364
    48  H    6.787771   8.067955   7.924849   9.053234   8.992741
                   41         42         43         44         45
    41  H    0.000000
    42  H    4.252971   0.000000
    43  H    2.452773   4.914448   0.000000
    44  H    4.914705   2.467399   4.256270   0.000000
    45  O    4.530735   4.472688   2.665826   2.550400   0.000000
    46  H    4.527251   5.242668   2.293678   3.488045   0.956707
    47  O    5.570768   7.807123   7.568616   9.361659   9.520124
    48  H    6.013689   8.371491   8.118559  10.012915  10.171336
                   46         47         48
    46  H    0.000000
    47  O    9.546649   0.000000
    48  H   10.181430   0.956708   0.000000
 Stoichiometry    C24H19NO2S2
 Framework group  C1[X(C24H19NO2S2)]
 Deg. of freedom   138
 Full point group                 C1      NOp   1
 Largest Abelian subgroup         C1      NOp   1
 Largest concise Abelian subgroup C1      NOp   1
                         Standard orientation:                         
 ---------------------------------------------------------------------
 Center     Atomic      Atomic             Coordinates (Angstroms)
 Number     Number       Type             X           Y           Z
 ---------------------------------------------------------------------
      1          6           0        6.544630   -1.193879   -0.127010
      2          6           0        5.283469   -0.647909   -0.131523
      3         16           0        3.665919   -1.107322   -1.042984
      4          6           0        4.996815    0.486583    0.537830
      5          6           0        1.475687    0.036886   -0.221747
      6          6           0        1.772288   -1.094442   -0.892846
      7          6           0        7.517398   -0.549399    0.618903
      8          6           0        5.951198    1.159916    1.262339
      9          1           0        2.843406    1.345523    1.332578
     10          6           0        0.186077    0.430997    0.028463
     11          6           0        0.773630   -1.912541   -1.366813
     12          6           0       -0.536910   -1.552052   -1.124661
     13          6           0       -0.845585   -0.387156   -0.425435
     14          1           0       -0.045427    1.339810    0.567415
     15          1           0        0.986976   -2.816418   -1.923251
     16          1           0       -1.342687   -2.175375   -1.484620
     17          6           0        7.223748    0.615229    1.306247
     18          1           0        6.782458   -2.097666   -0.673346
     19          1           0        3.815781   -2.439410   -0.928305
     20          1           0        8.517553   -0.958288    0.663525
     21          1           0        5.730059    2.077989    1.791552
     22          1           0        7.997253    1.105431    1.881471
     23         16           0        3.166075    0.851646    0.124057
     24          7           0       -2.182887   -0.044483   -0.184905
     25          6           0       -3.146505   -1.044921    0.067172
     26          6           0       -4.392012   -0.989098   -0.539344
     27          6           0       -2.878694   -2.090316    0.930362
     28          6           0       -5.345494   -1.946131   -0.285899
     29          6           0       -3.822608   -3.066997    1.170354
     30          6           0       -5.062274   -2.995295    0.567641
     31          1           0       -4.612943   -0.174890   -1.215121
     32          1           0       -1.913696   -2.145516    1.414069
     33          1           0       -6.317156   -1.901598   -0.755555
     34          1           0       -3.591387   -3.881585    1.845380
     35          6           0       -2.575405    1.310294   -0.123192
     36          6           0       -3.391681    1.763268    0.894977
     37          6           0       -2.164040    2.211964   -1.093710
     38          6           0       -3.796835    3.081396    0.942072
     39          6           0       -2.544098    3.531176   -1.038879
     40          6           0       -3.368807    3.972023   -0.020733
     41          1           0       -3.723839    1.071840    1.656403
     42          1           0       -1.529535    1.868488   -1.898614
     43          1           0       -4.442764    3.415230    1.744528
     44          1           0       -2.220724    4.234697   -1.791974
     45          8           0       -3.726245    5.281320   -0.019257
     46          1           0       -4.294203    5.466041    0.728132
     47          8           0       -6.032969   -3.920806    0.776143
     48          1           0       -5.721078   -4.593785    1.380389
 ---------------------------------------------------------------------
 Rotational constants (GHZ):           0.2280536           0.0702108           0.0568934
 Leave Link  202 at Mon Jan 18 11:20:54 2021, MaxMem=  4026531840 cpu:               0.3 elap:               0.1
 (Enter /opt/ohpc/pub/libs/gaussian/g16-A.03/sandybridge/g16/l301.exe)
 Standard basis: TZVP (5D, 7F)
 Ernie: Thresh=  0.10000D-02 Tol=  0.10000D-05 Strict=F.
 There are   700 symmetry adapted cartesian basis functions of A   symmetry.
 There are   671 symmetry adapted basis functions of A   symmetry.
   671 basis functions,  1191 primitive gaussians,   700 cartesian basis functions
   109 alpha electrons      109 beta electrons
       nuclear repulsion energy      2827.2462800785 Hartrees.
 IExCor=33909 DFT=T Ex+Corr=LC-wHPBE ExCW=0 ScaHFX=  1.000000
 ScaDFX=  1.000000  1.000000  1.000000  1.000000 ScalE2=  1.000000  1.000000
 IRadAn=      5 IRanWt=     -1 IRanGd=            0 ICorTp=0 IEmpDi=  4
 HFx  wShort=  0.000000 wLong=  0.181300 cFull=  0.000000 cShort=  0.000000 cLong=  1.000000
 DFx  wShort=  0.000000 wLong=  0.181300 cFull=  0.000000 cShort=  1.000000 cLong=  0.000000
 NAtoms=   48 NActive=   48 NUniq=   48 SFac= 1.00D+00 NAtFMM=   60 NAOKFM=F Big=F
 Integral buffers will be    131072 words long.
 Raffenetti 2 integral format.
 Two-electron integral symmetry is turned on.
 Leave Link  301 at Mon Jan 18 11:20:54 2021, MaxMem=  4026531840 cpu:               0.4 elap:               0.1
 (Enter /opt/ohpc/pub/libs/gaussian/g16-A.03/sandybridge/g16/l302.exe)
 NPDir=0 NMtPBC=     1 NCelOv=     1 NCel=       1 NClECP=     1 NCelD=      1
         NCelK=      1 NCelE2=     1 NClLst=     1 CellRange=     0.0.
 One-electron integrals computed using PRISM.
 One-electron integral symmetry used in STVInt
 NBasis=   671 RedAO= T EigKep=  6.34D-06  NBF=   671
 NBsUse=   671 1.00D-06 EigRej= -1.00D+00 NBFU=   671
 Precomputing XC quadrature grid using
 IXCGrd= 4 IRadAn=           5 IRanWt=          -1 IRanGd=           0 AccXCQ= 0.00D+00.
 Generated NRdTot=       0 NPtTot=           0 NUsed=           0 NTot=          32
 NSgBfM=   657   657   657   657   657 MxSgAt=    48 MxSgA2=    48.
 Leave Link  302 at Mon Jan 18 11:20:55 2021, MaxMem=  4026531840 cpu:              10.2 elap:               1.3
 (Enter /opt/ohpc/pub/libs/gaussian/g16-A.03/sandybridge/g16/l303.exe)
 DipDrv:  MaxL=1.
 Leave Link  303 at Mon Jan 18 11:20:55 2021, MaxMem=  4026531840 cpu:               0.9 elap:               0.2
 (Enter /opt/ohpc/pub/libs/gaussian/g16-A.03/sandybridge/g16/l401.exe)
 ExpMin= 9.52D-02 ExpMax= 6.07D+04 ExpMxC= 2.07D+03 IAcc=3 IRadAn=         5 AccDes= 0.00D+00
 Harris functional with IExCor=33909 and IRadAn=       5 diagonalized for initial guess.
 HarFok:  IExCor=33909 AccDes= 0.00D+00 IRadAn=         5 IDoV= 1 UseB2=F ITyADJ=14
 ICtDFT=  3500011 ScaDFX=  1.000000  1.000000  1.000000  1.000000
 FoFCou: FMM=F IPFlag=           0 FMFlag=      100000 FMFlg1=           0
         NFxFlg=           0 DoJE=T BraDBF=F KetDBF=T FulRan=T
         wScrn=  0.000000 ICntrl=       500 IOpCl=  0 I1Cent=   200000004 NGrid=           0
         NMat0=    1 NMatS0=      1 NMatT0=    0 NMatD0=    1 NMtDS0=    0 NMtDT0=    0
 Petite list used in FoFCou.
 Harris En= -1905.23150819298    
 JPrj=0 DoOrth=F DoCkMO=F.
 Leave Link  401 at Mon Jan 18 11:21:02 2021, MaxMem=  4026531840 cpu:              56.5 elap:               7.1
 (Enter /opt/ohpc/pub/libs/gaussian/g16-A.03/sandybridge/g16/l502.exe)
 Integral symmetry usage will be decided dynamically.
 Closed shell SCF:
 Using DIIS extrapolation, IDIIS=    10.
 NGot=  4026531840 LenX=  4025539370 LenY=  4025048670
 Requested convergence on RMS density matrix=1.00D-06 within  32 cycles.
 Requested convergence on MAX density matrix=1.00D-04.
 Requested convergence on             energy=1.00D-04.
 Virtual orbitals will be shifted by   0.500 hartree.
 No special actions if energy rises.
 Dynamic level shift is on during FON iterations.

 Cycle   1  Pass 1  IDiag  1:
 FoFJK:  IHMeth= 1 ICntrl=       0 DoSepK=T KAlg= 0 I1Cent=           0 FoldK=F
 IRaf=         1 NMat=       1 IRICut=       1 DoRegI=T DoRafI=F ISym2E= 0 IDoP0=0 IntGTp=1.
 FoFCou: FMM=F IPFlag=           0 FMFlag=      100000 FMFlg1=           0
         NFxFlg=           0 DoJE=T BraDBF=F KetDBF=F FulRan=T
         wScrn=  0.000000 ICntrl=       500 IOpCl=  0 I1Cent=           0 NGrid=           0
         NMat0=    1 NMatS0=      1 NMatT0=    0 NMatD0=    1 NMtDS0=    0 NMtDT0=    0
 Symmetry not used in FoFCou.
 E= -1925.81029191215    
 DIIS: error= 2.08D-02 at cycle   1 NSaved=   1.
 NSaved= 1 IEnMin= 1 EnMin= -1925.81029191215     IErMin= 1 ErrMin= 2.08D-02
 ErrMax= 2.08D-02  0.00D+00 EMaxC= 1.00D+00 BMatC= 6.48D-01 BMatP= 6.48D-01
 IDIUse=1 WtCom= 1.00D+00 WtEn= 0.00D+00
 Coeff-Com:  0.100D+01
 Coeff:      0.100D+01
 Gap=     0.371 Goal=   None    Shift=    0.500
 T= 1278. Gap= 0.653 NK=0 IS=  110 IE=  671 IFin=  109
          NO(<0.9)=   0  NV(>0.1)=   0    109.00e < EF      0.00e >EF  Err=0.0D+00
 GapD=    0.371 DampG=1.000 DampE=0.500 DampFc=0.5000 IDamp=-1.
 Damping current iteration by 5.00D-01
 RMSDP=4.16D-03 MaxDP=2.57D-01              OVMax= 1.05D-01

 Cycle   2  Pass 1  IDiag  1:
 E= -1926.20459112750     Delta-E=       -0.394299215356 Rises=F Damp=T
 DIIS: error= 8.91D-03 at cycle   2 NSaved=   2.
 NSaved= 2 IEnMin= 2 EnMin= -1926.20459112750     IErMin= 2 ErrMin= 8.91D-03
 ErrMax= 8.91D-03  0.00D+00 EMaxC= 1.00D+00 BMatC= 9.08D-02 BMatP= 6.48D-01
 IDIUse=1 WtCom= 1.00D+00 WtEn= 0.00D+00
 Coeff-Com: -0.479D+00 0.148D+01
 Coeff:     -0.479D+00 0.148D+01
 Gap=     0.269 Goal=   None    Shift=    0.500
 T= 1150. Gap= 0.741 NK=0 IS=  110 IE=  671 IFin=  109
          NO(<0.9)=   0  NV(>0.1)=   0    109.00e < EF      0.00e >EF  Err=0.0D+00
 GapD=    0.269 DampG=1.000 DampE=1.000 DampFc=1.0000 IDamp=-1.
 RMSDP=1.73D-03 MaxDP=1.02D-01 DE=-3.94D-01 OVMax= 1.99D-02

 Cycle   3  Pass 1  IDiag  1:
 E= -1926.42699598305     Delta-E=       -0.222404855546 Rises=F Damp=F
 DIIS: error= 2.74D-03 at cycle   3 NSaved=   3.
 NSaved= 3 IEnMin= 3 EnMin= -1926.42699598305     IErMin= 3 ErrMin= 2.74D-03
 ErrMax= 2.74D-03  0.00D+00 EMaxC= 1.00D+00 BMatC= 8.95D-03 BMatP= 9.08D-02
 IDIUse=1 WtCom= 1.00D+00 WtEn= 0.00D+00
 Coeff-Com:  0.638D-01 0.619D-01 0.874D+00
 Coeff:      0.638D-01 0.619D-01 0.874D+00
 Gap=     0.258 Goal=   None    Shift=    0.500
 T=  885. Gap= 0.754 NK=0 IS=  110 IE=  671 IFin=  109
          NO(<0.9)=   0  NV(>0.1)=   0    109.00e < EF      0.00e >EF  Err=0.0D+00
 GapD=    0.258 DampG=1.000 DampE=1.000 DampFc=1.0000 IDamp=-1.
 RMSDP=6.92D-04 MaxDP=4.43D-02 DE=-2.22D-01 OVMax= 1.03D-02

 Cycle   4  Pass 1  IDiag  1:
 E= -1926.43538364165     Delta-E=       -0.008387658598 Rises=F Damp=F
 DIIS: error= 1.36D-03 at cycle   4 NSaved=   4.
 NSaved= 4 IEnMin= 4 EnMin= -1926.43538364165     IErMin= 4 ErrMin= 1.36D-03
 ErrMax= 1.36D-03  0.00D+00 EMaxC= 1.00D+00 BMatC= 1.26D-03 BMatP= 8.95D-03
 IDIUse=1 WtCom= 1.00D+00 WtEn= 0.00D+00
 Coeff-Com:  0.727D-01-0.985D-01 0.713D-01 0.955D+00
 Coeff:      0.727D-01-0.985D-01 0.713D-01 0.955D+00
 Gap=     0.253 Goal=   None    Shift=    0.500
 T=  335. Gap= 0.753 NK=0 IS=  110 IE=  671 IFin=  109
          NO(<0.9)=   0  NV(>0.1)=   0    109.00e < EF      0.00e >EF  Err=0.0D+00
 GapD=    0.253 DampG=1.000 DampE=1.000 DampFc=1.0000 IDamp=-1.
 RMSDP=3.43D-04 MaxDP=2.48D-02 DE=-8.39D-03 OVMax= 7.65D-03

 Cycle   5  Pass 1  IDiag  1:
 E= -1926.43684978768     Delta-E=       -0.001466146032 Rises=F Damp=F
 DIIS: error= 5.26D-04 at cycle   5 NSaved=   5.
 NSaved= 5 IEnMin= 5 EnMin= -1926.43684978768     IErMin= 5 ErrMin= 5.26D-04
 ErrMax= 5.26D-04  0.00D+00 EMaxC= 1.00D+00 BMatC= 1.83D-04 BMatP= 1.26D-03
 IDIUse=1 WtCom= 1.00D+00 WtEn= 0.00D+00
 Coeff-Com:  0.349D-02-0.123D-01-0.107D+00-0.262D-01 0.114D+01
 Coeff:      0.349D-02-0.123D-01-0.107D+00-0.262D-01 0.114D+01
 Gap=     0.252 Goal=   None    Shift=    0.500
 RMSDP=2.07D-04 MaxDP=1.53D-02 DE=-1.47D-03 OVMax= 6.52D-03

 Cycle   6  Pass 1  IDiag  1:
 E= -1926.43729414551     Delta-E=       -0.000444357833 Rises=F Damp=F
 DIIS: error= 4.45D-04 at cycle   6 NSaved=   6.
 NSaved= 6 IEnMin= 6 EnMin= -1926.43729414551     IErMin= 6 ErrMin= 4.45D-04
 ErrMax= 4.45D-04  0.00D+00 EMaxC= 1.00D+00 BMatC= 5.25D-05 BMatP= 1.83D-04
 IDIUse=1 WtCom= 1.00D+00 WtEn= 0.00D+00
 Coeff-Com: -0.159D-01 0.193D-01-0.513D-01-0.176D+00-0.141D+00 0.136D+01
 Coeff:     -0.159D-01 0.193D-01-0.513D-01-0.176D+00-0.141D+00 0.136D+01
 Gap=     0.253 Goal=   None    Shift=    0.500
 RMSDP=1.29D-04 MaxDP=1.03D-02 DE=-4.44D-04 OVMax= 5.65D-03

 Cycle   7  Pass 1  IDiag  1:
 E= -1926.43750058857     Delta-E=       -0.000206443058 Rises=F Damp=F
 DIIS: error= 3.08D-04 at cycle   7 NSaved=   7.
 NSaved= 7 IEnMin= 7 EnMin= -1926.43750058857     IErMin= 7 ErrMin= 3.08D-04
 ErrMax= 3.08D-04  0.00D+00 EMaxC= 1.00D+00 BMatC= 2.30D-05 BMatP= 5.25D-05
 IDIUse=1 WtCom= 1.00D+00 WtEn= 0.00D+00
 Coeff-Com: -0.671D-02 0.727D-02 0.165D-01-0.717D-01-0.454D+00 0.719D-01
 Coeff-Com:  0.144D+01
 Coeff:     -0.671D-02 0.727D-02 0.165D-01-0.717D-01-0.454D+00 0.719D-01
 Coeff:      0.144D+01
 Gap=     0.253 Goal=   None    Shift=    0.500
 RMSDP=8.33D-05 MaxDP=7.21D-03 DE=-2.06D-04 OVMax= 4.83D-03

 Cycle   8  Pass 1  IDiag  1:
 E= -1926.43760803699     Delta-E=       -0.000107448420 Rises=F Damp=F
 DIIS: error= 2.28D-04 at cycle   8 NSaved=   8.
 NSaved= 8 IEnMin= 8 EnMin= -1926.43760803699     IErMin= 8 ErrMin= 2.28D-04
 ErrMax= 2.28D-04  0.00D+00 EMaxC= 1.00D+00 BMatC= 1.01D-05 BMatP= 2.30D-05
 IDIUse=1 WtCom= 1.00D+00 WtEn= 0.00D+00
 Coeff-Com:  0.392D-02-0.695D-02 0.320D-01 0.344D-01-0.137D+00-0.653D+00
 Coeff-Com:  0.156D+00 0.157D+01
 Coeff:      0.392D-02-0.695D-02 0.320D-01 0.344D-01-0.137D+00-0.653D+00
 Coeff:      0.156D+00 0.157D+01
 Gap=     0.253 Goal=   None    Shift=    0.500
 RMSDP=5.44D-05 MaxDP=5.18D-03 DE=-1.07D-04 OVMax= 3.98D-03

 Cycle   9  Pass 1  IDiag  1:
 E= -1926.43766302035     Delta-E=       -0.000054983358 Rises=F Damp=F
 DIIS: error= 1.74D-04 at cycle   9 NSaved=   9.
 NSaved= 9 IEnMin= 9 EnMin= -1926.43766302035     IErMin= 9 ErrMin= 1.74D-04
 ErrMax= 1.74D-04  0.00D+00 EMaxC= 1.00D+00 BMatC= 4.59D-06 BMatP= 1.01D-05
 IDIUse=1 WtCom= 1.00D+00 WtEn= 0.00D+00
 Coeff-Com:  0.320D-02-0.446D-02 0.266D-02 0.451D-01 0.173D+00-0.434D+00
 Coeff-Com: -0.522D+00-0.106D+00 0.184D+01
 Coeff:      0.320D-02-0.446D-02 0.266D-02 0.451D-01 0.173D+00-0.434D+00
 Coeff:     -0.522D+00-0.106D+00 0.184D+01
 Gap=     0.253 Goal=   None    Shift=    0.500
 RMSDP=3.79D-05 MaxDP=3.57D-03 DE=-5.50D-05 OVMax= 3.18D-03

 Cycle  10  Pass 1  IDiag  1:
 E= -1926.43769042890     Delta-E=       -0.000027408551 Rises=F Damp=F
 DIIS: error= 1.24D-04 at cycle  10 NSaved=  10.
 NSaved=10 IEnMin=10 EnMin= -1926.43769042890     IErMin=10 ErrMin= 1.24D-04
 ErrMax= 1.24D-04  0.00D+00 EMaxC= 1.00D+00 BMatC= 2.11D-06 BMatP= 4.59D-06
 IDIUse=1 WtCom= 1.00D+00 WtEn= 0.00D+00
 Coeff-Com:  0.216D-03 0.760D-04-0.853D-02 0.170D-01 0.121D+00-0.468D-01
 Coeff-Com: -0.282D+00-0.598D+00 0.132D+00 0.167D+01
 Coeff:      0.216D-03 0.760D-04-0.853D-02 0.170D-01 0.121D+00-0.468D-01
 Coeff:     -0.282D+00-0.598D+00 0.132D+00 0.167D+01
 Gap=     0.253 Goal=   None    Shift=    0.500
 RMSDP=2.50D-05 MaxDP=2.30D-03 DE=-2.74D-05 OVMax= 2.35D-03

 Cycle  11  Pass 1  IDiag  1:
 E= -1926.43770335105     Delta-E=       -0.000012922150 Rises=F Damp=F
 DIIS: error= 8.70D-05 at cycle  11 NSaved=  11.
 NSaved=11 IEnMin=11 EnMin= -1926.43770335105     IErMin=11 ErrMin= 8.70D-05
 ErrMax= 8.70D-05  0.00D+00 EMaxC= 1.00D+00 BMatC= 9.46D-07 BMatP= 2.11D-06
 IDIUse=1 WtCom= 1.00D+00 WtEn= 0.00D+00
 Coeff-Com: -0.940D-03 0.134D-02-0.192D-02-0.898D-02-0.418D-01 0.157D+00
 Coeff-Com:  0.150D+00-0.266D+00-0.924D+00-0.162D+00 0.210D+01
 Coeff:     -0.940D-03 0.134D-02-0.192D-02-0.898D-02-0.418D-01 0.157D+00
 Coeff:      0.150D+00-0.266D+00-0.924D+00-0.162D+00 0.210D+01
 Gap=     0.253 Goal=   None    Shift=    0.500
 RMSDP=1.77D-05 MaxDP=1.63D-03 DE=-1.29D-05 OVMax= 1.77D-03

 Cycle  12  Pass 1  IDiag  1:
 E= -1926.43770954678     Delta-E=       -0.000006195731 Rises=F Damp=F
 DIIS: error= 6.14D-05 at cycle  12 NSaved=  12.
 NSaved=12 IEnMin=12 EnMin= -1926.43770954678     IErMin=12 ErrMin= 6.14D-05
 ErrMax= 6.14D-05  0.00D+00 EMaxC= 1.00D+00 BMatC= 4.60D-07 BMatP= 9.46D-07
 IDIUse=1 WtCom= 1.00D+00 WtEn= 0.00D+00
 Coeff-Com: -0.163D-03 0.999D-04 0.394D-02-0.817D-02-0.352D-01 0.341D-01
 Coeff-Com:  0.126D+00 0.123D+00-0.325D+00-0.101D+01 0.185D+00 0.190D+01
 Coeff:     -0.163D-03 0.999D-04 0.394D-02-0.817D-02-0.352D-01 0.341D-01
 Coeff:      0.126D+00 0.123D+00-0.325D+00-0.101D+01 0.185D+00 0.190D+01
 Gap=     0.253 Goal=   None    Shift=    0.500
 RMSDP=1.09D-05 MaxDP=9.99D-04 DE=-6.20D-06 OVMax= 1.27D-03

 Cycle  13  Pass 1  IDiag  1:
 E= -1926.43771241991     Delta-E=       -0.000002873134 Rises=F Damp=F
 DIIS: error= 4.22D-05 at cycle  13 NSaved=  13.
 NSaved=13 IEnMin=13 EnMin= -1926.43771241991     IErMin=13 ErrMin= 4.22D-05
 ErrMax= 4.22D-05  0.00D+00 EMaxC= 1.00D+00 BMatC= 2.17D-07 BMatP= 4.60D-07
 IDIUse=1 WtCom= 1.00D+00 WtEn= 0.00D+00
 Coeff-Com:  0.969D-04-0.169D-03 0.294D-02-0.111D-02-0.363D-02-0.399D-01
 Coeff-Com:  0.338D-01 0.159D+00 0.130D+00-0.671D+00-0.452D+00-0.648D-01
 Coeff-Com:  0.191D+01
 Coeff:      0.969D-04-0.169D-03 0.294D-02-0.111D-02-0.363D-02-0.399D-01
 Coeff:      0.338D-01 0.159D+00 0.130D+00-0.671D+00-0.452D+00-0.648D-01
 Coeff:      0.191D+01
 Gap=     0.253 Goal=   None    Shift=    0.500
 RMSDP=7.01D-06 MaxDP=6.36D-04 DE=-2.87D-06 OVMax= 8.83D-04

 Cycle  14  Pass 1  IDiag  1:
 E= -1926.43771372886     Delta-E=       -0.000001308943 Rises=F Damp=F
 DIIS: error= 2.78D-05 at cycle  14 NSaved=  14.
 NSaved=14 IEnMin=14 EnMin= -1926.43771372886     IErMin=14 ErrMin= 2.78D-05
 ErrMax= 2.78D-05  0.00D+00 EMaxC= 1.00D+00 BMatC= 9.61D-08 BMatP= 2.17D-07
 IDIUse=1 WtCom= 1.00D+00 WtEn= 0.00D+00
 Coeff-Com:  0.527D-04-0.580D-04-0.346D-05 0.304D-02 0.608D-02-0.273D-01
 Coeff-Com: -0.118D-01 0.279D-01 0.150D+00-0.101D-01-0.182D+00-0.108D+01
 Coeff-Com:  0.302D+00 0.182D+01
 Coeff:      0.527D-04-0.580D-04-0.346D-05 0.304D-02 0.608D-02-0.273D-01
 Coeff:     -0.118D-01 0.279D-01 0.150D+00-0.101D-01-0.182D+00-0.108D+01
 Coeff:      0.302D+00 0.182D+01
 Gap=     0.253 Goal=   None    Shift=    0.500
 RMSDP=4.26D-06 MaxDP=3.55D-04 DE=-1.31D-06 OVMax= 5.98D-04

 Cycle  15  Pass 1  IDiag  1:
 E= -1926.43771430359     Delta-E=       -0.000000574739 Rises=F Damp=F
 DIIS: error= 1.82D-05 at cycle  15 NSaved=  15.
 NSaved=15 IEnMin=15 EnMin= -1926.43771430359     IErMin=15 ErrMin= 1.82D-05
 ErrMax= 1.82D-05  0.00D+00 EMaxC= 1.00D+00 BMatC= 4.09D-08 BMatP= 9.61D-08
 IDIUse=1 WtCom= 1.00D+00 WtEn= 0.00D+00
 Coeff-Com:  0.345D-04-0.724D-04-0.816D-03 0.182D-02 0.403D-02 0.583D-04
 Coeff-Com: -0.165D-01-0.338D-01 0.364D-01 0.205D+00 0.358D-01-0.671D+00
 Coeff-Com: -0.414D+00 0.983D-01 0.175D+01
 Coeff:      0.345D-04-0.724D-04-0.816D-03 0.182D-02 0.403D-02 0.583D-04
 Coeff:     -0.165D-01-0.338D-01 0.364D-01 0.205D+00 0.358D-01-0.671D+00
 Coeff:     -0.414D+00 0.983D-01 0.175D+01
 Gap=     0.253 Goal=   None    Shift=    0.500
 RMSDP=2.60D-06 MaxDP=1.97D-04 DE=-5.75D-07 OVMax= 3.96D-04

 Cycle  16  Pass 1  IDiag  1:
 E= -1926.43771454976     Delta-E=       -0.000000246167 Rises=F Damp=F
 DIIS: error= 1.19D-05 at cycle  16 NSaved=  16.
 NSaved=16 IEnMin=16 EnMin= -1926.43771454976     IErMin=16 ErrMin= 1.19D-05
 ErrMax= 1.19D-05  0.00D+00 EMaxC= 1.00D+00 BMatC= 1.75D-08 BMatP= 4.09D-08
 IDIUse=1 WtCom= 1.00D+00 WtEn= 0.00D+00
 Coeff-Com:  0.148D-04-0.583D-04-0.241D-03-0.389D-03 0.364D-03 0.880D-02
 Coeff-Com: -0.431D-02-0.193D-01-0.358D-01 0.936D-01 0.808D-01-0.250D-01
 Coeff-Com: -0.295D+00-0.648D+00 0.608D-01 0.178D+01
 Coeff:      0.148D-04-0.583D-04-0.241D-03-0.389D-03 0.364D-03 0.880D-02
 Coeff:     -0.431D-02-0.193D-01-0.358D-01 0.936D-01 0.808D-01-0.250D-01
 Coeff:     -0.295D+00-0.648D+00 0.608D-01 0.178D+01
 Gap=     0.253 Goal=   None    Shift=    0.500
 RMSDP=1.68D-06 MaxDP=1.13D-04 DE=-2.46D-07 OVMax= 2.57D-04

 Cycle  17  Pass 1  IDiag  1:
 E= -1926.43771465295     Delta-E=       -0.000000103189 Rises=F Damp=F
 DIIS: error= 7.72D-06 at cycle  17 NSaved=  17.
 NSaved=17 IEnMin=17 EnMin= -1926.43771465295     IErMin=17 ErrMin= 7.72D-06
 ErrMax= 7.72D-06  0.00D+00 EMaxC= 1.00D+00 BMatC= 7.89D-09 BMatP= 1.75D-08
 IDIUse=1 WtCom= 1.00D+00 WtEn= 0.00D+00
 Coeff-Com: -0.161D-04 0.163D-04 0.201D-03-0.795D-03-0.147D-02 0.411D-02
 Coeff-Com:  0.444D-02 0.571D-02-0.337D-01-0.255D-01 0.397D-01 0.193D+00
 Coeff-Com: -0.384D-01-0.373D+00-0.782D+00 0.285D+00 0.172D+01
 Coeff:     -0.161D-04 0.163D-04 0.201D-03-0.795D-03-0.147D-02 0.411D-02
 Coeff:      0.444D-02 0.571D-02-0.337D-01-0.255D-01 0.397D-01 0.193D+00
 Coeff:     -0.384D-01-0.373D+00-0.782D+00 0.285D+00 0.172D+01
 Gap=     0.253 Goal=   None    Shift=    0.500
 RMSDP=1.08D-06 MaxDP=6.76D-05 DE=-1.03D-07 OVMax= 1.67D-04

 Cycle  18  Pass 1  IDiag  1:
 E= -1926.43771469685     Delta-E=       -0.000000043902 Rises=F Damp=F
 DIIS: error= 4.96D-06 at cycle  18 NSaved=  18.
 NSaved=18 IEnMin=18 EnMin= -1926.43771469685     IErMin=18 ErrMin= 4.96D-06
 ErrMax= 4.96D-06  0.00D+00 EMaxC= 1.00D+00 BMatC= 3.41D-09 BMatP= 7.89D-09
 IDIUse=1 WtCom= 1.00D+00 WtEn= 0.00D+00
 Coeff-Com: -0.160D-04 0.298D-04 0.168D-03-0.291D-03-0.987D-03 0.119D-03
 Coeff-Com:  0.364D-02 0.834D-02-0.107D-01-0.357D-01 0.849D-02 0.104D+00
 Coeff-Com:  0.457D-01-0.641D-01-0.547D+00-0.233D+00 0.217D+00 0.150D+01
 Coeff:     -0.160D-04 0.298D-04 0.168D-03-0.291D-03-0.987D-03 0.119D-03
 Coeff:      0.364D-02 0.834D-02-0.107D-01-0.357D-01 0.849D-02 0.104D+00
 Coeff:      0.457D-01-0.641D-01-0.547D+00-0.233D+00 0.217D+00 0.150D+01
 Gap=     0.253 Goal=   None    Shift=    0.500
 RMSDP=6.90D-07 MaxDP=4.28D-05 DE=-4.39D-08 OVMax= 1.08D-04

 SCF Done:  E(RLC-wHPBE) =  -1926.43771470     A.U. after   18 cycles
            NFock= 18  Conv=0.69D-06     -V/T= 2.0033
 KE= 1.920182649879D+03 PE=-1.017892300320D+04 EE= 3.505056358550D+03
 Leave Link  502 at Mon Jan 18 11:36:31 2021, MaxMem=  4026531840 cpu:            7409.0 elap:             928.6
 (Enter /opt/ohpc/pub/libs/gaussian/g16-A.03/sandybridge/g16/l508.exe)
 QCSCF skips out because SCF is already converged.
 Leave Link  508 at Mon Jan 18 11:36:31 2021, MaxMem=  4026531840 cpu:               0.1 elap:               0.0
 (Enter /opt/ohpc/pub/libs/gaussian/g16-A.03/sandybridge/g16/l601.exe)
 Copying SCF densities to generalized density rwf, IOpCl= 0 IROHF=0.

 **********************************************************************

            Population analysis using the SCF density.

 **********************************************************************

 Orbital symmetries:
       Occupied  (A) (A) (A) (A) (A) (A) (A) (A) (A) (A) (A) (A)
                 (A) (A) (A) (A) (A) (A) (A) (A) (A) (A) (A) (A)
                 (A) (A) (A) (A) (A) (A) (A) (A) (A) (A) (A) (A)
                 (A) (A) (A) (A) (A) (A) (A) (A) (A) (A) (A) (A)
                 (A) (A) (A) (A) (A) (A) (A) (A) (A) (A) (A) (A)
                 (A) (A) (A) (A) (A) (A) (A) (A) (A) (A) (A) (A)
                 (A) (A) (A) (A) (A) (A) (A) (A) (A) (A) (A) (A)
                 (A) (A) (A) (A) (A) (A) (A) (A) (A) (A) (A) (A)
                 (A) (A) (A) (A) (A) (A) (A) (A) (A) (A) (A) (A)
                 (A)
       Virtual   (A) (A) (A) (A) (A) (A) (A) (A) (A) (A) (A) (A)
                 (A) (A) (A) (A) (A) (A) (A) (A) (A) (A) (A) (A)
                 (A) (A) (A) (A) (A) (A) (A) (A) (A) (A) (A) (A)
                 (A) (A) (A) (A) (A) (A) (A) (A) (A) (A) (A) (A)
                 (A) (A) (A) (A) (A) (A) (A) (A) (A) (A) (A) (A)
                 (A) (A) (A) (A) (A) (A) (A) (A) (A) (A) (A) (A)
                 (A) (A) (A) (A) (A) (A) (A) (A) (A) (A) (A) (A)
                 (A) (A) (A) (A) (A) (A) (A) (A) (A) (A) (A) (A)
                 (A) (A) (A) (A) (A) (A) (A) (A) (A) (A) (A) (A)
                 (A) (A) (A) (A) (A) (A) (A) (A) (A) (A) (A) (A)
                 (A) (A) (A) (A) (A) (A) (A) (A) (A) (A) (A) (A)
                 (A) (A) (A) (A) (A) (A) (A) (A) (A) (A) (A) (A)
                 (A) (A) (A) (A) (A) (A) (A) (A) (A) (A) (A) (A)
                 (A) (A) (A) (A) (A) (A) (A) (A) (A) (A) (A) (A)
                 (A) (A) (A) (A) (A) (A) (A) (A) (A) (A) (A) (A)
                 (A) (A) (A) (A) (A) (A) (A) (A) (A) (A) (A) (A)
                 (A) (A) (A) (A) (A) (A) (A) (A) (A) (A) (A) (A)
                 (A) (A) (A) (A) (A) (A) (A) (A) (A) (A) (A) (A)
                 (A) (A) (A) (A) (A) (A) (A) (A) (A) (A) (A) (A)
                 (A) (A) (A) (A) (A) (A) (A) (A) (A) (A) (A) (A)
                 (A) (A) (A) (A) (A) (A) (A) (A) (A) (A) (A) (A)
                 (A) (A) (A) (A) (A) (A) (A) (A) (A) (A) (A) (A)
                 (A) (A) (A) (A) (A) (A) (A) (A) (A) (A) (A) (A)
                 (A) (A) (A) (A) (A) (A) (A) (A) (A) (A) (A) (A)
                 (A) (A) (A) (A) (A) (A) (A) (A) (A) (A) (A) (A)
                 (A) (A) (A) (A) (A) (A) (A) (A) (A) (A) (A) (A)
                 (A) (A) (A) (A) (A) (A) (A) (A) (A) (A) (A) (A)
                 (A) (A) (A) (A) (A) (A) (A) (A) (A) (A) (A) (A)
                 (A) (A) (A) (A) (A) (A) (A) (A) (A) (A) (A) (A)
                 (A) (A) (A) (A) (A) (A) (A) (A) (A) (A) (A) (A)
                 (A) (A) (A) (A) (A) (A) (A) (A) (A) (A) (A) (A)
                 (A) (A) (A) (A) (A) (A) (A) (A) (A) (A) (A) (A)
                 (A) (A) (A) (A) (A) (A) (A) (A) (A) (A) (A) (A)
                 (A) (A) (A) (A) (A) (A) (A) (A) (A) (A) (A) (A)
                 (A) (A) (A) (A) (A) (A) (A) (A) (A) (A) (A) (A)
                 (A) (A) (A) (A) (A) (A) (A) (A) (A) (A) (A) (A)
                 (A) (A) (A) (A) (A) (A) (A) (A) (A) (A) (A) (A)
                 (A) (A) (A) (A) (A) (A) (A) (A) (A) (A) (A) (A)
                 (A) (A) (A) (A) (A) (A) (A) (A) (A) (A) (A) (A)
                 (A) (A) (A) (A) (A) (A) (A) (A) (A) (A) (A) (A)
                 (A) (A) (A) (A) (A) (A) (A) (A) (A) (A) (A) (A)
                 (A) (A) (A) (A) (A) (A) (A) (A) (A) (A) (A) (A)
                 (A) (A) (A) (A) (A) (A) (A) (A) (A) (A) (A) (A)
                 (A) (A) (A) (A) (A) (A) (A) (A) (A) (A) (A) (A)
                 (A) (A) (A) (A) (A) (A) (A) (A) (A) (A) (A) (A)
                 (A) (A) (A) (A) (A) (A) (A) (A) (A) (A) (A) (A)
                 (A) (A) (A) (A) (A) (A) (A) (A) (A) (A)
 The electronic state is 1-A.
 Alpha  occ. eigenvalues --  -88.23370 -88.23288 -18.88469 -18.88361 -14.11517
 Alpha  occ. eigenvalues --  -10.04653 -10.04550 -10.02683 -10.02130 -10.02064
 Alpha  occ. eigenvalues --   -9.99202  -9.99171  -9.99169  -9.99157  -9.99156
 Alpha  occ. eigenvalues --   -9.99145  -9.99120  -9.99045  -9.99017  -9.98923
 Alpha  occ. eigenvalues --   -9.98847  -9.98764  -9.98696  -9.98639  -9.98627
 Alpha  occ. eigenvalues --   -9.98597  -9.98519  -9.98426  -9.98181  -7.81840
 Alpha  occ. eigenvalues --   -7.81768  -5.83931  -5.83864  -5.83759  -5.83684
 Alpha  occ. eigenvalues --   -5.83007  -5.82933  -1.08750  -1.08646  -0.99693
 Alpha  occ. eigenvalues --   -0.91472  -0.89709  -0.89668  -0.88117  -0.85163
 Alpha  occ. eigenvalues --   -0.80491  -0.79892  -0.79653  -0.79022  -0.78895
 Alpha  occ. eigenvalues --   -0.78355  -0.76513  -0.75407  -0.73286  -0.68700
 Alpha  occ. eigenvalues --   -0.67994  -0.66548  -0.66167  -0.65093  -0.64560
 Alpha  occ. eigenvalues --   -0.63031  -0.61454  -0.60358  -0.60238  -0.58681
 Alpha  occ. eigenvalues --   -0.58275  -0.56747  -0.55014  -0.53473  -0.52597
 Alpha  occ. eigenvalues --   -0.51364  -0.50893  -0.49721  -0.49618  -0.49347
 Alpha  occ. eigenvalues --   -0.49029  -0.48446  -0.47933  -0.47791  -0.47520
 Alpha  occ. eigenvalues --   -0.47255  -0.47047  -0.46717  -0.45481  -0.45340
 Alpha  occ. eigenvalues --   -0.44708  -0.44152  -0.43562  -0.42849  -0.42013
 Alpha  occ. eigenvalues --   -0.41446  -0.41072  -0.40637  -0.40100  -0.39782
 Alpha  occ. eigenvalues --   -0.39406  -0.39176  -0.38020  -0.35300  -0.33408
 Alpha  occ. eigenvalues --   -0.32895  -0.32294  -0.32129  -0.31429  -0.29733
 Alpha  occ. eigenvalues --   -0.29509  -0.28862  -0.24796  -0.23302
 Alpha virt. eigenvalues --    0.02011   0.02945   0.03216   0.04015   0.04198
 Alpha virt. eigenvalues --    0.04305   0.04421   0.06224   0.07703   0.08284
 Alpha virt. eigenvalues --    0.08402   0.08883   0.09819   0.10890   0.11480
 Alpha virt. eigenvalues --    0.11802   0.12535   0.13605   0.13845   0.14102
 Alpha virt. eigenvalues --    0.14386   0.15222   0.15806   0.16376   0.16939
 Alpha virt. eigenvalues --    0.17266   0.17516   0.17846   0.17986   0.18296
 Alpha virt. eigenvalues --    0.19024   0.19361   0.19735   0.20535   0.21161
 Alpha virt. eigenvalues --    0.21431   0.21679   0.22148   0.22508   0.23007
 Alpha virt. eigenvalues --    0.24209   0.24422   0.25179   0.25592   0.26000
 Alpha virt. eigenvalues --    0.26586   0.26686   0.26819   0.26980   0.27127
 Alpha virt. eigenvalues --    0.27447   0.28097   0.28236   0.28390   0.28762
 Alpha virt. eigenvalues --    0.29018   0.29353   0.29671   0.29739   0.30406
 Alpha virt. eigenvalues --    0.30513   0.30830   0.31158   0.31557   0.31701
 Alpha virt. eigenvalues --    0.32110   0.32624   0.33361   0.33530   0.33680
 Alpha virt. eigenvalues --    0.34162   0.34939   0.35013   0.35344   0.35402
 Alpha virt. eigenvalues --    0.35959   0.36239   0.36415   0.37328   0.38390
 Alpha virt. eigenvalues --    0.38661   0.38865   0.39188   0.39455   0.39632
 Alpha virt. eigenvalues --    0.39752   0.40310   0.40667   0.41353   0.41445
 Alpha virt. eigenvalues --    0.41627   0.41989   0.42534   0.43332   0.43494
 Alpha virt. eigenvalues --    0.43657   0.43875   0.44063   0.44117   0.44257
 Alpha virt. eigenvalues --    0.44818   0.44968   0.45150   0.45400   0.45957
 Alpha virt. eigenvalues --    0.46308   0.46416   0.46576   0.46950   0.47258
 Alpha virt. eigenvalues --    0.47419   0.47763   0.47897   0.48389   0.48721
 Alpha virt. eigenvalues --    0.49391   0.49518   0.50077   0.50379   0.50757
 Alpha virt. eigenvalues --    0.51013   0.51542   0.52250   0.52635   0.52948
 Alpha virt. eigenvalues --    0.53193   0.53473   0.53786   0.54162   0.54300
 Alpha virt. eigenvalues --    0.54787   0.54858   0.55370   0.55836   0.56136
 Alpha virt. eigenvalues --    0.56963   0.57017   0.57753   0.58289   0.58837
 Alpha virt. eigenvalues --    0.59375   0.59881   0.60321   0.60596   0.61071
 Alpha virt. eigenvalues --    0.61376   0.62103   0.62285   0.62520   0.62807
 Alpha virt. eigenvalues --    0.63827   0.63943   0.64347   0.64831   0.65785
 Alpha virt. eigenvalues --    0.66261   0.66990   0.67924   0.69767   0.70095
 Alpha virt. eigenvalues --    0.70461   0.72053   0.72265   0.72557   0.73140
 Alpha virt. eigenvalues --    0.73390   0.73835   0.74216   0.74648   0.75168
 Alpha virt. eigenvalues --    0.75806   0.76123   0.76853   0.77113   0.77779
 Alpha virt. eigenvalues --    0.78274   0.78928   0.80047   0.80680   0.81274
 Alpha virt. eigenvalues --    0.81909   0.82299   0.82412   0.82868   0.83595
 Alpha virt. eigenvalues --    0.84657   0.85140   0.86141   0.86827   0.87257
 Alpha virt. eigenvalues --    0.88475   0.88925   0.89897   0.90513   0.91112
 Alpha virt. eigenvalues --    0.92088   0.92175   0.93021   0.95145   0.96186
 Alpha virt. eigenvalues --    0.96618   0.97478   1.00081   1.01252   1.03114
 Alpha virt. eigenvalues --    1.05268   1.07220   1.17905   1.18961   1.19826
 Alpha virt. eigenvalues --    1.23197   1.24156   1.25290   1.25706   1.26660
 Alpha virt. eigenvalues --    1.27076   1.27469   1.27564   1.27852   1.28131
 Alpha virt. eigenvalues --    1.28676   1.28997   1.29411   1.29872   1.30366
 Alpha virt. eigenvalues --    1.30644   1.31070   1.32440   1.32640   1.33127
 Alpha virt. eigenvalues --    1.33357   1.34045   1.35118   1.35623   1.35870
 Alpha virt. eigenvalues --    1.36345   1.36824   1.37275   1.37571   1.38926
 Alpha virt. eigenvalues --    1.38984   1.39261   1.41494   1.42258   1.42688
 Alpha virt. eigenvalues --    1.43408   1.43734   1.43999   1.44814   1.45124
 Alpha virt. eigenvalues --    1.45344   1.45605   1.46042   1.46345   1.46508
 Alpha virt. eigenvalues --    1.46598   1.47203   1.47649   1.47701   1.48099
 Alpha virt. eigenvalues --    1.48185   1.48423   1.48900   1.49329   1.50112
 Alpha virt. eigenvalues --    1.50395   1.51184   1.51383   1.51569   1.52310
 Alpha virt. eigenvalues --    1.52650   1.53119   1.53155   1.53286   1.54165
 Alpha virt. eigenvalues --    1.54277   1.54736   1.55868   1.56104   1.56325
 Alpha virt. eigenvalues --    1.56378   1.56890   1.57063   1.57261   1.57728
 Alpha virt. eigenvalues --    1.58055   1.58177   1.58460   1.58957   1.59261
 Alpha virt. eigenvalues --    1.59484   1.59919   1.60220   1.60761   1.61028
 Alpha virt. eigenvalues --    1.61154   1.61737   1.61785   1.62758   1.62832
 Alpha virt. eigenvalues --    1.63678   1.64392   1.64979   1.65768   1.66101
 Alpha virt. eigenvalues --    1.67653   1.68760   1.70072   1.70427   1.70696
 Alpha virt. eigenvalues --    1.71393   1.72633   1.73354   1.75780   1.76266
 Alpha virt. eigenvalues --    1.78065   1.78887   1.79235   1.79548   1.79729
 Alpha virt. eigenvalues --    1.79897   1.80286   1.80977   1.81017   1.81534
 Alpha virt. eigenvalues --    1.82003   1.82730   1.82821   1.83935   1.84443
 Alpha virt. eigenvalues --    1.85102   1.85167   1.85617   1.86248   1.87027
 Alpha virt. eigenvalues --    1.87872   1.89221   1.90030   1.90620   1.90926
 Alpha virt. eigenvalues --    1.91339   1.91860   1.92182   1.92846   1.93381
 Alpha virt. eigenvalues --    1.93579   1.93731   1.94329   1.94524   1.95217
 Alpha virt. eigenvalues --    1.95838   1.95944   1.96151   1.96550   1.97271
 Alpha virt. eigenvalues --    1.97688   1.98367   2.00412   2.01080   2.01218
 Alpha virt. eigenvalues --    2.02302   2.02971   2.03546   2.03916   2.04765
 Alpha virt. eigenvalues --    2.05101   2.05361   2.05901   2.06667   2.08799
 Alpha virt. eigenvalues --    2.10650   2.11382   2.12245   2.12963   2.13259
 Alpha virt. eigenvalues --    2.15026   2.16579   2.17622   2.17981   2.20660
 Alpha virt. eigenvalues --    2.21434   2.22177   2.22714   2.24127   2.24862
 Alpha virt. eigenvalues --    2.25585   2.26286   2.27813   2.28352   2.28531
 Alpha virt. eigenvalues --    2.29129   2.30202   2.31192   2.33120   2.33210
 Alpha virt. eigenvalues --    2.34403   2.34761   2.34949   2.35074   2.35260
 Alpha virt. eigenvalues --    2.35580   2.36291   2.36567   2.37310   2.37640
 Alpha virt. eigenvalues --    2.37871   2.38243   2.38756   2.38993   2.39602
 Alpha virt. eigenvalues --    2.39687   2.40184   2.40299   2.40465   2.40963
 Alpha virt. eigenvalues --    2.41361   2.41879   2.42090   2.42317   2.44803
 Alpha virt. eigenvalues --    2.47348   2.48279   2.48977   2.50732   2.51465
 Alpha virt. eigenvalues --    2.51851   2.54251   2.54993   2.55216   2.55753
 Alpha virt. eigenvalues --    2.56760   2.59957   2.60032   2.61081   2.61927
 Alpha virt. eigenvalues --    2.62506   2.62977   2.63309   2.63419   2.64964
 Alpha virt. eigenvalues --    2.65039   2.65452   2.65674   2.66093   2.67269
 Alpha virt. eigenvalues --    2.68114   2.68337   2.68708   2.69103   2.70360
 Alpha virt. eigenvalues --    2.71268   2.72469   2.73375   2.74384   2.75444
 Alpha virt. eigenvalues --    2.75982   2.76500   2.77580   2.79548   2.80942
 Alpha virt. eigenvalues --    2.81374   2.82262   2.82445   2.83053   2.83742
 Alpha virt. eigenvalues --    2.85671   2.87268   2.87892   2.89295   2.89945
 Alpha virt. eigenvalues --    2.90494   2.95263   2.95427   2.96471   2.97261
 Alpha virt. eigenvalues --    2.98901   2.99996   3.01911   3.01947   3.02157
 Alpha virt. eigenvalues --    3.02676   3.03939   3.04394   3.06207   3.06508
 Alpha virt. eigenvalues --    3.07041   3.09341   3.10329   3.12366   3.13196
 Alpha virt. eigenvalues --    3.13722   3.14265   3.14690   3.15470   3.15985
 Alpha virt. eigenvalues --    3.16256   3.16917   3.19013   3.20040   3.21372
 Alpha virt. eigenvalues --    3.21739   3.22782   3.23684   3.24942   3.25660
 Alpha virt. eigenvalues --    3.26297   3.26523   3.28971   3.30589   3.30817
 Alpha virt. eigenvalues --    3.33510   3.34941   3.35638   3.38259   3.39613
 Alpha virt. eigenvalues --    3.41457   3.42747   3.45473   3.48687   3.56261
 Alpha virt. eigenvalues --    3.56781   3.57530   3.58723   3.61065   3.62367
 Alpha virt. eigenvalues --    3.72884   3.74459   3.87528   3.89422   4.09499
 Alpha virt. eigenvalues --    4.10501   4.35322   4.35457  18.98714  19.20380
 Alpha virt. eigenvalues --   21.06517  21.17498  21.24919  21.26674  21.62488
 Alpha virt. eigenvalues --   21.70367  21.72212  21.73511  21.74600  21.77864
 Alpha virt. eigenvalues --   21.84851  21.86434  21.91476  21.94046  21.95892
 Alpha virt. eigenvalues --   21.97972  21.99633  22.01581  22.04929  22.06205
 Alpha virt. eigenvalues --   22.12368  22.13530  22.18390  22.20954  32.07366
 Alpha virt. eigenvalues --   43.24033  43.24271
          Condensed to atoms (all electrons):
               1          2          3          4          5          6
     1  C    5.549393  -0.219555  -0.013024   0.369988   0.001139  -0.006489
     2  C   -0.219555   6.496577   0.075072  -0.169857  -0.022528   0.042163
     3  S   -0.013024   0.075072  15.519755  -0.206728  -0.215656   0.088131
     4  C    0.369988  -0.169857  -0.206728   6.516770   0.037575  -0.020384
     5  C    0.001139  -0.022528  -0.215656   0.037575   6.940404  -0.101356
     6  C   -0.006489   0.042163   0.088131  -0.020384  -0.101356   6.632686
     7  C    0.082472   0.346370   0.008217  -0.391152  -0.000548   0.001338
     8  C   -0.321780   0.378828   0.026147  -0.236403  -0.006244   0.002038
     9  H    0.001246   0.006128   0.023266  -0.115105  -0.115034   0.005986
    10  C    0.000553   0.001088   0.050068  -0.007110  -0.739840   0.302884
    11  C    0.000024  -0.009046  -0.029051   0.000037   0.336446  -0.303552
    12  C   -0.000005   0.001622   0.009655  -0.000139  -0.334689   0.349499
    13  C   -0.000033  -0.000882  -0.006545   0.000689   0.422630  -0.423935
    14  H    0.000013  -0.000019   0.000391  -0.001026  -0.093663   0.027475
    15  H    0.000045  -0.001183  -0.007808  -0.000052   0.033273  -0.152912
    16  H    0.000000   0.000001  -0.000023  -0.000001  -0.006076   0.024836
    17  C    0.188693  -0.390038  -0.003280   0.350201   0.001122  -0.000604
    18  H    0.467097  -0.122982  -0.007240   0.035271  -0.000013  -0.001172
    19  H    0.010895  -0.115920   0.351651   0.007695   0.007073  -0.122566
    20  H   -0.080045   0.029706  -0.000094  -0.008898  -0.000001  -0.000003
    21  H   -0.004184   0.034808   0.000333  -0.122623  -0.001017  -0.000024
    22  H    0.026720  -0.008977   0.000047   0.030000  -0.000002  -0.000002
    23  S    0.025042  -0.200331   0.196473   0.077188   0.085236  -0.209205
    24  N    0.000000  -0.000002   0.000023  -0.000006   0.020553   0.006683
    25  C   -0.000000  -0.000000  -0.000093   0.000001  -0.000526   0.000761
    26  C   -0.000000   0.000000   0.000002  -0.000000  -0.000585   0.000591
    27  C    0.000000  -0.000001   0.000008  -0.000001   0.003598  -0.003878
    28  C   -0.000000   0.000000   0.000000   0.000000  -0.000124   0.000047
    29  C    0.000000  -0.000000   0.000000  -0.000000   0.000084  -0.000353
    30  C    0.000000  -0.000000   0.000000  -0.000000   0.000035  -0.000003
    31  H    0.000000  -0.000000  -0.000000  -0.000000   0.000061  -0.000026
    32  H    0.000000  -0.000000  -0.000011  -0.000001   0.000702   0.000975
    33  H    0.000000  -0.000000  -0.000000   0.000000   0.000000  -0.000000
    34  H    0.000000  -0.000000  -0.000000   0.000000  -0.000001  -0.000005
    35  C    0.000000  -0.000001   0.000092  -0.000004  -0.022038   0.003390
    36  C   -0.000000   0.000000  -0.000003   0.000001   0.005165  -0.000415
    37  C    0.000000   0.000001   0.000015  -0.000005  -0.017741   0.000968
    38  C   -0.000000   0.000000   0.000000   0.000000  -0.000056   0.000033
    39  C    0.000000  -0.000000   0.000001   0.000000  -0.001536   0.000039
    40  C    0.000000   0.000000  -0.000000  -0.000000  -0.000242  -0.000011
    41  H    0.000000  -0.000000   0.000000  -0.000000  -0.000147   0.000013
    42  H    0.000000   0.000000   0.000012  -0.000003  -0.005224   0.000698
    43  H    0.000000  -0.000000   0.000000  -0.000000  -0.000006   0.000000
    44  H   -0.000000  -0.000000   0.000000   0.000000   0.000018  -0.000001
    45  O   -0.000000   0.000000   0.000000   0.000000   0.000001   0.000000
    46  H    0.000000   0.000000   0.000000  -0.000000  -0.000000  -0.000000
    47  O    0.000000  -0.000000  -0.000000  -0.000000  -0.000000   0.000000
    48  H    0.000000  -0.000000   0.000000  -0.000000   0.000000  -0.000000
               7          8          9         10         11         12
     1  C    0.082472  -0.321780   0.001246   0.000553   0.000024  -0.000005
     2  C    0.346370   0.378828   0.006128   0.001088  -0.009046   0.001622
     3  S    0.008217   0.026147   0.023266   0.050068  -0.029051   0.009655
     4  C   -0.391152  -0.236403  -0.115105  -0.007110   0.000037  -0.000139
     5  C   -0.000548  -0.006244  -0.115034  -0.739840   0.336446  -0.334689
     6  C    0.001338   0.002038   0.005986   0.302884  -0.303552   0.349499
     7  C    5.294139   0.190486  -0.000391  -0.000075   0.000022   0.000002
     8  C    0.190486   5.558504   0.010697  -0.000672   0.000608  -0.000069
     9  H   -0.000391   0.010697   0.716661   0.014836   0.002048  -0.001506
    10  C   -0.000075  -0.000672   0.014836   6.477564  -0.302243  -0.064215
    11  C    0.000022   0.000608   0.002048  -0.302243   5.733662  -0.059379
    12  C    0.000002  -0.000069  -0.001506  -0.064215  -0.059379   5.850924
    13  C    0.000001   0.000048  -0.001836  -0.132894   0.231070   0.125980
    14  H   -0.000002   0.000015   0.005597   0.438489  -0.002090   0.010394
    15  H    0.000001   0.000013   0.000060  -0.001465   0.484310  -0.093630
    16  H   -0.000000   0.000000  -0.000000   0.021008  -0.062068   0.415415
    17  C    0.274275   0.081446  -0.002267   0.000047  -0.000065   0.000003
    18  H   -0.084380  -0.004549   0.000058   0.000015   0.000043  -0.000002
    19  H   -0.002500   0.001109   0.000661   0.001327   0.017207  -0.005123
    20  H    0.436823   0.026587   0.000004   0.000000   0.000000  -0.000000
    21  H    0.017940   0.467165   0.007028   0.000033   0.000015  -0.000002
    22  H   -0.078516  -0.080138   0.000055   0.000000   0.000000  -0.000000
    23  S   -0.002813  -0.012703   0.351834  -0.012474   0.031382  -0.006588
    24  N   -0.000000   0.000000   0.000116  -0.007733   0.019803  -0.017300
    25  C    0.000000   0.000000  -0.000029  -0.011393  -0.001299   0.031736
    26  C   -0.000000  -0.000000  -0.000000  -0.012379   0.000803   0.030972
    27  C   -0.000000   0.000000   0.000021   0.024212  -0.001233  -0.098838
    28  C    0.000000  -0.000000  -0.000000  -0.000159  -0.000231   0.001659
    29  C   -0.000000   0.000000   0.000001   0.001453   0.000712  -0.005582
    30  C   -0.000000   0.000000   0.000000   0.000042  -0.000157  -0.001492
    31  H    0.000000   0.000000  -0.000000  -0.000253   0.000048  -0.000071
    32  H    0.000000   0.000000  -0.000003   0.000007  -0.002067   0.003131
    33  H    0.000000   0.000000   0.000000   0.000003  -0.000001  -0.000039
    34  H   -0.000000  -0.000000   0.000000  -0.000029   0.000017  -0.000083
    35  C   -0.000000  -0.000000   0.000205   0.063376  -0.001672  -0.013193
    36  C    0.000000   0.000000  -0.000009   0.018867   0.000388  -0.016000
    37  C   -0.000000  -0.000000  -0.000020  -0.062603  -0.000773   0.032773
    38  C    0.000000  -0.000000   0.000001   0.001885  -0.000069  -0.000081
    39  C   -0.000000  -0.000000  -0.000004  -0.007554  -0.000146   0.001647
    40  C   -0.000000   0.000000  -0.000002  -0.001911   0.000017   0.000138
    41  H   -0.000000   0.000000   0.000001   0.000456   0.000004  -0.000257
    42  H   -0.000000   0.000000   0.000007   0.006509   0.000327  -0.000284
    43  H   -0.000000  -0.000000   0.000000  -0.000039  -0.000000   0.000003
    44  H    0.000000  -0.000000   0.000000   0.000080   0.000001  -0.000035
    45  O    0.000000  -0.000000   0.000000   0.000015  -0.000000   0.000000
    46  H   -0.000000   0.000000   0.000000  -0.000001   0.000000   0.000000
    47  O    0.000000  -0.000000   0.000000   0.000000   0.000000   0.000004
    48  H   -0.000000  -0.000000   0.000000  -0.000000   0.000000  -0.000001
              13         14         15         16         17         18
     1  C   -0.000033   0.000013   0.000045   0.000000   0.188693   0.467097
     2  C   -0.000882  -0.000019  -0.001183   0.000001  -0.390038  -0.122982
     3  S   -0.006545   0.000391  -0.007808  -0.000023  -0.003280  -0.007240
     4  C    0.000689  -0.001026  -0.000052  -0.000001   0.350201   0.035271
     5  C    0.422630  -0.093663   0.033273  -0.006076   0.001122  -0.000013
     6  C   -0.423935   0.027475  -0.152912   0.024836  -0.000604  -0.001172
     7  C    0.000001  -0.000002   0.000001  -0.000000   0.274275  -0.084380
     8  C    0.000048   0.000015   0.000013   0.000000   0.081446  -0.004549
     9  H   -0.001836   0.005597   0.000060  -0.000000  -0.002267   0.000058
    10  C   -0.132894   0.438489  -0.001465   0.021008   0.000047   0.000015
    11  C    0.231070  -0.002090   0.484310  -0.062068  -0.000065   0.000043
    12  C    0.125980   0.010394  -0.093630   0.415415   0.000003  -0.000002
    13  C    5.889602  -0.061919   0.031016  -0.059025  -0.000000  -0.000000
    14  H   -0.061919   0.533540   0.000011  -0.000180   0.000002   0.000000
    15  H    0.031016   0.000011   0.618817  -0.008744  -0.000002   0.000004
    16  H   -0.059025  -0.000180  -0.008744   0.532151   0.000000   0.000000
    17  C   -0.000000   0.000002  -0.000002   0.000000   5.290582   0.018311
    18  H   -0.000000   0.000000   0.000004   0.000000   0.018311   0.603527
    19  H    0.000971   0.000030   0.007067   0.000003  -0.000330   0.007430
    20  H   -0.000000  -0.000000   0.000000  -0.000000  -0.078158  -0.008369
    21  H    0.000001  -0.000001   0.000000  -0.000000  -0.083734   0.000056
    22  H   -0.000000   0.000000   0.000000   0.000000   0.436786  -0.000083
    23  S    0.009921  -0.007603   0.000300   0.000003   0.007365   0.000333
    24  N    0.136035  -0.006624  -0.000307  -0.007483  -0.000000   0.000000
[...]
    15  H   -0.000169  -0.000094   0.000373  -0.000002   0.000099  -0.000007
    16  H    0.004137  -0.001637   0.003418   0.001344  -0.004126   0.000490
    17  C   -0.000000   0.000000  -0.000000  -0.000000  -0.000000   0.000000
    18  H   -0.000000  -0.000000   0.000000   0.000000   0.000000   0.000000
    19  H   -0.000006  -0.000000   0.000008   0.000000   0.000000   0.000000
    20  H   -0.000000  -0.000000   0.000000   0.000000   0.000000  -0.000000
    21  H   -0.000000  -0.000000   0.000000  -0.000000   0.000000  -0.000000
    22  H   -0.000000  -0.000000   0.000000   0.000000   0.000000  -0.000000
    23  S   -0.000026  -0.000000   0.000019   0.000000   0.000002  -0.000000
    24  N    0.103155  -0.001736  -0.022088   0.017752   0.030041   0.004100
    25  C    5.698164   0.302638   0.274582   0.042014   0.108355  -0.176975
    26  C    0.302638   5.260112  -0.139325   0.281282  -0.071199   0.019799
    27  C    0.274582  -0.139325   5.676991  -0.019949  -0.241307   0.142033
    28  C    0.042014   0.281282  -0.019949   5.413956  -0.182398   0.371996
    29  C    0.108355  -0.071199  -0.241307  -0.182398   6.243214   0.110167
    30  C   -0.176975   0.019799   0.142033   0.371996   0.110167   5.156223
    31  H   -0.057916   0.440532   0.019954  -0.082403  -0.004940   0.022240
    32  H   -0.036205   0.013280   0.398662  -0.000526  -0.042205   0.010918
    33  H    0.021652  -0.051376  -0.004414   0.427608   0.019705  -0.084811
    34  H    0.014453   0.003437   0.010639   0.005569   0.381680  -0.089887
    35  C   -0.114538   0.036399  -0.019136  -0.002805  -0.000908   0.002304
    36  C    0.051192  -0.060981   0.013649  -0.005932   0.002482  -0.001940
    37  C   -0.010969   0.012237  -0.013274   0.001455   0.000532  -0.000035
    38  C   -0.016107  -0.000873   0.002636   0.000816   0.000003  -0.000114
    39  C   -0.004909   0.003516   0.000029   0.000006  -0.000150   0.000050
    40  C    0.003792  -0.002315  -0.000112  -0.000188   0.000075  -0.000025
    41  H    0.005721   0.003974  -0.005360  -0.002602   0.002687   0.000267
    42  H   -0.001310   0.000605  -0.000485   0.000015   0.000044  -0.000011
    43  H   -0.000103   0.000093  -0.000052   0.000035  -0.000009  -0.000001
    44  H   -0.000031  -0.000016   0.000004  -0.000002  -0.000000   0.000000
    45  O    0.000017  -0.000006   0.000000  -0.000000  -0.000000   0.000000
    46  H    0.000000  -0.000001  -0.000000   0.000000   0.000000  -0.000000
    47  O   -0.001870   0.006453   0.023880  -0.082863  -0.122382   0.414180
    48  H   -0.000742  -0.001921   0.008526   0.020236  -0.043730  -0.025291
              31         32         33         34         35         36
     1  C    0.000000   0.000000   0.000000   0.000000   0.000000  -0.000000
     2  C   -0.000000  -0.000000  -0.000000  -0.000000  -0.000001   0.000000
     3  S   -0.000000  -0.000011  -0.000000  -0.000000   0.000092  -0.000003
     4  C   -0.000000  -0.000001   0.000000   0.000000  -0.000004   0.000001
     5  C    0.000061   0.000702   0.000000  -0.000001  -0.022038   0.005165
     6  C   -0.000026   0.000975  -0.000000  -0.000005   0.003390  -0.000415
     7  C    0.000000   0.000000   0.000000  -0.000000  -0.000000   0.000000
     8  C    0.000000   0.000000   0.000000  -0.000000  -0.000000   0.000000
     9  H   -0.000000  -0.000003   0.000000   0.000000   0.000205  -0.000009
    10  C   -0.000253   0.000007   0.000003  -0.000029   0.063376   0.018867
    11  C    0.000048  -0.002067  -0.000001   0.000017  -0.001672   0.000388
    12  C   -0.000071   0.003131  -0.000039  -0.000083  -0.013193  -0.016000
    13  C   -0.001590  -0.003237   0.000004   0.000014  -0.113971  -0.017139
    14  H   -0.000010   0.000029  -0.000000   0.000000   0.009869  -0.003738
    15  H    0.000000  -0.000086   0.000000   0.000001   0.000157   0.000004
    16  H    0.000041   0.001204   0.000009  -0.000009  -0.001554  -0.000464
    17  C   -0.000000   0.000000  -0.000000  -0.000000  -0.000000  -0.000000
    18  H   -0.000000  -0.000000  -0.000000   0.000000   0.000000  -0.000000
    19  H   -0.000000  -0.000002   0.000000   0.000000   0.000005  -0.000000
    20  H   -0.000000  -0.000000   0.000000   0.000000   0.000000   0.000000
    21  H    0.000000  -0.000000   0.000000   0.000000   0.000000   0.000000
    22  H   -0.000000  -0.000000  -0.000000   0.000000   0.000000  -0.000000
    23  S   -0.000000  -0.000018   0.000000   0.000000   0.000019   0.000021
    24  N   -0.010772  -0.006939  -0.000575  -0.000792   0.124341  -0.029270
    25  C   -0.057916  -0.036205   0.021652   0.014453  -0.114538   0.051192
    26  C    0.440532   0.013280  -0.051376   0.003437   0.036399  -0.060981
    27  C    0.019954   0.398662  -0.004414   0.010639  -0.019136   0.013649
    28  C   -0.082403  -0.000526   0.427608   0.005569  -0.002805  -0.005932
    29  C   -0.004940  -0.042205   0.019705   0.381680  -0.000908   0.002482
    30  C    0.022240   0.010918  -0.084811  -0.089887   0.002304  -0.001940
    31  H    0.550106  -0.000241  -0.010014   0.000028   0.002919   0.005113
    32  H   -0.000241   0.529419   0.000029  -0.007059  -0.001950   0.001058
    33  H   -0.010014   0.000029   0.565678  -0.000321  -0.000266   0.000151
    34  H    0.000028  -0.007059  -0.000321   0.582451  -0.000003  -0.000038
    35  C    0.002919  -0.001950  -0.000266  -0.000003   5.716802   0.259166
    36  C    0.005113   0.001058   0.000151  -0.000038   0.259166   5.665201
    37  C   -0.002911  -0.000495  -0.000025   0.000002   0.285109  -0.135261
    38  C   -0.003663  -0.000050   0.000020  -0.000004   0.137852  -0.286795
    39  C    0.001301   0.000023  -0.000007   0.000000   0.027749  -0.014319
    40  C    0.000422  -0.000006   0.000003   0.000000  -0.178726   0.153884
    41  H    0.000890   0.000130  -0.000024   0.000011  -0.033570   0.401957
    42  H    0.000065  -0.000007   0.000001   0.000000  -0.059407   0.018732
    43  H   -0.000030   0.000000  -0.000000   0.000000   0.014756   0.010496
    44  H    0.000003  -0.000000  -0.000000  -0.000000   0.021855  -0.004471
    45  O   -0.000000   0.000000  -0.000000  -0.000000  -0.002467   0.024837
    46  H    0.000001  -0.000000  -0.000000   0.000000  -0.000853   0.008999
    47  O   -0.000115  -0.000079   0.002427  -0.006633  -0.000011   0.000006
    48  H    0.000034  -0.000051  -0.000778   0.001737  -0.000001  -0.000000
              37         38         39         40         41         42
     1  C    0.000000  -0.000000   0.000000   0.000000   0.000000   0.000000
     2  C    0.000001   0.000000  -0.000000   0.000000  -0.000000   0.000000
     3  S    0.000015   0.000000   0.000001  -0.000000   0.000000   0.000012
     4  C   -0.000005   0.000000   0.000000  -0.000000  -0.000000  -0.000003
     5  C   -0.017741  -0.000056  -0.001536  -0.000242  -0.000147  -0.005224
     6  C    0.000968   0.000033   0.000039  -0.000011   0.000013   0.000698
     7  C   -0.000000   0.000000  -0.000000  -0.000000  -0.000000  -0.000000
     8  C   -0.000000  -0.000000  -0.000000   0.000000   0.000000   0.000000
     9  H   -0.000020   0.000001  -0.000004  -0.000002   0.000001   0.000007
    10  C   -0.062603   0.001885  -0.007554  -0.001911   0.000456   0.006509
    11  C   -0.000773  -0.000069  -0.000146   0.000017   0.000004   0.000327
    12  C    0.032773  -0.000081   0.001647   0.000138  -0.000257  -0.000284
    13  C    0.016704  -0.000440   0.003704   0.001176  -0.002124  -0.005121
    14  H    0.003531   0.002047  -0.002035   0.000501   0.000145   0.001538
    15  H   -0.000068   0.000000  -0.000002   0.000000  -0.000000   0.000006
    16  H    0.000588   0.000023   0.000010  -0.000003  -0.000012  -0.000004
    17  C    0.000000  -0.000000   0.000000   0.000000   0.000000   0.000000
    18  H    0.000000  -0.000000   0.000000   0.000000   0.000000   0.000000
    19  H   -0.000001   0.000000   0.000000  -0.000000   0.000000   0.000000
    20  H   -0.000000   0.000000  -0.000000  -0.000000   0.000000   0.000000
    21  H   -0.000000   0.000000  -0.000000  -0.000000   0.000000   0.000000
    22  H    0.000000  -0.000000  -0.000000  -0.000000   0.000000   0.000000
    23  S    0.000031  -0.000002   0.000001  -0.000000  -0.000001   0.000007
    24  N    0.002801   0.030602   0.012736   0.004738  -0.010429  -0.005662
    25  C   -0.010969  -0.016107  -0.004909   0.003792   0.005721  -0.001310
    26  C    0.012237  -0.000873   0.003516  -0.002315   0.003974   0.000605
    27  C   -0.013274   0.002636   0.000029  -0.000112  -0.005360  -0.000485
    28  C    0.001455   0.000816   0.000006  -0.000188  -0.002602   0.000015
    29  C    0.000532   0.000003  -0.000150   0.000075   0.002687   0.000044
    30  C   -0.000035  -0.000114   0.000050  -0.000025   0.000267  -0.000011
    31  H   -0.002911  -0.003663   0.001301   0.000422   0.000890   0.000065
    32  H   -0.000495  -0.000050   0.000023  -0.000006   0.000130  -0.000007
    33  H   -0.000025   0.000020  -0.000007   0.000003  -0.000024   0.000001
    34  H    0.000002  -0.000004   0.000000   0.000000   0.000011   0.000000
    35  C    0.285109   0.137852   0.027749  -0.178726  -0.033570  -0.059407
    36  C   -0.135261  -0.286795  -0.014319   0.153884   0.401957   0.018732
    37  C    5.284171  -0.084370   0.326866   0.013703   0.013778   0.432686
    38  C   -0.084370   6.312883  -0.181209   0.080539  -0.053056  -0.004773
    39  C    0.326866  -0.181209   5.342784   0.393623  -0.000315  -0.067086
    40  C    0.013703   0.080539   0.393623   5.162247   0.011736   0.020862
    41  H    0.013778  -0.053056  -0.000315   0.011736   0.540577  -0.000260
    42  H    0.432686  -0.004773  -0.067086   0.020862  -0.000260   0.535811
    43  H    0.003346   0.382086   0.005437  -0.090052  -0.007127   0.000023
    44  H   -0.049428   0.019887   0.424914  -0.084471   0.000030  -0.009792
    45  O    0.007097  -0.123300  -0.083162   0.414514  -0.000057  -0.000106
    46  H   -0.001784  -0.044903   0.019677  -0.023980  -0.000046   0.000035
    47  O    0.000000   0.000000  -0.000000   0.000000  -0.000006  -0.000000
    48  H   -0.000000   0.000000   0.000000  -0.000000  -0.000002  -0.000000
              43         44         45         46         47         48
     1  C    0.000000  -0.000000  -0.000000   0.000000   0.000000   0.000000
     2  C   -0.000000  -0.000000   0.000000   0.000000  -0.000000  -0.000000
     3  S    0.000000   0.000000   0.000000   0.000000  -0.000000   0.000000
     4  C   -0.000000   0.000000   0.000000  -0.000000  -0.000000  -0.000000
     5  C   -0.000006   0.000018   0.000001  -0.000000  -0.000000   0.000000
     6  C    0.000000  -0.000001   0.000000  -0.000000   0.000000  -0.000000
     7  C   -0.000000   0.000000   0.000000  -0.000000   0.000000  -0.000000
     8  C   -0.000000  -0.000000  -0.000000   0.000000  -0.000000  -0.000000
     9  H    0.000000   0.000000   0.000000   0.000000   0.000000   0.000000
    10  C   -0.000039   0.000080   0.000015  -0.000001   0.000000  -0.000000
    11  C   -0.000000   0.000001  -0.000000   0.000000   0.000000   0.000000
    12  C    0.000003  -0.000035   0.000000   0.000000   0.000004  -0.000001
    13  C    0.000009  -0.000164  -0.000009  -0.000000   0.000008   0.000000
    14  H    0.000023   0.000004  -0.000009  -0.000001   0.000000  -0.000000
    15  H   -0.000000   0.000000  -0.000000  -0.000000  -0.000000  -0.000000
    16  H   -0.000000   0.000000  -0.000000  -0.000000  -0.000003   0.000001
    17  C    0.000000  -0.000000   0.000000   0.000000  -0.000000   0.000000
    18  H    0.000000   0.000000  -0.000000   0.000000  -0.000000   0.000000
    19  H    0.000000   0.000000   0.000000   0.000000  -0.000000   0.000000
    20  H    0.000000   0.000000  -0.000000  -0.000000  -0.000000   0.000000
    21  H   -0.000000   0.000000  -0.000000  -0.000000   0.000000   0.000000
    22  H    0.000000   0.000000   0.000000   0.000000   0.000000   0.000000
    23  S   -0.000000  -0.000001   0.000000   0.000000   0.000000   0.000000
    24  N   -0.000736  -0.000648  -0.000010  -0.000003  -0.000008  -0.000003
    25  C   -0.000103  -0.000031   0.000017   0.000000  -0.001870  -0.000742
    26  C    0.000093  -0.000016  -0.000006  -0.000001   0.006453  -0.001921
    27  C   -0.000052   0.000004   0.000000  -0.000000   0.023880   0.008526
    28  C    0.000035  -0.000002  -0.000000   0.000000  -0.082863   0.020236
    29  C   -0.000009  -0.000000  -0.000000   0.000000  -0.122382  -0.043730
    30  C   -0.000001   0.000000   0.000000  -0.000000   0.414180  -0.025291
    31  H   -0.000030   0.000003  -0.000000   0.000001  -0.000115   0.000034
    32  H    0.000000  -0.000000   0.000000  -0.000000  -0.000079  -0.000051
    33  H   -0.000000  -0.000000  -0.000000  -0.000000   0.002427  -0.000778
    34  H    0.000000  -0.000000  -0.000000   0.000000  -0.006633   0.001737
    35  C    0.014756   0.021855  -0.002467  -0.000853  -0.000011  -0.000001
    36  C    0.010496  -0.004471   0.024837   0.008999   0.000006  -0.000000
    37  C    0.003346  -0.049428   0.007097  -0.001784   0.000000  -0.000000
    38  C    0.382086   0.019887  -0.123300  -0.044903   0.000000   0.000000
    39  C    0.005437   0.424914  -0.083162   0.019677  -0.000000   0.000000
    40  C   -0.090052  -0.084471   0.414514  -0.023980   0.000000  -0.000000
    41  H   -0.007127   0.000030  -0.000057  -0.000046  -0.000006  -0.000002
    42  H    0.000023  -0.009792  -0.000106   0.000035  -0.000000  -0.000000
    43  H    0.581726  -0.000316  -0.006773   0.001598  -0.000000   0.000000
    44  H   -0.000316   0.564320   0.002587  -0.000788  -0.000000   0.000000
    45  O   -0.006773   0.002587   7.700198   0.304361  -0.000000  -0.000000
    46  H    0.001598  -0.000788   0.304361   0.470122   0.000000  -0.000000
    47  O   -0.000000  -0.000000  -0.000000   0.000000   7.700764   0.304377
    48  H    0.000000   0.000000  -0.000000  -0.000000   0.304377   0.469986
 Mulliken charges:
               1
     1  C   -0.078205
     2  C   -0.151041
     3  S    0.140196
     4  C   -0.145917
     5  C   -0.210225
     6  C   -0.144336
     7  C   -0.091709
     8  C   -0.081135
     9  H    0.089688
    10  C   -0.059777
    11  C   -0.083850
    12  C   -0.146952
    13  C    0.031596
    14  H    0.146649
    15  H    0.090975
    16  H    0.146733
    17  C   -0.090356
    18  H    0.096643
    19  H    0.087160
    20  H    0.102989
    21  H    0.096958
    22  H    0.103025
    23  S    0.139529
    24  N    0.001178
    25  C   -0.144077
    26  C   -0.049033
    27  C   -0.073233
    28  C   -0.204929
    29  C   -0.176289
    30  C    0.124278
    31  H    0.131197
    32  H    0.141669
    33  H    0.115359
    34  H    0.104827
    35  C   -0.139291
    36  C   -0.064593
    37  C   -0.058629
    38  C   -0.171447
    39  C   -0.201677
    40  C    0.120074
    41  H    0.133016
    42  H    0.141552
    43  H    0.105614
    44  H    0.116460
    45  O   -0.237725
    46  H    0.267568
    47  O   -0.238130
    48  H    0.267623
 Sum of Mulliken charges =  -0.00000
 Mulliken charges with hydrogens summed into heavy atoms:
               1
     1  C    0.018438
     2  C   -0.151041
     3  S    0.227355
     4  C   -0.145917
     5  C   -0.210225
     6  C   -0.144336
     7  C    0.011280
     8  C    0.015824
    10  C    0.086872
    11  C    0.007125
    12  C   -0.000219
    13  C    0.031596
    17  C    0.012669
    23  S    0.229216
    24  N    0.001178
    25  C   -0.144077
    26  C    0.082164
    27  C    0.068437
    28  C   -0.089569
    29  C   -0.071462
    30  C    0.124278
    35  C   -0.139291
    36  C    0.068423
    37  C    0.082922
    38  C   -0.065833
    39  C   -0.085217
    40  C    0.120074
    45  O    0.029843
    47  O    0.029493
 Electronic spatial extent (au):  <R**2>=          17769.8102
 Charge=             -0.0000 electrons
 Dipole moment (field-independent basis, Debye):
    X=             -0.9451    Y=             -1.3887    Z=              3.0620  Tot=              3.4925
 Quadrupole moment (field-independent basis, Debye-Ang):
   XX=           -174.8483   YY=           -165.6973   ZZ=           -177.7248
   XY=             -6.8428   XZ=             -5.3727   YZ=              5.1408
 Traceless Quadrupole moment (field-independent basis, Debye-Ang):
   XX=             -2.0915   YY=              7.0595   ZZ=             -4.9680
   XY=             -6.8428   XZ=             -5.3727   YZ=              5.1408
 Octapole moment (field-independent basis, Debye-Ang**2):
  XXX=             62.6154  YYY=            -63.5170  ZZZ=             11.4346  XYY=            -53.0737
  XXY=             27.2927  XXZ=             76.2229  XZZ=            -37.9691  YZZ=              4.7982
  YYZ=             68.7774  XYZ=             21.2253
 Hexadecapole moment (field-independent basis, Debye-Ang**3):
 XXXX=         -17759.3080 YYYY=          -4745.8669 ZZZZ=           -966.0646 XXXY=           -556.5539
 XXXZ=             45.9430 YYYX=             63.4655 YYYZ=             39.1954 ZZZX=            -49.9915
 ZZZY=            -27.4032 XXYY=          -3473.8837 XXZZ=          -3150.6217 YYZZ=           -864.7596
 XXYZ=            172.2162 YYXZ=           -385.4741 ZZXY=             60.6245
 N-N= 2.827246280079D+03 E-N=-1.017892293205D+04  KE= 1.920182649879D+03
 No NMR shielding tensors so no spin-rotation constants.
 Leave Link  601 at Mon Jan 18 11:36:32 2021, MaxMem=  4026531840 cpu:               3.9 elap:               0.6
 (Enter /opt/ohpc/pub/libs/gaussian/g16-A.03/sandybridge/g16/l9999.exe)

 Test job not archived.
 1\1\GINC-CASCADEB025\SP\RLC-wHPBE\TZVP\C24H19N1O2S2\RDU230\18-Jan-2021
 \0\\#P LC-wHPBE/TZVP iop(3/107=0181300000, 3/108=0181300000) scf=(conv
 er=6,fermi,ndamp=35,noincfock,novaracc,vshift=500,xqc)\\H19 C24 S2 N1 
 O2\\0,1\C,0,-6.54463,-1.193879,0.12701\C,0,-5.283469,-0.647909,0.13152
 3\S,0,-3.665919,-1.107322,1.042984\C,0,-4.996815,0.486583,-0.53783\C,0
 ,-1.475687,0.036886,0.221747\C,0,-1.772288,-1.094442,0.892846\C,0,-7.5
 17398,-0.549399,-0.618903\C,0,-5.951198,1.159916,-1.262339\H,0,-2.8434
 06,1.345523,-1.332578\C,0,-0.186077,0.430997,-0.028463\C,0,-0.77363,-1
 .912541,1.366813\C,0,0.53691,-1.552052,1.124661\C,0,0.845585,-0.387156
 ,0.425435\H,0,0.045427,1.33981,-0.567415\H,0,-0.986976,-2.816418,1.923
 251\H,0,1.342687,-2.175375,1.48462\C,0,-7.223748,0.615229,-1.306247\H,
 0,-6.782458,-2.097666,0.673346\H,0,-3.815781,-2.43941,0.928305\H,0,-8.
 517553,-0.958288,-0.663525\H,0,-5.730059,2.077989,-1.791552\H,0,-7.997
 253,1.105431,-1.881471\S,0,-3.166075,0.851646,-0.124057\N,0,2.182887,-
 0.044483,0.184905\C,0,3.146505,-1.044921,-0.067172\C,0,4.392012,-0.989
 098,0.539344\C,0,2.878694,-2.090316,-0.930362\C,0,5.345494,-1.946131,0
 .285899\C,0,3.822608,-3.066997,-1.170354\C,0,5.062274,-2.995295,-0.567
 641\H,0,4.612943,-0.17489,1.215121\H,0,1.913696,-2.145516,-1.414069\H,
 0,6.317156,-1.901598,0.755555\H,0,3.591387,-3.881585,-1.84538\C,0,2.57
 5405,1.310294,0.123192\C,0,3.391681,1.763268,-0.894977\C,0,2.16404,2.2
 11964,1.09371\C,0,3.796835,3.081396,-0.942072\C,0,2.544098,3.531176,1.
 038879\C,0,3.368807,3.972023,0.020733\H,0,3.723839,1.07184,-1.656403\H
 ,0,1.529535,1.868488,1.898614\H,0,4.442764,3.41523,-1.744528\H,0,2.220
 724,4.234697,1.791974\O,0,3.726245,5.28132,0.019257\H,0,4.294203,5.466
 041,-0.728132\O,0,6.032969,-3.920806,-0.776143\H,0,5.721078,-4.593785,
 -1.380389\\Version=EM64L-G16RevA.03\State=1-A\HF=-1926.4377147\RMSD=6.
 898e-07\Dipole=0.3718202,-0.5463501,-1.2046914\Quadrupole=-1.5549861,5
 .2485531,-3.693567,5.0874418,-3.9944972,-3.8220298\PG=C01 [X(C24H19N1O
 2S2)]\\@


 YOU CAN WIPE THE SLATE CLEAN, BUT YOU'LL STILL
 HAVE TO EAT A LITTLE CHALK DUST.
 Job cpu time:       0 days  2 hours  4 minutes 44.1 seconds.
 Elapsed time:       0 days  0 hours 15 minutes 38.3 seconds.
 File lengths (MBytes):  RWF=    192 Int=      0 D2E=      0 Chk=     32 Scr=      8
 Normal termination of Gaussian 16 at Mon Jan 18 11:36:32 2021.
