 Entering Gaussian System, Link 0=g16
 Input=mol_ta_ma_half_tune_n7.gjf
 Output=mol_ta_ma_half_tune_n7.log
 Initial command:
 /opt/ohpc/pub/libs/gaussian/g16-A.03/sandybridge/g16/l1.exe "/mnt/gpfs2_4m/scratch/rdu230/ondemand/projects/init_structures/wtuning/mol_ta_ma_half/tuning_mol_ta_ma_half_ocycle0/Gau-356010.inp" -scrdir="/mnt/gpfs2_4m/scratch/rdu230/ondemand/projects/init_structures/wtuning/mol_ta_ma_half/tuning_mol_ta_ma_half_ocycle0/"
 Entering Link 1 = /opt/ohpc/pub/libs/gaussian/g16-A.03/sandybridge/g16/l1.exe PID=    356011.
  
 Copyright (c) 1988,1990,1992,1993,1995,1998,2003,2009,2016,
            Gaussian, Inc.  All Rights Reserved.
  
 This is part of the Gaussian(R) 16 program.  It is based on
 the Gaussian(R) 09 system (copyright 2009, Gaussian, Inc.),
 the Gaussian(R) 03 system (copyright 2003, Gaussian, Inc.),
 the Gaussian(R) 98 system (copyright 1998, Gaussian, Inc.),
 the Gaussian(R) 94 system (copyright 1995, Gaussian, Inc.),
 the Gaussian 92(TM) system (copyright 1992, Gaussian, Inc.),
 the Gaussian 90(TM) system (copyright 1990, Gaussian, Inc.),
 the Gaussian 88(TM) system (copyright 1988, Gaussian, Inc.),
 the Gaussian 86(TM) system (copyright 1986, Carnegie Mellon
 University), and the Gaussian 82(TM) system (copyright 1983,
 Carnegie Mellon University). Gaussian is a federally registered
 trademark of Gaussian, Inc.
  
 This software contains proprietary and confidential information,
 including trade secrets, belonging to Gaussian, Inc.
  
 This software is provided under written license and may be
 used, copied, transmitted, or stored only in accord with that
 written license.
  
 The following legend is applicable only to US Government
 contracts under FAR:
  
                    RESTRICTED RIGHTS LEGEND
  
 Use, reproduction and disclosure by the US Government is
 subject to restrictions as set forth in subparagraphs (a)
 and (c) of the Commercial Computer Software - Restricted
 Rights clause in FAR 52.227-19.
  
 Gaussian, Inc.
 340 Quinnipiac St., Bldg. 40, Wallingford CT 06492
  
  
 ---------------------------------------------------------------
 Warning -- This program may not be used in any manner that
 competes with the business of Gaussian, Inc. or will provide
 assistance to any competitor of Gaussian, Inc.  The licensee
 of this program is prohibited from giving any competitor of
 Gaussian, Inc. access to this program.  By using this program,
 the user acknowledges that Gaussian, Inc. is engaged in the
 business of creating and licensing software in the field of
 computational chemistry and represents and warrants to the
 licensee that it is not a competitor of Gaussian, Inc. and that
 it will not use this program in any manner prohibited above.
 ---------------------------------------------------------------
  

 Cite this work as:
 Gaussian 16, Revision A.03,
 M. J. Frisch, G. W. Trucks, H. B. Schlegel, G. E. Scuseria, 
 M. A. Robb, J. R. Cheeseman, G. Scalmani, V. Barone, 
 G. A. Petersson, H. Nakatsuji, X. Li, M. Caricato, A. V. Marenich, 
 J. Bloino, B. G. Janesko, R. Gomperts, B. Mennucci, H. P. Hratchian, 
 J. V. Ortiz, A. F. Izmaylov, J. L. Sonnenberg, D. Williams-Young, 
 F. Ding, F. Lipparini, F. Egidi, J. Goings, B. Peng, A. Petrone, 
 T. Henderson, D. Ranasinghe, V. G. Zakrzewski, J. Gao, N. Rega, 
 G. Zheng, W. Liang, M. Hada, M. Ehara, K. Toyota, R. Fukuda, 
 J. Hasegawa, M. Ishida, T. Nakajima, Y. Honda, O. Kitao, H. Nakai, 
 T. Vreven, K. Throssell, J. A. Montgomery, Jr., J. E. Peralta, 
 F. Ogliaro, M. J. Bearpark, J. J. Heyd, E. N. Brothers, K. N. Kudin, 
 V. N. Staroverov, T. A. Keith, R. Kobayashi, J. Normand, 
 K. Raghavachari, A. P. Rendell, J. C. Burant, S. S. Iyengar, 
 J. Tomasi, M. Cossi, J. M. Millam, M. Klene, C. Adamo, R. Cammi, 
 J. W. Ochterski, R. L. Martin, K. Morokuma, O. Farkas, 
 J. B. Foresman, and D. J. Fox, Gaussian, Inc., Wallingford CT, 2016.
 
 ******************************************
 Gaussian 16:  EM64L-G16RevA.03 25-Dec-2016
                18-Jan-2021 
 ******************************************
 %mem=30GB
 %nproc=8
 Will use up to    8 processors via shared memory.
 ----------------------------------------------------------------------
 #P LC-wHPBE/TZVP iop(3/107=0167500000, 3/108=0167500000) scf=(conver=6
 ,fermi,ndamp=35,noincfock,novaracc,vshift=500,xqc)
 ----------------------------------------------------------------------
 1/38=1,172=1/1;
 2/12=2,17=6,18=5,40=1/2;
 3/5=19,7=101,11=2,25=1,30=1,74=-71,107=167500000,108=167500000/1,2,3;
 4//1;
 5/5=100002,6=6,8=3,10=500,13=1,18=-1,22=13,38=1,93=35/2,8;
 6/7=2,8=2,9=2,10=2,28=1/1;
 99/5=1,9=1/99;
 Leave Link    1 at Mon Jan 18 19:04:26 2021, MaxMem=  4026531840 cpu:               2.2 elap:               0.3
 (Enter /opt/ohpc/pub/libs/gaussian/g16-A.03/sandybridge/g16/l101.exe)
 ----------------
 H19 C24 S2 N1 O2
 ----------------
 Symbolic Z-matrix:
 Charge =  0 Multiplicity = 1
 C                    -6.54463  -1.19388   0.12701 
 C                    -5.28347  -0.64791   0.13152 
 S                    -3.66592  -1.10732   1.04298 
 C                    -4.99682   0.48658  -0.53783 
 C                    -1.47569   0.03689   0.22175 
 C                    -1.77229  -1.09444   0.89285 
 C                    -7.5174   -0.5494   -0.6189 
 C                    -5.9512    1.15992  -1.26234 
 H                    -2.84341   1.34552  -1.33258 
 C                    -0.18608   0.431    -0.02846 
 C                    -0.77363  -1.91254   1.36681 
 C                     0.53691  -1.55205   1.12466 
 C                     0.84559  -0.38716   0.42544 
 H                     0.04543   1.33981  -0.56742 
 H                    -0.98698  -2.81642   1.92325 
 H                     1.34269  -2.17537   1.48462 
 C                    -7.22375   0.61523  -1.30625 
 H                    -6.78246  -2.09767   0.67335 
 H                    -3.81578  -2.43941   0.92831 
 H                    -8.51755  -0.95829  -0.66353 
 H                    -5.73006   2.07799  -1.79155 
 H                    -7.99725   1.10543  -1.88147 
 S                    -3.16608   0.85165  -0.12406 
 N                     2.18289  -0.04448   0.18491 
 C                     3.1465   -1.04492  -0.06717 
 C                     4.39201  -0.9891    0.53934 
 C                     2.87869  -2.09032  -0.93036 
 C                     5.34549  -1.94613   0.2859 
 C                     3.82261  -3.067    -1.17035 
 C                     5.06227  -2.9953   -0.56764 
 H                     4.61294  -0.17489   1.21512 
 H                     1.9137   -2.14552  -1.41407 
 H                     6.31716  -1.9016    0.75556 
 H                     3.59139  -3.88159  -1.84538 
 C                     2.5754    1.31029   0.12319 
 C                     3.39168   1.76327  -0.89498 
 C                     2.16404   2.21196   1.09371 
 C                     3.79684   3.0814   -0.94207 
 C                     2.5441    3.53118   1.03888 
 C                     3.36881   3.97202   0.02073 
 H                     3.72384   1.07184  -1.6564 
 H                     1.52954   1.86849   1.89861 
 H                     4.44276   3.41523  -1.74453 
 H                     2.22072   4.2347    1.79197 
 O                     3.72625   5.28132   0.01926 
 H                     4.2942    5.46604  -0.72813 
 O                     6.03297  -3.92081  -0.77614 
 H                     5.72108  -4.59379  -1.38039 
 
 ITRead=  0  0  0  0  0  0  0  0  0  0  0  0  0  0  0  0  0  0  0  0
 ITRead=  0  0  0  0  0  0  0  0  0  0  0  0  0  0  0  0  0  0  0  0
 ITRead=  0  0  0  0  0  0  0  0
 MicOpt= -1 -1 -1 -1 -1 -1 -1 -1 -1 -1 -1 -1 -1 -1 -1 -1 -1 -1 -1 -1
 MicOpt= -1 -1 -1 -1 -1 -1 -1 -1 -1 -1 -1 -1 -1 -1 -1 -1 -1 -1 -1 -1
 MicOpt= -1 -1 -1 -1 -1 -1 -1 -1
 NAtoms=     48 NQM=       48 NQMF=       0 NMMI=      0 NMMIF=      0
                NMic=       0 NMicF=      0.
                    Isotopes and Nuclear Properties:
 (Nuclear quadrupole moments (NQMom) in fm**2, nuclear magnetic moments (NMagM)
  in nuclear magnetons)

  Atom         1           2           3           4           5           6           7           8           9          10
 IAtWgt=          12          12          32          12          12          12          12          12           1          12
 AtmWgt=  12.0000000  12.0000000  31.9720718  12.0000000  12.0000000  12.0000000  12.0000000  12.0000000   1.0078250  12.0000000
 NucSpn=           0           0           0           0           0           0           0           0           1           0
 AtZEff=  -0.0000000  -0.0000000  -0.0000000  -0.0000000  -0.0000000  -0.0000000  -0.0000000  -0.0000000  -0.0000000  -0.0000000
 NQMom=    0.0000000   0.0000000   0.0000000   0.0000000   0.0000000   0.0000000   0.0000000   0.0000000   0.0000000   0.0000000
 NMagM=    0.0000000   0.0000000   0.0000000   0.0000000   0.0000000   0.0000000   0.0000000   0.0000000   2.7928460   0.0000000
 AtZNuc=   6.0000000   6.0000000  16.0000000   6.0000000   6.0000000   6.0000000   6.0000000   6.0000000   1.0000000   6.0000000

  Atom        11          12          13          14          15          16          17          18          19          20
 IAtWgt=          12          12          12           1           1           1          12           1           1           1
 AtmWgt=  12.0000000  12.0000000  12.0000000   1.0078250   1.0078250   1.0078250  12.0000000   1.0078250   1.0078250   1.0078250
 NucSpn=           0           0           0           1           1           1           0           1           1           1
 AtZEff=  -0.0000000  -0.0000000  -0.0000000  -0.0000000  -0.0000000  -0.0000000  -0.0000000  -0.0000000  -0.0000000  -0.0000000
 NQMom=    0.0000000   0.0000000   0.0000000   0.0000000   0.0000000   0.0000000   0.0000000   0.0000000   0.0000000   0.0000000
 NMagM=    0.0000000   0.0000000   0.0000000   2.7928460   2.7928460   2.7928460   0.0000000   2.7928460   2.7928460   2.7928460
 AtZNuc=   6.0000000   6.0000000   6.0000000   1.0000000   1.0000000   1.0000000   6.0000000   1.0000000   1.0000000   1.0000000

  Atom        21          22          23          24          25          26          27          28          29          30
 IAtWgt=           1           1          32          14          12          12          12          12          12          12
 AtmWgt=   1.0078250   1.0078250  31.9720718  14.0030740  12.0000000  12.0000000  12.0000000  12.0000000  12.0000000  12.0000000
 NucSpn=           1           1           0           2           0           0           0           0           0           0
 AtZEff=  -0.0000000  -0.0000000  -0.0000000  -0.0000000  -0.0000000  -0.0000000  -0.0000000  -0.0000000  -0.0000000  -0.0000000
 NQMom=    0.0000000   0.0000000   0.0000000   2.0440000   0.0000000   0.0000000   0.0000000   0.0000000   0.0000000   0.0000000
 NMagM=    2.7928460   2.7928460   0.0000000   0.4037610   0.0000000   0.0000000   0.0000000   0.0000000   0.0000000   0.0000000
 AtZNuc=   1.0000000   1.0000000  16.0000000   7.0000000   6.0000000   6.0000000   6.0000000   6.0000000   6.0000000   6.0000000

  Atom        31          32          33          34          35          36          37          38          39          40
 IAtWgt=           1           1           1           1          12          12          12          12          12          12
 AtmWgt=   1.0078250   1.0078250   1.0078250   1.0078250  12.0000000  12.0000000  12.0000000  12.0000000  12.0000000  12.0000000
 NucSpn=           1           1           1           1           0           0           0           0           0           0
 AtZEff=  -0.0000000  -0.0000000  -0.0000000  -0.0000000  -0.0000000  -0.0000000  -0.0000000  -0.0000000  -0.0000000  -0.0000000
 NQMom=    0.0000000   0.0000000   0.0000000   0.0000000   0.0000000   0.0000000   0.0000000   0.0000000   0.0000000   0.0000000
 NMagM=    2.7928460   2.7928460   2.7928460   2.7928460   0.0000000   0.0000000   0.0000000   0.0000000   0.0000000   0.0000000
 AtZNuc=   1.0000000   1.0000000   1.0000000   1.0000000   6.0000000   6.0000000   6.0000000   6.0000000   6.0000000   6.0000000

  Atom        41          42          43          44          45          46          47          48
 IAtWgt=           1           1           1           1          16           1          16           1
 AtmWgt=   1.0078250   1.0078250   1.0078250   1.0078250  15.9949146   1.0078250  15.9949146   1.0078250
 NucSpn=           1           1           1           1           0           1           0           1
 AtZEff=  -0.0000000  -0.0000000  -0.0000000  -0.0000000  -0.0000000  -0.0000000  -0.0000000  -0.0000000
 NQMom=    0.0000000   0.0000000   0.0000000   0.0000000   0.0000000   0.0000000   0.0000000   0.0000000
 NMagM=    2.7928460   2.7928460   2.7928460   2.7928460   0.0000000   2.7928460   0.0000000   2.7928460
 AtZNuc=   1.0000000   1.0000000   1.0000000   1.0000000   8.0000000   1.0000000   8.0000000   1.0000000
 Leave Link  101 at Mon Jan 18 19:04:26 2021, MaxMem=  4026531840 cpu:               0.7 elap:               0.1
 (Enter /opt/ohpc/pub/libs/gaussian/g16-A.03/sandybridge/g16/l202.exe)
                          Input orientation:                          
 ---------------------------------------------------------------------
 Center     Atomic      Atomic             Coordinates (Angstroms)
 Number     Number       Type             X           Y           Z
 ---------------------------------------------------------------------
      1          6           0       -6.544630   -1.193879    0.127010
      2          6           0       -5.283469   -0.647909    0.131523
      3         16           0       -3.665919   -1.107322    1.042984
      4          6           0       -4.996815    0.486583   -0.537830
      5          6           0       -1.475687    0.036886    0.221747
      6          6           0       -1.772288   -1.094442    0.892846
      7          6           0       -7.517398   -0.549399   -0.618903
      8          6           0       -5.951198    1.159916   -1.262339
      9          1           0       -2.843406    1.345523   -1.332578
     10          6           0       -0.186077    0.430997   -0.028463
     11          6           0       -0.773630   -1.912541    1.366813
     12          6           0        0.536910   -1.552052    1.124661
     13          6           0        0.845585   -0.387156    0.425435
     14          1           0        0.045427    1.339810   -0.567415
     15          1           0       -0.986976   -2.816418    1.923251
     16          1           0        1.342687   -2.175375    1.484620
     17          6           0       -7.223748    0.615229   -1.306247
     18          1           0       -6.782458   -2.097666    0.673346
     19          1           0       -3.815781   -2.439410    0.928305
     20          1           0       -8.517553   -0.958288   -0.663525
     21          1           0       -5.730059    2.077989   -1.791552
     22          1           0       -7.997253    1.105431   -1.881471
     23         16           0       -3.166075    0.851646   -0.124057
     24          7           0        2.182887   -0.044483    0.184905
     25          6           0        3.146505   -1.044921   -0.067172
     26          6           0        4.392012   -0.989098    0.539344
     27          6           0        2.878694   -2.090316   -0.930362
     28          6           0        5.345494   -1.946131    0.285899
     29          6           0        3.822608   -3.066997   -1.170354
     30          6           0        5.062274   -2.995295   -0.567641
     31          1           0        4.612943   -0.174890    1.215121
     32          1           0        1.913696   -2.145516   -1.414069
     33          1           0        6.317156   -1.901598    0.755555
     34          1           0        3.591387   -3.881585   -1.845380
     35          6           0        2.575405    1.310294    0.123192
     36          6           0        3.391681    1.763268   -0.894977
     37          6           0        2.164040    2.211964    1.093710
     38          6           0        3.796835    3.081396   -0.942072
     39          6           0        2.544098    3.531176    1.038879
     40          6           0        3.368807    3.972023    0.020733
     41          1           0        3.723839    1.071840   -1.656403
     42          1           0        1.529535    1.868488    1.898614
     43          1           0        4.442764    3.415230   -1.744528
     44          1           0        2.220724    4.234697    1.791974
     45          8           0        3.726245    5.281320    0.019257
     46          1           0        4.294203    5.466041   -0.728132
     47          8           0        6.032969   -3.920806   -0.776143
     48          1           0        5.721078   -4.593785   -1.380389
 ---------------------------------------------------------------------
                    Distance matrix (angstroms):
                    1          2          3          4          5
     1  C    0.000000
     2  C    1.374275   0.000000
     3  S    3.022164   1.912666   0.000000
     4  C    2.379432   1.348064   2.609749   0.000000
     5  C    5.217082   3.869921   2.603989   3.630086   0.000000
     6  C    4.834422   3.620414   1.899617   3.865753   1.348425
     7  C    1.384925   2.358661   4.231671   2.726384   6.128025
     8  C    2.796927   2.378433   3.959467   1.374459   4.847051
     9  H    4.719960   3.474373   3.512303   2.450831   2.449309
    10  C    6.564723   5.212777   3.952686   4.837948   1.371504
    11  C    5.946262   4.843953   3.019698   5.217159   2.367346
    12  C    7.160433   5.973325   4.227083   6.127154   2.718552
    13  C    7.440103   6.141635   4.610171   5.985394   2.368460
    14  H    7.094410   5.730329   4.728206   5.114008   2.152713
    15  H    6.061900   5.135423   3.297365   5.748525   3.357871
    16  H    8.063263   6.933251   5.140225   7.166981   3.798971
    17  C    2.405888   2.725323   4.598284   2.359289   5.975739
    18  H    1.082532   2.154608   3.290931   3.366573   5.737776
    19  H    3.104841   2.449172   1.345388   3.479343   3.479555
    20  H    2.138428   3.344807   5.145166   3.807761   7.166726
    21  H    3.879372   3.365736   4.737243   2.154539   5.130220
    22  H    3.380967   3.806701   5.675312   3.345291   6.935138
    23  S    3.957504   2.607172   2.334392   1.912090   1.908095
    24  N    8.803069   7.490891   6.006202   7.235503   3.659664
    25  C    9.694225   8.441656   6.902569   8.299439   4.755885
    26  C   10.946328   9.690081   8.074521   9.564937   5.965183
    27  C    9.524740   8.356377   6.905963   8.295669   4.981263
    28  C   11.914956  10.709065   9.081979  10.656453   7.103871
    29  C   10.614676   9.511441   8.050915   9.529441   6.296345
    30  C   11.766387  10.631719   9.074134  10.644700   7.249979
    31  H   11.256721   9.966790   8.332984   9.790701   6.172767
    32  H    8.650076   7.512048   6.184421   7.446536   4.350482
    33  H   12.896568  11.684847  10.018746  11.635385   8.048048
    34  H   10.670189   9.650278   8.289009   9.723569   6.730726
    35  C    9.457586   8.099168   6.756109   7.645519   4.247661
    36  C   10.417267   9.062323   7.861660   8.492605   5.283819
    37  C    9.400809   8.035550   6.708849   7.544316   4.328845
    38  C   11.241299   9.874829   8.785130   9.177404   6.198629
    39  C   10.284096   8.919577   7.751128   8.283775   5.388547
    40  C   11.179180   9.809074   8.736825   9.079863   6.244584
    41  H   10.665622   9.342688   8.163575   8.811557   5.624380
    42  H    8.815260   7.474750   6.048164   7.102054   3.898462
    43  H   12.061068  10.706459   9.694041   9.956844   7.092779
    44  H   10.443801   9.105485   7.984405   8.459859   5.809534
    45  O   12.142104  10.786255   9.823790   9.969535   7.389532
    46  H   12.750141  11.395227  10.474230  10.542971   7.979325
    47  O   12.901466  11.815138  10.261254  11.880152   8.546287
    48  H   12.817145  11.787954  10.302615  11.890890   8.706514
                    6          7          8          9         10
     6  C    0.000000
     7  C    5.965630   0.000000
     8  C    5.214426   2.405982   0.000000
     9  H    3.471777   5.093747   3.114122   0.000000
    10  C    2.385758   7.420112   5.940572   3.098140   0.000000
    11  C    1.375227   7.160980   6.569600   4.710166   2.790015
    12  C    2.365489   8.301639   7.426176   5.085322   2.405180
    13  C    2.751724   8.429499   7.172048   4.438631   1.392740
    14  H    3.370761   7.795389   6.039436   2.988455   1.081667
    15  H    2.154913   7.365347   7.113559   5.600760   3.872510
    16  H    3.349878   9.250390   8.477659   6.152780   3.379307
    17  C    6.121879   1.383846   1.384917   4.440880   7.155102
    18  H    5.114337   2.146433   3.879396   5.603161   7.099219
    19  H    2.446643   4.434858   4.723778   4.514734   4.725399
    20  H    6.923830   1.081430   3.381057   6.160448   8.470355
    21  H    5.738838   3.387160   1.082510   3.013292   6.046222
    22  H    7.161457   2.136071   2.138372   5.188551   8.056238
    23  S    2.600768   4.598023   3.024504   1.344824   3.011058
    24  N    4.152951   9.746619   8.349157   5.431251   2.425613
    25  C    5.011847  10.689657   9.437051   6.572253   3.644988
    26  C    6.175326  11.973676  10.716637   7.829803   4.826797
    27  C    5.093867  10.514284   9.414946   6.686494   4.069799
    28  C    7.194205  12.970101  11.817776   8.972878   6.028917
    29  C    6.280974  11.629193  10.649063   7.995773   5.441455
    30  C    7.242755  12.815349  11.791732   9.051387   6.290896
    31  H    6.459149  12.273918  10.932547   8.024934   4.994416
    32  H    4.473599   9.598198   8.532612   5.901187   3.601023
    33  H    8.130772  13.968266  12.804580   9.940824   6.953253
    34  H    6.635892  11.662453  10.808219   8.306153   6.014049
    35  C    5.027679  10.289501   8.639749   5.611062   2.902059
    36  C    6.166798  11.154938   9.369545   6.264369   3.914862
    37  C    5.144642  10.212170   8.515566   5.631351   3.155022
    38  C    7.198589  11.886925   9.940765   6.874485   4.870614
    39  C    6.328417  10.983307   9.115291   6.279020   4.266636
    40  C    7.270523  11.805162   9.819201   6.879066   5.017817
    41  H    6.434195  11.404834   9.683459   6.580917   4.283493
    42  H    4.548907   9.696962   8.151998   5.462299   2.953529
    43  H    8.119098  12.650328  10.646755   7.585622   5.768596
    44  H    6.719546  11.114447   9.250049   6.614799   4.855390
    45  O    8.464477  12.681642  10.596290   7.776778   6.231707
    46  H    9.081290  13.255616  11.126380   8.263745   6.775995
    47  O    8.467343  13.964367  13.025758  10.336047   7.627172
    48  H    8.576919  13.863411  13.013879  10.422478   7.872142
                   11         12         13         14         15
    11  C    0.000000
    12  C    1.380618   0.000000
    13  C    2.415543   1.393262   0.000000
    14  H    3.871677   3.386376   2.146722   0.000000
    15  H    1.082651   2.135087   3.391614   4.954140   0.000000
    16  H    2.135827   1.080453   2.136986   4.272032   2.455741
    17  C    7.425557   8.416308   8.313702   7.342465   7.816853
    18  H    6.051544   7.353538   7.821403   7.744401   5.972142
    19  H    3.118423   4.446558   5.117906   5.606122   3.022282
    20  H    8.062333   9.248430   9.443536   8.866517   8.176408
    21  H    7.103928   7.807458   7.364174   5.949761   7.762204
    22  H    8.475862   9.430323   9.259882   8.152691   8.888239
    23  S    3.948065   4.587936   4.234382   3.278508   4.732297
    24  N    3.691550   2.421806   1.401305   2.655370   4.555601
    25  C    4.263395   2.913354   2.443266   3.943839   4.917891
    26  C    5.312373   3.939711   3.598952   5.053863   5.847034
    27  C    4.318343   3.161772   2.978669   4.463731   4.859397
    28  C    6.213951   4.897071   4.764352   6.294145   6.598371
    29  C    5.375443   4.284619   4.311700   5.835287   5.724096
    30  C    6.242775   5.042396   5.056585   6.630376   6.544461
    31  H    5.661944   4.303348   3.855081   5.131662   6.232031
    32  H    3.874184   2.948371   2.759795   4.044101   4.472327
    33  H    7.117092   5.802557   5.686880   7.182727   7.453238
    34  H    5.766168   4.855687   4.990698   6.439720   6.024829
    35  C    4.811371   3.653960   2.442328   2.622708   5.741126
    36  C    5.998090   4.818714   3.584748   3.388809   6.934592
    37  C    5.071098   4.100771   2.990040   2.829931   5.991800
    38  C    7.152587   6.030534   4.755082   4.152897   8.116596
    39  C    6.383488   5.465837   4.314462   3.691290   7.317277
    40  C    7.321189   6.305054   5.053006   4.280107   8.287059
    41  H    6.186565   4.977514   3.840191   3.845571   7.079848
    42  H    4.459099   3.644777   2.779564   2.926325   5.318062
    43  H    8.079378   6.939873   5.666266   5.002953   9.042572
    44  H    6.850945   6.063580   5.011982   4.321921   7.747567
    45  O    8.591648   7.621598   6.371405   5.424768   9.561015
    46  H    9.193215   8.173354   6.890834   5.924838  10.174469
    47  O    7.413176   6.279388   6.390573   7.972974   7.601712
    48  H    7.544363   6.511760   6.687837   8.251151   7.685770
                   16         17         18         19         20
    16  H    0.000000
    17  C    9.431872   0.000000
    18  H    8.165916   3.387230   0.000000
    19  H    5.195093   5.092964   2.997160   0.000000
    20  H   10.164653   2.136113   2.469000   5.180184   0.000000
    21  H    8.879648   2.146228   4.961790   5.609722   4.273353
    22  H   10.456038   1.081430   4.273482   6.159988   2.452150
    23  S    5.663888   4.232987   4.734186   3.515769   5.674963
    24  N    2.633609   9.546912   9.210404   6.501718  10.772850
    25  C    2.634339  10.575138  10.012040   7.170007  11.679614
    26  C    3.405757  11.870381  11.230123   8.344014  12.965520
    27  C    2.863336  10.465209   9.793354   6.956472  11.455441
    28  C    4.184728  12.925995  12.135085   9.197009  13.930589
    29  C    3.740840  11.644709  10.807694   7.946271  12.529290
    30  C    4.326589  12.826837  11.943344   9.020351  13.732090
    31  H    3.843064  12.128019  11.569172   8.732337  13.287323
    32  H    2.954546   9.546006   8.943304   6.196773  10.525388
    33  H    5.035060  13.926289  13.101339  10.148670  14.932254
    34  H    4.365399  11.725150  10.823262   8.039859  12.512748
    35  C    3.939920   9.927226   9.974290   7.453573  11.349850
    36  C    5.037238  10.685245  10.994524   8.540162  12.218441
    37  C    4.480644   9.820383   9.939288   7.577658  11.279840
    38  C    6.288507  11.299020  11.889226   9.587989  12.963055
    39  C    5.848658  10.460075  10.899639   8.724000  12.058756
    40  C    6.636161  11.190673  11.845472   9.672046  12.886494
    41  H    5.106889  10.962699  11.218546   8.709504  12.448249
    42  H    4.069291   9.405411   9.290903   6.933389  10.747055
    43  H    7.161895  12.005815  12.737494  10.470168  13.721007
    44  H    6.477225  10.578165  11.063789   9.040410  12.178143
    45  O    7.964354  11.976298  12.857298  10.831352  13.758978
    46  H    8.485220  12.511107  13.485779  11.446038  14.332385
    47  O    5.491477  14.021311  13.025361  10.104333  14.849474
    48  H    5.764312  13.953775  12.914598  10.046048  14.712897
                   21         22         23         24         25
    21  H    0.000000
    22  H    2.468628   0.000000
    23  S    3.295219   5.147154   0.000000
    24  N    8.427692  10.451194   5.432301   0.000000
    25  C    9.566579  11.493435   6.591576   1.411729   0.000000
    26  C   10.830347  12.796143   7.807248   2.428612   1.386458
    27  C    9.603491  11.375572   6.770857   2.431748   1.381908
    28  C   11.965668  13.857793   8.968970   3.691686   2.402580
    29  C   10.867852  12.554838   8.080358   3.696079   2.400608
    30  C   11.987936  13.751122   9.094034   4.191001   2.779316
    31  H   11.004237  13.047802   7.959918   2.642636   2.133464
    32  H    8.741137  10.440978   6.037482   2.653963   2.131961
    33  H   12.940644  14.862652   9.913916   4.568008   3.385824
    34  H   11.063850  12.616188   8.427913   4.563911   3.377367
    35  C    8.557823  10.762980   5.765074   1.411843   2.430932
    36  C    9.171098  11.450491   6.665548   2.428022   2.937907
    37  C    8.405920  10.645562   5.634141   2.432660   3.594466
    38  C    9.617180  11.995308   7.356837   3.694053   4.267888
    39  C    8.864805  11.204140   6.413921   3.693925   4.746252
    40  C    9.468955  11.875313   7.243093   4.191143   5.022636
    41  H    9.508248  11.723301   7.061691   2.647853   2.709178
    42  H    8.146344  10.277694   5.212861   2.650118   3.868702
    43  H   10.260446  12.653377   8.190990   4.560633   4.938295
    44  H    8.983763  11.300157   6.643328   4.571158   5.673435
    45  O   10.147021  12.589330   8.194304   5.547393   6.353337
    46  H   10.634641  13.092937   8.792798   5.971362   6.644299
    47  O   13.243316  14.944294  10.383830   5.547308   4.135823
    48  H   13.259342  14.863538  10.498218   5.972026   4.576833
                   26         27         28         29         30
    26  C    0.000000
    27  C    2.379674   0.000000
    28  C    1.374509   2.754121   0.000000
    29  C    2.750446   1.379303   2.386670   0.000000
    30  C    2.387361   2.391354   1.381843   1.380281   0.000000
    31  H    1.080935   3.358508   2.130112   3.831371   3.366723
    32  H    3.360830   1.080852   3.834955   2.133652   3.369289
    33  H    2.141397   3.834182   1.080133   3.360067   2.126441
    34  H    3.833326   2.133971   3.371235   1.082902   2.140476
    35  C    2.959805   3.572969   4.278337   4.731749   5.019947
    36  C    3.260898   3.887739   4.355628   4.857262   5.053905
    37  C    3.939287   4.808036   5.297543   5.978651   6.186711
    38  C    4.372385   5.252592   5.402063   6.152683   6.218336
    39  C    4.908890   5.965822   6.198039   7.074686   7.177530
    40  C    5.092016   6.156033   6.245170   7.153490   7.194271
    41  H    3.084676   3.352706   3.938331   4.168449   4.417963
    42  H    4.266988   5.049303   5.631493   6.247860   6.497618
    43  H    4.961527   5.781022   5.803598   6.537089   6.547036
    44  H    5.794101   6.917357   7.087671   8.040905   8.118804
    45  O    6.327075   7.480718   7.411418   8.433200   8.404271
    46  H    6.579125   7.690455   7.554718   8.557494   8.497641
    47  O    3.608068   3.650196   2.345186   2.402101   1.357311
    48  H    4.294829   3.814319   3.150817   2.445278   1.910432
                   31         32         33         34         35
    31  H    0.000000
    32  H    4.252287   0.000000
    33  H    2.469223   4.915000   0.000000
    34  H    4.914248   2.452471   4.256175   0.000000
    35  C    2.747661   3.839746   4.971603   5.644741   0.000000
    36  C    3.114555   4.210996   4.971308   5.727784   1.381362
    37  C    3.421833   5.033812   5.855264   6.914254   1.387132
    38  C    3.990352   5.575805   5.836453   7.024335   2.400725
    39  C    4.248071   6.216043   6.620519   8.022767   2.402453
    40  C    4.491250   6.449829   6.613029   8.075338   2.779350
    41  H    3.254304   3.699557   4.624302   4.958798   2.131366
    42  H    3.761643   5.218590   6.200117   7.164640   2.134841
    43  H    4.655904   6.117784   6.167043   7.347008   3.377301
    44  H    5.049745   7.147034   7.450439   8.999061   3.385671
    45  O    5.655665   7.778024   7.671327   9.351678   4.135732
    46  H    5.974774   8.004569   7.783044   9.440355   4.577035
    47  O    4.473644   4.530675   2.550306   2.665732   6.334663
    48  H    5.243212   4.526733   3.487899   2.293257   6.856687
                   36         37         38         39         40
    36  C    0.000000
    37  C    2.379770   0.000000
    38  C    1.379793   2.750698   0.000000
    39  C    2.753851   1.373962   2.386591   0.000000
    40  C    2.391160   2.387583   1.379644   1.382430   0.000000
    41  H    1.080820   3.360949   2.133990   3.834667   3.368960
    42  H    3.358989   1.080945   3.831617   2.129088   3.366633
    43  H    2.134360   3.833540   1.082869   3.371310   2.139988
    44  H    3.833902   2.140615   3.359946   1.080123   2.127061
    45  O    3.650267   3.607753   2.401833   2.345230   1.357211
    46  H    3.814828   4.294848   2.445338   3.151015   1.910300
    47  O    6.268909   7.488380   7.352459   8.426064   8.368364
    48  H    6.787771   8.067955   7.924849   9.053234   8.992741
                   41         42         43         44         45
    41  H    0.000000
    42  H    4.252971   0.000000
    43  H    2.452773   4.914448   0.000000
    44  H    4.914705   2.467399   4.256270   0.000000
    45  O    4.530735   4.472688   2.665826   2.550400   0.000000
    46  H    4.527251   5.242668   2.293678   3.488045   0.956707
    47  O    5.570768   7.807123   7.568616   9.361659   9.520124
    48  H    6.013689   8.371491   8.118559  10.012915  10.171336
                   46         47         48
    46  H    0.000000
    47  O    9.546649   0.000000
    48  H   10.181430   0.956708   0.000000
 Stoichiometry    C24H19NO2S2
 Framework group  C1[X(C24H19NO2S2)]
 Deg. of freedom   138
 Full point group                 C1      NOp   1
 Largest Abelian subgroup         C1      NOp   1
 Largest concise Abelian subgroup C1      NOp   1
                         Standard orientation:                         
 ---------------------------------------------------------------------
 Center     Atomic      Atomic             Coordinates (Angstroms)
 Number     Number       Type             X           Y           Z
 ---------------------------------------------------------------------
      1          6           0        6.544630   -1.193879   -0.127010
      2          6           0        5.283469   -0.647909   -0.131523
      3         16           0        3.665919   -1.107322   -1.042984
      4          6           0        4.996815    0.486583    0.537830
      5          6           0        1.475687    0.036886   -0.221747
      6          6           0        1.772288   -1.094442   -0.892846
      7          6           0        7.517398   -0.549399    0.618903
      8          6           0        5.951198    1.159916    1.262339
      9          1           0        2.843406    1.345523    1.332578
     10          6           0        0.186077    0.430997    0.028463
     11          6           0        0.773630   -1.912541   -1.366813
     12          6           0       -0.536910   -1.552052   -1.124661
     13          6           0       -0.845585   -0.387156   -0.425435
     14          1           0       -0.045427    1.339810    0.567415
     15          1           0        0.986976   -2.816418   -1.923251
     16          1           0       -1.342687   -2.175375   -1.484620
     17          6           0        7.223748    0.615229    1.306247
     18          1           0        6.782458   -2.097666   -0.673346
     19          1           0        3.815781   -2.439410   -0.928305
     20          1           0        8.517553   -0.958288    0.663525
     21          1           0        5.730059    2.077989    1.791552
     22          1           0        7.997253    1.105431    1.881471
     23         16           0        3.166075    0.851646    0.124057
     24          7           0       -2.182887   -0.044483   -0.184905
     25          6           0       -3.146505   -1.044921    0.067172
     26          6           0       -4.392012   -0.989098   -0.539344
     27          6           0       -2.878694   -2.090316    0.930362
     28          6           0       -5.345494   -1.946131   -0.285899
     29          6           0       -3.822608   -3.066997    1.170354
     30          6           0       -5.062274   -2.995295    0.567641
     31          1           0       -4.612943   -0.174890   -1.215121
     32          1           0       -1.913696   -2.145516    1.414069
     33          1           0       -6.317156   -1.901598   -0.755555
     34          1           0       -3.591387   -3.881585    1.845380
     35          6           0       -2.575405    1.310294   -0.123192
     36          6           0       -3.391681    1.763268    0.894977
     37          6           0       -2.164040    2.211964   -1.093710
     38          6           0       -3.796835    3.081396    0.942072
     39          6           0       -2.544098    3.531176   -1.038879
     40          6           0       -3.368807    3.972023   -0.020733
     41          1           0       -3.723839    1.071840    1.656403
     42          1           0       -1.529535    1.868488   -1.898614
     43          1           0       -4.442764    3.415230    1.744528
     44          1           0       -2.220724    4.234697   -1.791974
     45          8           0       -3.726245    5.281320   -0.019257
     46          1           0       -4.294203    5.466041    0.728132
     47          8           0       -6.032969   -3.920806    0.776143
     48          1           0       -5.721078   -4.593785    1.380389
 ---------------------------------------------------------------------
 Rotational constants (GHZ):           0.2280536           0.0702108           0.0568934
 Leave Link  202 at Mon Jan 18 19:04:26 2021, MaxMem=  4026531840 cpu:               0.1 elap:               0.0
 (Enter /opt/ohpc/pub/libs/gaussian/g16-A.03/sandybridge/g16/l301.exe)
 Standard basis: TZVP (5D, 7F)
 Ernie: Thresh=  0.10000D-02 Tol=  0.10000D-05 Strict=F.
 There are   700 symmetry adapted cartesian basis functions of A   symmetry.
 There are   671 symmetry adapted basis functions of A   symmetry.
   671 basis functions,  1191 primitive gaussians,   700 cartesian basis functions
   109 alpha electrons      109 beta electrons
       nuclear repulsion energy      2827.2462800785 Hartrees.
 IExCor=33909 DFT=T Ex+Corr=LC-wHPBE ExCW=0 ScaHFX=  1.000000
 ScaDFX=  1.000000  1.000000  1.000000  1.000000 ScalE2=  1.000000  1.000000
 IRadAn=      5 IRanWt=     -1 IRanGd=            0 ICorTp=0 IEmpDi=  4
 HFx  wShort=  0.000000 wLong=  0.167500 cFull=  0.000000 cShort=  0.000000 cLong=  1.000000
 DFx  wShort=  0.000000 wLong=  0.167500 cFull=  0.000000 cShort=  1.000000 cLong=  0.000000
 NAtoms=   48 NActive=   48 NUniq=   48 SFac= 1.00D+00 NAtFMM=   60 NAOKFM=F Big=F
 Integral buffers will be    131072 words long.
 Raffenetti 2 integral format.
 Two-electron integral symmetry is turned on.
 Leave Link  301 at Mon Jan 18 19:04:26 2021, MaxMem=  4026531840 cpu:               0.4 elap:               0.1
 (Enter /opt/ohpc/pub/libs/gaussian/g16-A.03/sandybridge/g16/l302.exe)
 NPDir=0 NMtPBC=     1 NCelOv=     1 NCel=       1 NClECP=     1 NCelD=      1
         NCelK=      1 NCelE2=     1 NClLst=     1 CellRange=     0.0.
 One-electron integrals computed using PRISM.
 One-electron integral symmetry used in STVInt
 NBasis=   671 RedAO= T EigKep=  6.34D-06  NBF=   671
 NBsUse=   671 1.00D-06 EigRej= -1.00D+00 NBFU=   671
 Precomputing XC quadrature grid using
 IXCGrd= 4 IRadAn=           5 IRanWt=          -1 IRanGd=           0 AccXCQ= 0.00D+00.
 Generated NRdTot=       0 NPtTot=           0 NUsed=           0 NTot=          32
 NSgBfM=   657   657   657   657   657 MxSgAt=    48 MxSgA2=    48.
 Leave Link  302 at Mon Jan 18 19:04:27 2021, MaxMem=  4026531840 cpu:              10.9 elap:               1.4
 (Enter /opt/ohpc/pub/libs/gaussian/g16-A.03/sandybridge/g16/l303.exe)
 DipDrv:  MaxL=1.
 Leave Link  303 at Mon Jan 18 19:04:28 2021, MaxMem=  4026531840 cpu:               0.9 elap:               0.2
 (Enter /opt/ohpc/pub/libs/gaussian/g16-A.03/sandybridge/g16/l401.exe)
 ExpMin= 9.52D-02 ExpMax= 6.07D+04 ExpMxC= 2.07D+03 IAcc=3 IRadAn=         5 AccDes= 0.00D+00
 Harris functional with IExCor=33909 and IRadAn=       5 diagonalized for initial guess.
 HarFok:  IExCor=33909 AccDes= 0.00D+00 IRadAn=         5 IDoV= 1 UseB2=F ITyADJ=14
 ICtDFT=  3500011 ScaDFX=  1.000000  1.000000  1.000000  1.000000
 FoFCou: FMM=F IPFlag=           0 FMFlag=      100000 FMFlg1=           0
         NFxFlg=           0 DoJE=T BraDBF=F KetDBF=T FulRan=T
         wScrn=  0.000000 ICntrl=       500 IOpCl=  0 I1Cent=   200000004 NGrid=           0
         NMat0=    1 NMatS0=      1 NMatT0=    0 NMatD0=    1 NMtDS0=    0 NMtDT0=    0
 Petite list used in FoFCou.
 Harris En= -1906.76789516921    
 JPrj=0 DoOrth=F DoCkMO=F.
 Leave Link  401 at Mon Jan 18 19:04:35 2021, MaxMem=  4026531840 cpu:              60.1 elap:               7.6
 (Enter /opt/ohpc/pub/libs/gaussian/g16-A.03/sandybridge/g16/l502.exe)
 Integral symmetry usage will be decided dynamically.
 Closed shell SCF:
 Using DIIS extrapolation, IDIIS=    10.
 NGot=  4026531840 LenX=  4025539370 LenY=  4025048670
 Requested convergence on RMS density matrix=1.00D-06 within  32 cycles.
 Requested convergence on MAX density matrix=1.00D-04.
 Requested convergence on             energy=1.00D-04.
 Virtual orbitals will be shifted by   0.500 hartree.
 No special actions if energy rises.
 Dynamic level shift is on during FON iterations.

 Cycle   1  Pass 1  IDiag  1:
 FoFJK:  IHMeth= 1 ICntrl=       0 DoSepK=T KAlg= 0 I1Cent=           0 FoldK=F
 IRaf=         1 NMat=       1 IRICut=       1 DoRegI=T DoRafI=F ISym2E= 0 IDoP0=0 IntGTp=1.
 FoFCou: FMM=F IPFlag=           0 FMFlag=      100000 FMFlg1=           0
         NFxFlg=           0 DoJE=T BraDBF=F KetDBF=F FulRan=T
         wScrn=  0.000000 ICntrl=       500 IOpCl=  0 I1Cent=           0 NGrid=           0
         NMat0=    1 NMatS0=      1 NMatT0=    0 NMatD0=    1 NMtDS0=    0 NMtDT0=    0
 Symmetry not used in FoFCou.
 E= -1925.77878150751    
 DIIS: error= 2.10D-02 at cycle   1 NSaved=   1.
 NSaved= 1 IEnMin= 1 EnMin= -1925.77878150751     IErMin= 1 ErrMin= 2.10D-02
 ErrMax= 2.10D-02  0.00D+00 EMaxC= 1.00D+00 BMatC= 6.56D-01 BMatP= 6.56D-01
 IDIUse=1 WtCom= 1.00D+00 WtEn= 0.00D+00
 Coeff-Com:  0.100D+01
 Coeff:      0.100D+01
 Gap=     0.364 Goal=   None    Shift=    0.500
 T= 1283. Gap= 0.644 NK=0 IS=  110 IE=  671 IFin=  109
          NO(<0.9)=   0  NV(>0.1)=   0    109.00e < EF      0.00e >EF  Err=0.0D+00
 GapD=    0.364 DampG=1.000 DampE=0.500 DampFc=0.5000 IDamp=-1.
 Damping current iteration by 5.00D-01
 RMSDP=4.30D-03 MaxDP=2.69D-01              OVMax= 1.05D-01

 Cycle   2  Pass 1  IDiag  1:
 E= -1926.18100444055     Delta-E=       -0.402222933033 Rises=F Damp=T
 DIIS: error= 8.99D-03 at cycle   2 NSaved=   2.
 NSaved= 2 IEnMin= 2 EnMin= -1926.18100444055     IErMin= 2 ErrMin= 8.99D-03
 ErrMax= 8.99D-03  0.00D+00 EMaxC= 1.00D+00 BMatC= 9.01D-02 BMatP= 6.56D-01
 IDIUse=1 WtCom= 1.00D+00 WtEn= 0.00D+00
 Coeff-Com: -0.467D+00 0.147D+01
 Coeff:     -0.467D+00 0.147D+01
 Gap=     0.261 Goal=   None    Shift=    0.500
 T= 1156. Gap= 0.733 NK=0 IS=  110 IE=  671 IFin=  109
          NO(<0.9)=   0  NV(>0.1)=   0    109.00e < EF      0.00e >EF  Err=0.0D+00
 GapD=    0.261 DampG=1.000 DampE=1.000 DampFc=1.0000 IDamp=-1.
 RMSDP=1.81D-03 MaxDP=1.09D-01 DE=-4.02D-01 OVMax= 2.02D-02

 Cycle   3  Pass 1  IDiag  1:
 E= -1926.40485497887     Delta-E=       -0.223850538318 Rises=F Damp=F
 DIIS: error= 2.84D-03 at cycle   3 NSaved=   3.
 NSaved= 3 IEnMin= 3 EnMin= -1926.40485497887     IErMin= 3 ErrMin= 2.84D-03
 ErrMax= 2.84D-03  0.00D+00 EMaxC= 1.00D+00 BMatC= 9.67D-03 BMatP= 9.01D-02
 IDIUse=1 WtCom= 1.00D+00 WtEn= 0.00D+00
 Coeff-Com:  0.657D-01 0.662D-01 0.868D+00
 Coeff:      0.657D-01 0.662D-01 0.868D+00
 Gap=     0.251 Goal=   None    Shift=    0.500
 T=  891. Gap= 0.746 NK=0 IS=  110 IE=  671 IFin=  109
          NO(<0.9)=   0  NV(>0.1)=   0    109.00e < EF      0.00e >EF  Err=0.0D+00
 GapD=    0.251 DampG=1.000 DampE=1.000 DampFc=1.0000 IDamp=-1.
 RMSDP=6.88D-04 MaxDP=4.61D-02 DE=-2.24D-01 OVMax= 1.03D-02

 Cycle   4  Pass 1  IDiag  1:
 E= -1926.41381009181     Delta-E=       -0.008955112943 Rises=F Damp=F
 DIIS: error= 1.44D-03 at cycle   4 NSaved=   4.
 NSaved= 4 IEnMin= 4 EnMin= -1926.41381009181     IErMin= 4 ErrMin= 1.44D-03
 ErrMax= 1.44D-03  0.00D+00 EMaxC= 1.00D+00 BMatC= 1.36D-03 BMatP= 9.67D-03
 IDIUse=1 WtCom= 1.00D+00 WtEn= 0.00D+00
 Coeff-Com:  0.739D-01-0.968D-01 0.768D-01 0.946D+00
 Coeff:      0.739D-01-0.968D-01 0.768D-01 0.946D+00
 Gap=     0.245 Goal=   None    Shift=    0.500
 T=  348. Gap= 0.745 NK=0 IS=  110 IE=  671 IFin=  109
          NO(<0.9)=   0  NV(>0.1)=   0    109.00e < EF      0.00e >EF  Err=0.0D+00
 GapD=    0.245 DampG=1.000 DampE=1.000 DampFc=1.0000 IDamp=-1.
 RMSDP=3.37D-04 MaxDP=2.42D-02 DE=-8.96D-03 OVMax= 7.48D-03

 Cycle   5  Pass 1  IDiag  1:
 E= -1926.41532005587     Delta-E=       -0.001509964059 Rises=F Damp=F
 DIIS: error= 5.15D-04 at cycle   5 NSaved=   5.
 NSaved= 5 IEnMin= 5 EnMin= -1926.41532005587     IErMin= 5 ErrMin= 5.15D-04
 ErrMax= 5.15D-04  0.00D+00 EMaxC= 1.00D+00 BMatC= 1.88D-04 BMatP= 1.36D-03
 IDIUse=1 WtCom= 1.00D+00 WtEn= 0.00D+00
 Coeff-Com:  0.469D-02-0.130D-01-0.101D+00-0.168D-01 0.113D+01
 Coeff:      0.469D-02-0.130D-01-0.101D+00-0.168D-01 0.113D+01
 Gap=     0.245 Goal=   None    Shift=    0.500
 RMSDP=2.00D-04 MaxDP=1.46D-02 DE=-1.51D-03 OVMax= 6.36D-03

 Cycle   6  Pass 1  IDiag  1:
 E= -1926.41574964043     Delta-E=       -0.000429584559 Rises=F Damp=F
 DIIS: error= 4.12D-04 at cycle   6 NSaved=   6.
 NSaved= 6 IEnMin= 6 EnMin= -1926.41574964043     IErMin= 6 ErrMin= 4.12D-04
 ErrMax= 4.12D-04  0.00D+00 EMaxC= 1.00D+00 BMatC= 5.09D-05 BMatP= 1.88D-04
 IDIUse=1 WtCom= 1.00D+00 WtEn= 0.00D+00
 Coeff-Com: -0.154D-01 0.185D-01-0.518D-01-0.165D+00-0.120D+00 0.133D+01
 Coeff:     -0.154D-01 0.185D-01-0.518D-01-0.165D+00-0.120D+00 0.133D+01
 Gap=     0.246 Goal=   None    Shift=    0.500
 RMSDP=1.23D-04 MaxDP=9.69D-03 DE=-4.30D-04 OVMax= 5.50D-03

 Cycle   7  Pass 1  IDiag  1:
 E= -1926.41594404271     Delta-E=       -0.000194402284 Rises=F Damp=F
 DIIS: error= 2.98D-04 at cycle   7 NSaved=   7.
 NSaved= 7 IEnMin= 7 EnMin= -1926.41594404271     IErMin= 7 ErrMin= 2.98D-04
 ErrMax= 2.98D-04  0.00D+00 EMaxC= 1.00D+00 BMatC= 2.20D-05 BMatP= 5.09D-05
 IDIUse=1 WtCom= 1.00D+00 WtEn= 0.00D+00
 Coeff-Com: -0.687D-02 0.722D-02 0.137D-01-0.694D-01-0.436D+00 0.710D-01
 Coeff-Com:  0.142D+01
 Coeff:     -0.687D-02 0.722D-02 0.137D-01-0.694D-01-0.436D+00 0.710D-01
 Coeff:      0.142D+01
 Gap=     0.245 Goal=   None    Shift=    0.500
 RMSDP=7.94D-05 MaxDP=6.75D-03 DE=-1.94D-04 OVMax= 4.72D-03

 Cycle   8  Pass 1  IDiag  1:
 E= -1926.41604576203     Delta-E=       -0.000101719321 Rises=F Damp=F
 DIIS: error= 2.23D-04 at cycle   8 NSaved=   8.
 NSaved= 8 IEnMin= 8 EnMin= -1926.41604576203     IErMin= 8 ErrMin= 2.23D-04
 ErrMax= 2.23D-04  0.00D+00 EMaxC= 1.00D+00 BMatC= 9.80D-06 BMatP= 2.20D-05
 IDIUse=1 WtCom= 1.00D+00 WtEn= 0.00D+00
 Coeff-Com:  0.376D-02-0.690D-02 0.314D-01 0.312D-01-0.145D+00-0.636D+00
 Coeff-Com:  0.155D+00 0.157D+01
 Coeff:      0.376D-02-0.690D-02 0.314D-01 0.312D-01-0.145D+00-0.636D+00
 Coeff:      0.155D+00 0.157D+01
 Gap=     0.246 Goal=   None    Shift=    0.500
 RMSDP=5.27D-05 MaxDP=4.96D-03 DE=-1.02D-04 OVMax= 3.92D-03

 Cycle   9  Pass 1  IDiag  1:
 E= -1926.41609873066     Delta-E=       -0.000052968624 Rises=F Damp=F
 DIIS: error= 1.72D-04 at cycle   9 NSaved=   9.
 NSaved= 9 IEnMin= 9 EnMin= -1926.41609873066     IErMin= 9 ErrMin= 1.72D-04
 ErrMax= 1.72D-04  0.00D+00 EMaxC= 1.00D+00 BMatC= 4.48D-06 BMatP= 9.80D-06
 IDIUse=1 WtCom= 1.00D+00 WtEn= 0.00D+00
 Coeff-Com:  0.338D-02-0.472D-02 0.404D-02 0.436D-01 0.166D+00-0.429D+00
 Coeff-Com: -0.542D+00-0.878D-01 0.185D+01
 Coeff:      0.338D-02-0.472D-02 0.404D-02 0.436D-01 0.166D+00-0.429D+00
 Coeff:     -0.542D+00-0.878D-01 0.185D+01
 Gap=     0.246 Goal=   None    Shift=    0.500
 RMSDP=3.75D-05 MaxDP=3.48D-03 DE=-5.30D-05 OVMax= 3.16D-03

 Cycle  10  Pass 1  IDiag  1:
 E= -1926.41612561858     Delta-E=       -0.000026887928 Rises=F Damp=F
 DIIS: error= 1.24D-04 at cycle  10 NSaved=  10.
 NSaved=10 IEnMin=10 EnMin= -1926.41612561858     IErMin=10 ErrMin= 1.24D-04
 ErrMax= 1.24D-04  0.00D+00 EMaxC= 1.00D+00 BMatC= 2.10D-06 BMatP= 4.48D-06
 IDIUse=1 WtCom= 1.00D+00 WtEn= 0.00D+00
 Coeff-Com:  0.409D-03-0.135D-03-0.764D-02 0.186D-01 0.125D+00-0.613D-01
 Coeff-Com: -0.312D+00-0.574D+00 0.186D+00 0.163D+01
 Coeff:      0.409D-03-0.135D-03-0.764D-02 0.186D-01 0.125D+00-0.613D-01
 Coeff:     -0.312D+00-0.574D+00 0.186D+00 0.163D+01
 Gap=     0.246 Goal=   None    Shift=    0.500
 RMSDP=2.48D-05 MaxDP=2.24D-03 DE=-2.69D-05 OVMax= 2.35D-03

 Cycle  11  Pass 1  IDiag  1:
 E= -1926.41613849196     Delta-E=       -0.000012873372 Rises=F Damp=F
 DIIS: error= 8.75D-05 at cycle  11 NSaved=  11.
 NSaved=11 IEnMin=11 EnMin= -1926.41613849196     IErMin=11 ErrMin= 8.75D-05
 ErrMax= 8.75D-05  0.00D+00 EMaxC= 1.00D+00 BMatC= 9.54D-07 BMatP= 2.10D-06
 IDIUse=1 WtCom= 1.00D+00 WtEn= 0.00D+00
 Coeff-Com: -0.988D-03 0.145D-02-0.245D-02-0.765D-02-0.373D-01 0.154D+00
 Coeff-Com:  0.147D+00-0.269D+00-0.933D+00-0.185D+00 0.213D+01
 Coeff:     -0.988D-03 0.145D-02-0.245D-02-0.765D-02-0.373D-01 0.154D+00
 Coeff:      0.147D+00-0.269D+00-0.933D+00-0.185D+00 0.213D+01
 Gap=     0.246 Goal=   None    Shift=    0.500
 RMSDP=1.78D-05 MaxDP=1.61D-03 DE=-1.29D-05 OVMax= 1.79D-03

 Cycle  12  Pass 1  IDiag  1:
 E= -1926.41614478365     Delta-E=       -0.000006291695 Rises=F Damp=F
 DIIS: error= 6.22D-05 at cycle  12 NSaved=  12.
 NSaved=12 IEnMin=12 EnMin= -1926.41614478365     IErMin=12 ErrMin= 6.22D-05
 ErrMax= 6.22D-05  0.00D+00 EMaxC= 1.00D+00 BMatC= 4.72D-07 BMatP= 9.54D-07
 IDIUse=1 WtCom= 1.00D+00 WtEn= 0.00D+00
 Coeff-Com: -0.229D-03 0.183D-03 0.352D-02-0.867D-02-0.368D-01 0.440D-01
 Coeff-Com:  0.139D+00 0.105D+00-0.379D+00-0.100D+01 0.276D+00 0.186D+01
 Coeff:     -0.229D-03 0.183D-03 0.352D-02-0.867D-02-0.368D-01 0.440D-01
 Coeff:      0.139D+00 0.105D+00-0.379D+00-0.100D+01 0.276D+00 0.186D+01
 Gap=     0.246 Goal=   None    Shift=    0.500
 RMSDP=1.09D-05 MaxDP=9.86D-04 DE=-6.29D-06 OVMax= 1.28D-03

 Cycle  13  Pass 1  IDiag  1:
 E= -1926.41614774615     Delta-E=       -0.000002962503 Rises=F Damp=F
 DIIS: error= 4.32D-05 at cycle  13 NSaved=  13.
 NSaved=13 IEnMin=13 EnMin= -1926.41614774615     IErMin=13 ErrMin= 4.32D-05
 ErrMax= 4.32D-05  0.00D+00 EMaxC= 1.00D+00 BMatC= 2.27D-07 BMatP= 4.72D-07
 IDIUse=1 WtCom= 1.00D+00 WtEn= 0.00D+00
 Coeff-Com:  0.943D-04-0.182D-03 0.311D-02-0.205D-02-0.599D-02-0.359D-01
 Coeff-Com:  0.431D-01 0.162D+00 0.108D+00-0.694D+00-0.433D+00-0.652D-01
 Coeff-Com:  0.192D+01
 Coeff:      0.943D-04-0.182D-03 0.311D-02-0.205D-02-0.599D-02-0.359D-01
 Coeff:      0.431D-01 0.162D+00 0.108D+00-0.694D+00-0.433D+00-0.652D-01
 Coeff:      0.192D+01
 Gap=     0.246 Goal=   None    Shift=    0.500
 RMSDP=7.12D-06 MaxDP=6.39D-04 DE=-2.96D-06 OVMax= 9.04D-04

 Cycle  14  Pass 1  IDiag  1:
 E= -1926.41614912190     Delta-E=       -0.000001375745 Rises=F Damp=F
 DIIS: error= 2.88D-05 at cycle  14 NSaved=  14.
 NSaved=14 IEnMin=14 EnMin= -1926.41614912190     IErMin=14 ErrMin= 2.88D-05
 ErrMax= 2.88D-05  0.00D+00 EMaxC= 1.00D+00 BMatC= 1.03D-07 BMatP= 2.27D-07
 IDIUse=1 WtCom= 1.00D+00 WtEn= 0.00D+00
 Coeff-Com:  0.656D-04-0.721D-04 0.318D-03 0.279D-02 0.537D-02-0.305D-01
 Coeff-Com: -0.967D-02 0.430D-01 0.159D+00-0.534D-01-0.214D+00-0.104D+01
 Coeff-Com:  0.337D+00 0.180D+01
 Coeff:      0.656D-04-0.721D-04 0.318D-03 0.279D-02 0.537D-02-0.305D-01
 Coeff:     -0.967D-02 0.430D-01 0.159D+00-0.534D-01-0.214D+00-0.104D+01
 Coeff:      0.337D+00 0.180D+01
 Gap=     0.246 Goal=   None    Shift=    0.500
 RMSDP=4.36D-06 MaxDP=3.59D-04 DE=-1.38D-06 OVMax= 6.19D-04

 Cycle  15  Pass 1  IDiag  1:
 E= -1926.41614973823     Delta-E=       -0.000000616334 Rises=F Damp=F
 DIIS: error= 1.90D-05 at cycle  15 NSaved=  15.
 NSaved=15 IEnMin=15 EnMin= -1926.41614973823     IErMin=15 ErrMin= 1.90D-05
 ErrMax= 1.90D-05  0.00D+00 EMaxC= 1.00D+00 BMatC= 4.46D-08 BMatP= 1.03D-07
 IDIUse=1 WtCom= 1.00D+00 WtEn= 0.00D+00
 Coeff-Com:  0.398D-04-0.713D-04-0.753D-03 0.211D-02 0.440D-02-0.263D-02
 Coeff-Com: -0.183D-01-0.288D-01 0.493D-01 0.197D+00 0.145D-01-0.671D+00
 Coeff-Com: -0.405D+00 0.685D-01 0.179D+01
 Coeff:      0.398D-04-0.713D-04-0.753D-03 0.211D-02 0.440D-02-0.263D-02
 Coeff:     -0.183D-01-0.288D-01 0.493D-01 0.197D+00 0.145D-01-0.671D+00
 Coeff:     -0.405D+00 0.685D-01 0.179D+01
 Gap=     0.246 Goal=   None    Shift=    0.500
 RMSDP=2.69D-06 MaxDP=2.03D-04 DE=-6.16D-07 OVMax= 4.14D-04

 Cycle  16  Pass 1  IDiag  1:
 E= -1926.41615000711     Delta-E=       -0.000000268881 Rises=F Damp=F
 DIIS: error= 1.26D-05 at cycle  16 NSaved=  16.
 NSaved=16 IEnMin=16 EnMin= -1926.41615000711     IErMin=16 ErrMin= 1.26D-05
 ErrMax= 1.26D-05  0.00D+00 EMaxC= 1.00D+00 BMatC= 1.94D-08 BMatP= 4.46D-08
 IDIUse=1 WtCom= 1.00D+00 WtEn= 0.00D+00
 Coeff-Com:  0.172D-04-0.615D-04-0.331D-03-0.129D-03 0.857D-03 0.851D-02
 Coeff-Com: -0.619D-02-0.228D-01-0.304D-01 0.109D+00 0.806D-01-0.638D-01
 Coeff-Com: -0.302D+00-0.671D+00 0.166D+00 0.173D+01
 Coeff:      0.172D-04-0.615D-04-0.331D-03-0.129D-03 0.857D-03 0.851D-02
 Coeff:     -0.619D-02-0.228D-01-0.304D-01 0.109D+00 0.806D-01-0.638D-01
 Coeff:     -0.302D+00-0.671D+00 0.166D+00 0.173D+01
 Gap=     0.246 Goal=   None    Shift=    0.500
 RMSDP=1.76D-06 MaxDP=1.20D-04 DE=-2.69D-07 OVMax= 2.71D-04

 Cycle  17  Pass 1  IDiag  1:
 E= -1926.41615012194     Delta-E=       -0.000000114831 Rises=F Damp=F
 DIIS: error= 8.24D-06 at cycle  17 NSaved=  17.
 NSaved=17 IEnMin=17 EnMin= -1926.41615012194     IErMin=17 ErrMin= 8.24D-06
 ErrMax= 8.24D-06  0.00D+00 EMaxC= 1.00D+00 BMatC= 8.91D-09 BMatP= 1.94D-08
 IDIUse=1 WtCom= 1.00D+00 WtEn= 0.00D+00
 Coeff-Com: -0.152D-04 0.107D-04 0.159D-03-0.836D-03-0.133D-02 0.490D-02
 Coeff-Com:  0.433D-02 0.302D-02-0.362D-01-0.173D-01 0.473D-01 0.182D+00
 Coeff-Com: -0.389D-01-0.392D+00-0.770D+00 0.255D+00 0.176D+01
 Coeff:     -0.152D-04 0.107D-04 0.159D-03-0.836D-03-0.133D-02 0.490D-02
 Coeff:      0.433D-02 0.302D-02-0.362D-01-0.173D-01 0.473D-01 0.182D+00
 Coeff:     -0.389D-01-0.392D+00-0.770D+00 0.255D+00 0.176D+01
 Gap=     0.246 Goal=   None    Shift=    0.500
 RMSDP=1.15D-06 MaxDP=7.15D-05 DE=-1.15D-07 OVMax= 1.78D-04

 Cycle  18  Pass 1  IDiag  1:
 E= -1926.41615017184     Delta-E=       -0.000000049900 Rises=F Damp=F
 DIIS: error= 5.35D-06 at cycle  18 NSaved=  18.
 NSaved=18 IEnMin=18 EnMin= -1926.41615017184     IErMin=18 ErrMin= 5.35D-06
 ErrMax= 5.35D-06  0.00D+00 EMaxC= 1.00D+00 BMatC= 3.95D-09 BMatP= 8.91D-09
 IDIUse=1 WtCom= 1.00D+00 WtEn= 0.00D+00
 Coeff-Com: -0.167D-04 0.283D-04 0.174D-03-0.407D-03-0.108D-02 0.790D-03
 Coeff-Com:  0.418D-02 0.790D-02-0.149D-01-0.352D-01 0.152D-01 0.114D+00
 Coeff-Com:  0.442D-01-0.880D-01-0.594D+00-0.222D+00 0.328D+00 0.144D+01
 Coeff:     -0.167D-04 0.283D-04 0.174D-03-0.407D-03-0.108D-02 0.790D-03
 Coeff:      0.418D-02 0.790D-02-0.149D-01-0.352D-01 0.152D-01 0.114D+00
 Coeff:      0.442D-01-0.880D-01-0.594D+00-0.222D+00 0.328D+00 0.144D+01
 Gap=     0.246 Goal=   None    Shift=    0.500
 RMSDP=7.37D-07 MaxDP=4.56D-05 DE=-4.99D-08 OVMax= 1.17D-04

 SCF Done:  E(RLC-wHPBE) =  -1926.41615017     A.U. after   18 cycles
            NFock= 18  Conv=0.74D-06     -V/T= 2.0032
 KE= 1.920239355646D+03 PE=-1.017896947251D+04 EE= 3.505067686609D+03
 Leave Link  502 at Mon Jan 18 19:21:03 2021, MaxMem=  4026531840 cpu:            7878.8 elap:             987.4
 (Enter /opt/ohpc/pub/libs/gaussian/g16-A.03/sandybridge/g16/l508.exe)
 QCSCF skips out because SCF is already converged.
 Leave Link  508 at Mon Jan 18 19:21:03 2021, MaxMem=  4026531840 cpu:               0.1 elap:               0.0
 (Enter /opt/ohpc/pub/libs/gaussian/g16-A.03/sandybridge/g16/l601.exe)
 Copying SCF densities to generalized density rwf, IOpCl= 0 IROHF=0.

 **********************************************************************

            Population analysis using the SCF density.

 **********************************************************************

 Orbital symmetries:
       Occupied  (A) (A) (A) (A) (A) (A) (A) (A) (A) (A) (A) (A)
                 (A) (A) (A) (A) (A) (A) (A) (A) (A) (A) (A) (A)
                 (A) (A) (A) (A) (A) (A) (A) (A) (A) (A) (A) (A)
                 (A) (A) (A) (A) (A) (A) (A) (A) (A) (A) (A) (A)
                 (A) (A) (A) (A) (A) (A) (A) (A) (A) (A) (A) (A)
                 (A) (A) (A) (A) (A) (A) (A) (A) (A) (A) (A) (A)
                 (A) (A) (A) (A) (A) (A) (A) (A) (A) (A) (A) (A)
                 (A) (A) (A) (A) (A) (A) (A) (A) (A) (A) (A) (A)
                 (A) (A) (A) (A) (A) (A) (A) (A) (A) (A) (A) (A)
                 (A)
       Virtual   (A) (A) (A) (A) (A) (A) (A) (A) (A) (A) (A) (A)
                 (A) (A) (A) (A) (A) (A) (A) (A) (A) (A) (A) (A)
                 (A) (A) (A) (A) (A) (A) (A) (A) (A) (A) (A) (A)
                 (A) (A) (A) (A) (A) (A) (A) (A) (A) (A) (A) (A)
                 (A) (A) (A) (A) (A) (A) (A) (A) (A) (A) (A) (A)
                 (A) (A) (A) (A) (A) (A) (A) (A) (A) (A) (A) (A)
                 (A) (A) (A) (A) (A) (A) (A) (A) (A) (A) (A) (A)
                 (A) (A) (A) (A) (A) (A) (A) (A) (A) (A) (A) (A)
                 (A) (A) (A) (A) (A) (A) (A) (A) (A) (A) (A) (A)
                 (A) (A) (A) (A) (A) (A) (A) (A) (A) (A) (A) (A)
                 (A) (A) (A) (A) (A) (A) (A) (A) (A) (A) (A) (A)
                 (A) (A) (A) (A) (A) (A) (A) (A) (A) (A) (A) (A)
                 (A) (A) (A) (A) (A) (A) (A) (A) (A) (A) (A) (A)
                 (A) (A) (A) (A) (A) (A) (A) (A) (A) (A) (A) (A)
                 (A) (A) (A) (A) (A) (A) (A) (A) (A) (A) (A) (A)
                 (A) (A) (A) (A) (A) (A) (A) (A) (A) (A) (A) (A)
                 (A) (A) (A) (A) (A) (A) (A) (A) (A) (A) (A) (A)
                 (A) (A) (A) (A) (A) (A) (A) (A) (A) (A) (A) (A)
                 (A) (A) (A) (A) (A) (A) (A) (A) (A) (A) (A) (A)
                 (A) (A) (A) (A) (A) (A) (A) (A) (A) (A) (A) (A)
                 (A) (A) (A) (A) (A) (A) (A) (A) (A) (A) (A) (A)
                 (A) (A) (A) (A) (A) (A) (A) (A) (A) (A) (A) (A)
                 (A) (A) (A) (A) (A) (A) (A) (A) (A) (A) (A) (A)
                 (A) (A) (A) (A) (A) (A) (A) (A) (A) (A) (A) (A)
                 (A) (A) (A) (A) (A) (A) (A) (A) (A) (A) (A) (A)
                 (A) (A) (A) (A) (A) (A) (A) (A) (A) (A) (A) (A)
                 (A) (A) (A) (A) (A) (A) (A) (A) (A) (A) (A) (A)
                 (A) (A) (A) (A) (A) (A) (A) (A) (A) (A) (A) (A)
                 (A) (A) (A) (A) (A) (A) (A) (A) (A) (A) (A) (A)
                 (A) (A) (A) (A) (A) (A) (A) (A) (A) (A) (A) (A)
                 (A) (A) (A) (A) (A) (A) (A) (A) (A) (A) (A) (A)
                 (A) (A) (A) (A) (A) (A) (A) (A) (A) (A) (A) (A)
                 (A) (A) (A) (A) (A) (A) (A) (A) (A) (A) (A) (A)
                 (A) (A) (A) (A) (A) (A) (A) (A) (A) (A) (A) (A)
                 (A) (A) (A) (A) (A) (A) (A) (A) (A) (A) (A) (A)
                 (A) (A) (A) (A) (A) (A) (A) (A) (A) (A) (A) (A)
                 (A) (A) (A) (A) (A) (A) (A) (A) (A) (A) (A) (A)
                 (A) (A) (A) (A) (A) (A) (A) (A) (A) (A) (A) (A)
                 (A) (A) (A) (A) (A) (A) (A) (A) (A) (A) (A) (A)
                 (A) (A) (A) (A) (A) (A) (A) (A) (A) (A) (A) (A)
                 (A) (A) (A) (A) (A) (A) (A) (A) (A) (A) (A) (A)
                 (A) (A) (A) (A) (A) (A) (A) (A) (A) (A) (A) (A)
                 (A) (A) (A) (A) (A) (A) (A) (A) (A) (A) (A) (A)
                 (A) (A) (A) (A) (A) (A) (A) (A) (A) (A) (A) (A)
                 (A) (A) (A) (A) (A) (A) (A) (A) (A) (A) (A) (A)
                 (A) (A) (A) (A) (A) (A) (A) (A) (A) (A) (A) (A)
                 (A) (A) (A) (A) (A) (A) (A) (A) (A) (A)
 The electronic state is 1-A.
 Alpha  occ. eigenvalues --  -88.22572 -88.22490 -18.87735 -18.87629 -14.10793
 Alpha  occ. eigenvalues --  -10.03860 -10.03758 -10.01888 -10.01344 -10.01278
 Alpha  occ. eigenvalues --   -9.98425  -9.98392  -9.98388  -9.98376  -9.98369
 Alpha  occ. eigenvalues --   -9.98365  -9.98343  -9.98267  -9.98233  -9.98139
 Alpha  occ. eigenvalues --   -9.98064  -9.97982  -9.97918  -9.97860  -9.97848
 Alpha  occ. eigenvalues --   -9.97819  -9.97743  -9.97651  -9.97403  -7.81037
 Alpha  occ. eigenvalues --   -7.80967  -5.83141  -5.83074  -5.82971  -5.82897
 Alpha  occ. eigenvalues --   -5.82222  -5.82149  -1.07973  -1.07870  -0.98888
 Alpha  occ. eigenvalues --   -0.90639  -0.88885  -0.88844  -0.87300  -0.84344
 Alpha  occ. eigenvalues --   -0.79685  -0.79097  -0.78858  -0.78229  -0.78102
 Alpha  occ. eigenvalues --   -0.77564  -0.75732  -0.74631  -0.72524  -0.67971
 Alpha  occ. eigenvalues --   -0.67261  -0.65815  -0.65439  -0.64364  -0.63834
 Alpha  occ. eigenvalues --   -0.62315  -0.60753  -0.59670  -0.59547  -0.57978
 Alpha  occ. eigenvalues --   -0.57601  -0.56060  -0.54340  -0.52807  -0.51933
 Alpha  occ. eigenvalues --   -0.50713  -0.50242  -0.49074  -0.48973  -0.48701
 Alpha  occ. eigenvalues --   -0.48380  -0.47800  -0.47297  -0.47155  -0.46882
 Alpha  occ. eigenvalues --   -0.46606  -0.46373  -0.46088  -0.44842  -0.44735
 Alpha  occ. eigenvalues --   -0.44072  -0.43505  -0.42936  -0.42256  -0.41452
 Alpha  occ. eigenvalues --   -0.40850  -0.40447  -0.40009  -0.39548  -0.39213
 Alpha  occ. eigenvalues --   -0.38835  -0.38608  -0.37441  -0.34735  -0.32889
 Alpha  occ. eigenvalues --   -0.32398  -0.31802  -0.31643  -0.30942  -0.29261
 Alpha  occ. eigenvalues --   -0.29041  -0.28413  -0.24395  -0.22914
 Alpha virt. eigenvalues --    0.01643   0.02570   0.02844   0.03629   0.03820
 Alpha virt. eigenvalues --    0.03909   0.04019   0.05825   0.07287   0.07885
 Alpha virt. eigenvalues --    0.08003   0.08466   0.09430   0.10510   0.11101
 Alpha virt. eigenvalues --    0.11411   0.12158   0.13232   0.13469   0.13728
 Alpha virt. eigenvalues --    0.14006   0.14837   0.15432   0.16001   0.16560
 Alpha virt. eigenvalues --    0.16888   0.17136   0.17455   0.17588   0.17797
 Alpha virt. eigenvalues --    0.18533   0.18909   0.19235   0.20058   0.20686
 Alpha virt. eigenvalues --    0.21007   0.21223   0.21698   0.22087   0.22589
 Alpha virt. eigenvalues --    0.23739   0.23977   0.24734   0.25147   0.25566
 Alpha virt. eigenvalues --    0.26151   0.26242   0.26386   0.26547   0.26682
 Alpha virt. eigenvalues --    0.27014   0.27658   0.27790   0.27937   0.28314
 Alpha virt. eigenvalues --    0.28575   0.28916   0.29222   0.29289   0.29954
 Alpha virt. eigenvalues --    0.30069   0.30370   0.30707   0.31112   0.31238
 Alpha virt. eigenvalues --    0.31661   0.32171   0.32894   0.33060   0.33222
 Alpha virt. eigenvalues --    0.33679   0.34452   0.34533   0.34874   0.34939
 Alpha virt. eigenvalues --    0.35459   0.35758   0.35934   0.36831   0.37918
 Alpha virt. eigenvalues --    0.38181   0.38371   0.38706   0.38967   0.39134
 Alpha virt. eigenvalues --    0.39258   0.39830   0.40171   0.40867   0.40958
 Alpha virt. eigenvalues --    0.41129   0.41480   0.42041   0.42842   0.43007
 Alpha virt. eigenvalues --    0.43158   0.43405   0.43601   0.43640   0.43772
 Alpha virt. eigenvalues --    0.44322   0.44479   0.44659   0.44916   0.45466
 Alpha virt. eigenvalues --    0.45838   0.45932   0.46079   0.46479   0.46804
 Alpha virt. eigenvalues --    0.46928   0.47284   0.47412   0.47928   0.48248
 Alpha virt. eigenvalues --    0.48931   0.49050   0.49592   0.49911   0.50266
 Alpha virt. eigenvalues --    0.50535   0.51066   0.51776   0.52137   0.52447
 Alpha virt. eigenvalues --    0.52695   0.52977   0.53276   0.53665   0.53796
 Alpha virt. eigenvalues --    0.54271   0.54348   0.54877   0.55312   0.55619
 Alpha virt. eigenvalues --    0.56440   0.56521   0.57225   0.57767   0.58314
 Alpha virt. eigenvalues --    0.58863   0.59372   0.59801   0.60097   0.60542
 Alpha virt. eigenvalues --    0.60857   0.61593   0.61776   0.61998   0.62277
 Alpha virt. eigenvalues --    0.63299   0.63418   0.63820   0.64318   0.65266
 Alpha virt. eigenvalues --    0.65731   0.66426   0.67369   0.69240   0.69535
 Alpha virt. eigenvalues --    0.69911   0.71511   0.71731   0.72015   0.72600
 Alpha virt. eigenvalues --    0.72836   0.73268   0.73649   0.74034   0.74602
 Alpha virt. eigenvalues --    0.75263   0.75560   0.76282   0.76508   0.77185
 Alpha virt. eigenvalues --    0.77724   0.78377   0.79483   0.80132   0.80726
 Alpha virt. eigenvalues --    0.81367   0.81775   0.81872   0.82345   0.83087
 Alpha virt. eigenvalues --    0.84105   0.84585   0.85608   0.86277   0.86725
 Alpha virt. eigenvalues --    0.87958   0.88410   0.89343   0.89892   0.90579
 Alpha virt. eigenvalues --    0.91558   0.91641   0.92493   0.94568   0.95589
 Alpha virt. eigenvalues --    0.96060   0.96939   0.99554   1.00698   1.02510
 Alpha virt. eigenvalues --    1.04686   1.06585   1.17316   1.18367   1.19224
 Alpha virt. eigenvalues --    1.22593   1.23530   1.24662   1.25094   1.26043
 Alpha virt. eigenvalues --    1.26441   1.26834   1.26936   1.27224   1.27511
 Alpha virt. eigenvalues --    1.28019   1.28352   1.28761   1.29229   1.29721
 Alpha virt. eigenvalues --    1.30026   1.30442   1.31815   1.32020   1.32488
 Alpha virt. eigenvalues --    1.32725   1.33429   1.34505   1.35002   1.35257
 Alpha virt. eigenvalues --    1.35731   1.36197   1.36649   1.36935   1.38282
 Alpha virt. eigenvalues --    1.38346   1.38616   1.40873   1.41636   1.42071
 Alpha virt. eigenvalues --    1.42773   1.43098   1.43363   1.44175   1.44490
 Alpha virt. eigenvalues --    1.44703   1.44965   1.45396   1.45707   1.45858
 Alpha virt. eigenvalues --    1.45959   1.46569   1.47003   1.47049   1.47455
 Alpha virt. eigenvalues --    1.47539   1.47781   1.48255   1.48684   1.49465
 Alpha virt. eigenvalues --    1.49758   1.50545   1.50735   1.50919   1.51659
 Alpha virt. eigenvalues --    1.52010   1.52475   1.52516   1.52641   1.53517
 Alpha virt. eigenvalues --    1.53637   1.54101   1.55229   1.55462   1.55686
 Alpha virt. eigenvalues --    1.55739   1.56250   1.56413   1.56605   1.57080
 Alpha virt. eigenvalues --    1.57418   1.57522   1.57820   1.58308   1.58604
 Alpha virt. eigenvalues --    1.58834   1.59271   1.59569   1.60104   1.60379
 Alpha virt. eigenvalues --    1.60497   1.61092   1.61145   1.62120   1.62189
 Alpha virt. eigenvalues --    1.63036   1.63749   1.64339   1.65128   1.65467
 Alpha virt. eigenvalues --    1.67008   1.68122   1.69442   1.69788   1.70056
 Alpha virt. eigenvalues --    1.70752   1.71985   1.72718   1.75132   1.75623
 Alpha virt. eigenvalues --    1.77404   1.78232   1.78576   1.78891   1.79071
 Alpha virt. eigenvalues --    1.79237   1.79627   1.80316   1.80358   1.80873
 Alpha virt. eigenvalues --    1.81344   1.82075   1.82163   1.83272   1.83778
 Alpha virt. eigenvalues --    1.84441   1.84502   1.84951   1.85581   1.86368
 Alpha virt. eigenvalues --    1.87209   1.88560   1.89364   1.89956   1.90262
 Alpha virt. eigenvalues --    1.90670   1.91197   1.91518   1.92178   1.92712
 Alpha virt. eigenvalues --    1.92912   1.93063   1.93662   1.93857   1.94551
 Alpha virt. eigenvalues --    1.95175   1.95278   1.95483   1.95882   1.96601
 Alpha virt. eigenvalues --    1.97015   1.97700   1.99737   2.00401   2.00540
 Alpha virt. eigenvalues --    2.01640   2.02283   2.02855   2.03240   2.04093
 Alpha virt. eigenvalues --    2.04425   2.04685   2.05225   2.05987   2.08130
 Alpha virt. eigenvalues --    2.09982   2.10713   2.11575   2.12291   2.12578
 Alpha virt. eigenvalues --    2.14348   2.15902   2.16936   2.17302   2.19973
 Alpha virt. eigenvalues --    2.20750   2.21493   2.22026   2.23444   2.24175
 Alpha virt. eigenvalues --    2.24899   2.25597   2.27119   2.27663   2.27845
 Alpha virt. eigenvalues --    2.28438   2.29511   2.30491   2.32428   2.32516
 Alpha virt. eigenvalues --    2.33712   2.34073   2.34259   2.34383   2.34568
 Alpha virt. eigenvalues --    2.34889   2.35600   2.35873   2.36617   2.36947
 Alpha virt. eigenvalues --    2.37178   2.37550   2.38064   2.38300   2.38907
 Alpha virt. eigenvalues --    2.38992   2.39494   2.39610   2.39772   2.40269
 Alpha virt. eigenvalues --    2.40668   2.41187   2.41395   2.41625   2.44115
 Alpha virt. eigenvalues --    2.46651   2.47577   2.48282   2.50034   2.50777
 Alpha virt. eigenvalues --    2.51157   2.53555   2.54308   2.54530   2.55058
 Alpha virt. eigenvalues --    2.56063   2.59275   2.59347   2.60396   2.61237
 Alpha virt. eigenvalues --    2.61803   2.62276   2.62604   2.62716   2.64280
 Alpha virt. eigenvalues --    2.64354   2.64762   2.64991   2.65410   2.66580
 Alpha virt. eigenvalues --    2.67413   2.67631   2.68013   2.68420   2.69657
 Alpha virt. eigenvalues --    2.70566   2.71767   2.72669   2.73696   2.74749
 Alpha virt. eigenvalues --    2.75288   2.75807   2.76882   2.78846   2.80255
 Alpha virt. eigenvalues --    2.80676   2.81567   2.81746   2.82363   2.83056
 Alpha virt. eigenvalues --    2.84973   2.86568   2.87197   2.88596   2.89252
 Alpha virt. eigenvalues --    2.89800   2.94523   2.94687   2.95765   2.96551
 Alpha virt. eigenvalues --    2.98207   2.99295   3.01173   3.01220   3.01487
 Alpha virt. eigenvalues --    3.02002   3.03271   3.03713   3.05530   3.05824
 Alpha virt. eigenvalues --    3.06365   3.08660   3.09649   3.11686   3.12512
 Alpha virt. eigenvalues --    3.13031   3.13578   3.14002   3.14779   3.15291
 Alpha virt. eigenvalues --    3.15563   3.16220   3.18313   3.19345   3.20674
 Alpha virt. eigenvalues --    3.21042   3.22089   3.22985   3.24248   3.24967
 Alpha virt. eigenvalues --    3.25610   3.25834   3.28271   3.29885   3.30130
 Alpha virt. eigenvalues --    3.32805   3.34234   3.34952   3.37579   3.38933
 Alpha virt. eigenvalues --    3.40783   3.42029   3.44754   3.47985   3.55542
 Alpha virt. eigenvalues --    3.56075   3.56816   3.58015   3.60357   3.61663
 Alpha virt. eigenvalues --    3.72161   3.73733   3.86799   3.88697   4.08769
 Alpha virt. eigenvalues --    4.09771   4.34567   4.34701  18.97970  19.19636
 Alpha virt. eigenvalues --   21.05745  21.16729  21.24151  21.25906  21.61715
 Alpha virt. eigenvalues --   21.69597  21.71441  21.72740  21.73830  21.77099
 Alpha virt. eigenvalues --   21.84083  21.85670  21.90705  21.93280  21.95120
 Alpha virt. eigenvalues --   21.97203  21.98865  22.00812  22.04160  22.05437
 Alpha virt. eigenvalues --   22.11595  22.12759  22.17623  22.20187  32.06542
 Alpha virt. eigenvalues --   43.23214  43.23451
          Condensed to atoms (all electrons):
               1          2          3          4          5          6
     1  C    5.573194  -0.239044  -0.015788   0.385008   0.001209  -0.006524
     2  C   -0.239044   6.528280   0.076858  -0.198930  -0.023123   0.041613
     3  S   -0.015788   0.076858  15.531401  -0.209412  -0.218539   0.090752
     4  C    0.385008  -0.198930  -0.209412   6.550243   0.037311  -0.021289
     5  C    0.001209  -0.023123  -0.218539   0.037311   6.977094  -0.132641
     6  C   -0.006524   0.041613   0.090752  -0.021289  -0.132641   6.666375
     7  C    0.064688   0.361783   0.009056  -0.404442  -0.000572   0.001394
     8  C   -0.332766   0.394379   0.027504  -0.257196  -0.006353   0.002178
     9  H    0.001221   0.006216   0.023425  -0.114962  -0.114756   0.006157
    10  C    0.000565   0.001252   0.051508  -0.007072  -0.765884   0.320512
    11  C   -0.000017  -0.009170  -0.032553   0.000117   0.352533  -0.326157
    12  C   -0.000001   0.001680   0.010647  -0.000162  -0.347124   0.365948
    13  C   -0.000036  -0.000920  -0.007106   0.000732   0.441582  -0.438980
    14  H    0.000013  -0.000023   0.000421  -0.001069  -0.097404   0.028678
    15  H    0.000044  -0.001220  -0.008166  -0.000057   0.034303  -0.156197
    16  H    0.000000   0.000001  -0.000022  -0.000001  -0.006269   0.025513
    17  C    0.198358  -0.403319  -0.003736   0.366082   0.001176  -0.000635
    18  H    0.468641  -0.125658  -0.007574   0.036280  -0.000018  -0.001210
    19  H    0.010600  -0.115696   0.349867   0.007819   0.007141  -0.122456
    20  H   -0.081251   0.030292  -0.000095  -0.009054  -0.000001  -0.000004
    21  H   -0.004332   0.035811   0.000355  -0.125407  -0.001051  -0.000027
    22  H    0.027377  -0.009142   0.000048   0.030608  -0.000002  -0.000002
    23  S    0.026281  -0.202739   0.194682   0.078877   0.087568  -0.211300
    24  N    0.000000  -0.000002   0.000023  -0.000006   0.020876   0.006791
    25  C   -0.000000  -0.000000  -0.000097   0.000001   0.000045   0.000480
    26  C   -0.000000   0.000000   0.000002  -0.000000  -0.000545   0.000577
    27  C    0.000000  -0.000001   0.000008  -0.000001   0.003450  -0.003857
    28  C   -0.000000   0.000000   0.000000   0.000000  -0.000127   0.000048
    29  C    0.000000  -0.000000   0.000000  -0.000000   0.000071  -0.000348
    30  C    0.000000  -0.000000   0.000000  -0.000000   0.000035  -0.000003
    31  H    0.000000  -0.000000  -0.000000  -0.000000   0.000064  -0.000027
    32  H    0.000000  -0.000000  -0.000011  -0.000001   0.000690   0.001004
    33  H    0.000000  -0.000000  -0.000000   0.000000   0.000000  -0.000000
    34  H    0.000000  -0.000000  -0.000000  -0.000000  -0.000001  -0.000005
    35  C    0.000000  -0.000001   0.000095  -0.000004  -0.022591   0.003604
    36  C   -0.000000   0.000000  -0.000002   0.000000   0.005117  -0.000426
    37  C    0.000000   0.000001   0.000015  -0.000005  -0.017782   0.000957
    38  C   -0.000000   0.000000   0.000000   0.000000  -0.000050   0.000033
    39  C    0.000000  -0.000000   0.000001   0.000000  -0.001593   0.000043
    40  C    0.000000   0.000000  -0.000000  -0.000000  -0.000245  -0.000011
    41  H    0.000000  -0.000000   0.000000  -0.000000  -0.000152   0.000013
    42  H    0.000000   0.000000   0.000012  -0.000003  -0.005264   0.000708
    43  H    0.000000  -0.000000   0.000000  -0.000000  -0.000006   0.000000
    44  H   -0.000000  -0.000000   0.000000   0.000000   0.000020  -0.000001
    45  O   -0.000000   0.000000   0.000000   0.000000   0.000001   0.000000
    46  H    0.000000   0.000000   0.000000  -0.000000  -0.000000  -0.000000
    47  O    0.000000  -0.000000  -0.000000  -0.000000  -0.000000   0.000000
    48  H    0.000000  -0.000000   0.000000  -0.000000   0.000000  -0.000000
               7          8          9         10         11         12
     1  C    0.064688  -0.332766   0.001221   0.000565  -0.000017  -0.000001
     2  C    0.361783   0.394379   0.006216   0.001252  -0.009170   0.001680
     3  S    0.009056   0.027504   0.023425   0.051508  -0.032553   0.010647
     4  C   -0.404442  -0.257196  -0.114962  -0.007072   0.000117  -0.000162
     5  C   -0.000572  -0.006353  -0.114756  -0.765884   0.352533  -0.347124
     6  C    0.001394   0.002178   0.006157   0.320512  -0.326157   0.365948
     7  C    5.313652   0.200274  -0.000396  -0.000078   0.000026   0.000001
     8  C    0.200274   5.583100   0.010434  -0.000743   0.000626  -0.000071
     9  H   -0.000396   0.010434   0.718052   0.014311   0.002017  -0.001511
    10  C   -0.000078  -0.000743   0.014311   6.513900  -0.314293  -0.057321
    11  C    0.000026   0.000626   0.002017  -0.314293   5.763100  -0.081359
    12  C    0.000001  -0.000071  -0.001511  -0.057321  -0.081359   5.875731
    13  C    0.000001   0.000053  -0.001893  -0.158047   0.243245   0.112602
    14  H   -0.000002   0.000014   0.005736   0.441615  -0.002314   0.010935
    15  H    0.000001   0.000014   0.000062  -0.001648   0.486648  -0.096626
    16  H   -0.000000   0.000000  -0.000000   0.021710  -0.063562   0.415731
    17  C    0.262458   0.063263  -0.002335   0.000052  -0.000069   0.000003
    18  H   -0.086869  -0.004704   0.000060   0.000016   0.000041  -0.000002
    19  H   -0.002571   0.001083   0.000660   0.001275   0.016881  -0.005201
    20  H    0.436886   0.027240   0.000005   0.000000   0.000000  -0.000000
    21  H    0.018520   0.468788   0.007172   0.000030   0.000015  -0.000002
    22  H   -0.079946  -0.081370   0.000057   0.000000   0.000000  -0.000000
    23  S   -0.003228  -0.015373   0.350089  -0.016186   0.032520  -0.006993
    24  N   -0.000000   0.000000   0.000116  -0.008054   0.019994  -0.017709
    25  C    0.000000   0.000000  -0.000030  -0.011767  -0.000999   0.030629
    26  C   -0.000000  -0.000000  -0.000000  -0.012508   0.000842   0.030817
    27  C   -0.000000   0.000000   0.000021   0.024398  -0.001189  -0.097593
    28  C    0.000000  -0.000000  -0.000000  -0.000138  -0.000240   0.001542
    29  C   -0.000000   0.000000   0.000001   0.001537   0.000675  -0.005794
    30  C   -0.000000   0.000000   0.000000   0.000032  -0.000156  -0.001407
    31  H    0.000000   0.000000  -0.000000  -0.000256   0.000051  -0.000083
    32  H    0.000000   0.000000  -0.000003   0.000105  -0.002103   0.003398
    33  H    0.000000   0.000000   0.000000   0.000003  -0.000001  -0.000040
    34  H   -0.000000  -0.000000   0.000000  -0.000029   0.000017  -0.000088
    35  C   -0.000000  -0.000000   0.000205   0.064044  -0.001780  -0.012203
    36  C    0.000000   0.000000  -0.000008   0.018685   0.000412  -0.016066
    37  C   -0.000000  -0.000000  -0.000019  -0.061398  -0.000797   0.032675
    38  C    0.000000  -0.000000   0.000001   0.001822  -0.000070  -0.000070
    39  C   -0.000000  -0.000000  -0.000004  -0.007645  -0.000152   0.001669
    40  C   -0.000000   0.000000  -0.000002  -0.001893   0.000018   0.000134
    41  H   -0.000000   0.000000   0.000001   0.000457   0.000005  -0.000253
    42  H   -0.000000   0.000000   0.000006   0.006785   0.000340  -0.000238
    43  H   -0.000000  -0.000000   0.000000  -0.000039  -0.000000   0.000003
    44  H    0.000000  -0.000000   0.000000   0.000078   0.000001  -0.000036
    45  O    0.000000  -0.000000   0.000000   0.000015  -0.000000   0.000000
    46  H   -0.000000   0.000000   0.000000  -0.000001   0.000000   0.000000
    47  O    0.000000  -0.000000   0.000000   0.000000   0.000000   0.000004
    48  H   -0.000000  -0.000000   0.000000  -0.000000   0.000000  -0.000001
              13         14         15         16         17         18
     1  C   -0.000036   0.000013   0.000044   0.000000   0.198358   0.468641
     2  C   -0.000920  -0.000023  -0.001220   0.000001  -0.403319  -0.125658
     3  S   -0.007106   0.000421  -0.008166  -0.000022  -0.003736  -0.007574
     4  C    0.000732  -0.001069  -0.000057  -0.000001   0.366082   0.036280
     5  C    0.441582  -0.097404   0.034303  -0.006269   0.001176  -0.000018
     6  C   -0.438980   0.028678  -0.156197   0.025513  -0.000635  -0.001210
     7  C    0.000001  -0.000002   0.000001  -0.000000   0.262458  -0.086869
     8  C    0.000053   0.000014   0.000014   0.000000   0.063263  -0.004704
     9  H   -0.001893   0.005736   0.000062  -0.000000  -0.002335   0.000060
    10  C   -0.158047   0.441615  -0.001648   0.021710   0.000052   0.000016
    11  C    0.243245  -0.002314   0.486648  -0.063562  -0.000069   0.000041
    12  C    0.112602   0.010935  -0.096626   0.415731   0.000003  -0.000002
    13  C    5.923132  -0.065249   0.031850  -0.060565  -0.000001  -0.000001
    14  H   -0.065249   0.537499   0.000013  -0.000183   0.000003   0.000000
    15  H    0.031850   0.000013   0.622710  -0.008921  -0.000002   0.000005
    16  H   -0.060565  -0.000183  -0.008921   0.535278   0.000000   0.000000
    17  C   -0.000001   0.000003  -0.000002   0.000000   5.310225   0.018893
    18  H   -0.000001   0.000000   0.000005   0.000000   0.018893   0.607083
    19  H    0.000968   0.000032   0.007183   0.000005  -0.000335   0.007585
    20  H   -0.000000  -0.000000   0.000000  -0.000000  -0.079585  -0.008499
    21  H    0.000001  -0.000001   0.000000  -0.000000  -0.086214   0.000061
    22  H   -0.000000   0.000000   0.000000   0.000000   0.436859  -0.000087
    23  S    0.010854  -0.007974   0.000311   0.000003   0.008132   0.000355
    24  N    0.135599  -0.006730  -0.000312  -0.007613  -0.000000   0.000000
[...]
    17  C   -0.000000   0.000000  -0.000000  -0.000000  -0.000000   0.000000
    18  H   -0.000000  -0.000000   0.000000   0.000000   0.000000   0.000000
    19  H   -0.000006  -0.000000   0.000008   0.000000   0.000000   0.000000
    20  H   -0.000000  -0.000000   0.000000   0.000000   0.000000  -0.000000
    21  H   -0.000000  -0.000000   0.000000  -0.000000   0.000000  -0.000000
    22  H   -0.000000  -0.000000   0.000000   0.000000   0.000000  -0.000000
    23  S   -0.000026   0.000000   0.000020   0.000000   0.000002  -0.000000
    24  N    0.104277  -0.002718  -0.023132   0.017852   0.030378   0.004192
    25  C    5.714615   0.294904   0.268937   0.047257   0.112103  -0.181013
    26  C    0.294904   5.270675  -0.137167   0.273691  -0.074202   0.024456
    27  C    0.268937  -0.137167   5.688059  -0.021826  -0.250613   0.144955
    28  C    0.047257   0.273691  -0.021826   5.422248  -0.179619   0.364341
    29  C    0.112103  -0.074202  -0.250613  -0.179619   6.255251   0.103467
    30  C   -0.181013   0.024456   0.144955   0.364341   0.103467   5.169146
    31  H   -0.059810   0.441907   0.020444  -0.084196  -0.005083   0.022940
    32  H   -0.037503   0.013599   0.398923  -0.000524  -0.043017   0.011227
    33  H    0.022246  -0.052490  -0.004472   0.428497   0.020101  -0.086986
    34  H    0.014754   0.003510   0.010301   0.005748   0.381291  -0.091166
    35  C   -0.119927   0.036932  -0.018398  -0.002883  -0.000899   0.002389
    36  C    0.051597  -0.060129   0.013299  -0.005964   0.002477  -0.001965
    37  C   -0.010031   0.011921  -0.013337   0.001467   0.000558  -0.000045
    38  C   -0.016247  -0.000928   0.002672   0.000802   0.000003  -0.000115
    39  C   -0.004887   0.003475   0.000055   0.000002  -0.000153   0.000051
    40  C    0.003822  -0.002294  -0.000129  -0.000187   0.000076  -0.000025
    41  H    0.005808   0.004077  -0.005303  -0.002602   0.002732   0.000270
    42  H   -0.001310   0.000596  -0.000487   0.000016   0.000045  -0.000011
    43  H   -0.000109   0.000092  -0.000052   0.000035  -0.000009  -0.000001
    44  H   -0.000031  -0.000016   0.000004  -0.000002  -0.000000   0.000000
    45  O    0.000016  -0.000006   0.000000  -0.000000  -0.000000   0.000000
    46  H    0.000000  -0.000001  -0.000000   0.000000   0.000000  -0.000000
    47  O   -0.001859   0.006578   0.023998  -0.083060  -0.122999   0.414062
    48  H   -0.000763  -0.001909   0.008622   0.020196  -0.043795  -0.025364
              31         32         33         34         35         36
     1  C    0.000000   0.000000   0.000000   0.000000   0.000000  -0.000000
     2  C   -0.000000  -0.000000  -0.000000  -0.000000  -0.000001   0.000000
     3  S   -0.000000  -0.000011  -0.000000  -0.000000   0.000095  -0.000002
     4  C   -0.000000  -0.000001   0.000000  -0.000000  -0.000004   0.000000
     5  C    0.000064   0.000690   0.000000  -0.000001  -0.022591   0.005117
     6  C   -0.000027   0.001004  -0.000000  -0.000005   0.003604  -0.000426
     7  C    0.000000   0.000000   0.000000  -0.000000  -0.000000   0.000000
     8  C    0.000000   0.000000   0.000000  -0.000000  -0.000000   0.000000
     9  H   -0.000000  -0.000003   0.000000   0.000000   0.000205  -0.000008
    10  C   -0.000256   0.000105   0.000003  -0.000029   0.064044   0.018685
    11  C    0.000051  -0.002103  -0.000001   0.000017  -0.001780   0.000412
    12  C   -0.000083   0.003398  -0.000040  -0.000088  -0.012203  -0.016066
    13  C   -0.001647  -0.003334   0.000006   0.000013  -0.117871  -0.016811
    14  H   -0.000010   0.000033  -0.000000   0.000000   0.010196  -0.003658
    15  H    0.000001  -0.000089   0.000000   0.000001   0.000157   0.000004
    16  H    0.000041   0.001200   0.000010  -0.000010  -0.001580  -0.000465
    17  C   -0.000000   0.000000  -0.000000  -0.000000  -0.000000  -0.000000
    18  H   -0.000000  -0.000000  -0.000000   0.000000   0.000000  -0.000000
    19  H   -0.000000  -0.000002   0.000000   0.000000   0.000005  -0.000000
    20  H   -0.000000  -0.000000   0.000000   0.000000   0.000000   0.000000
    21  H    0.000000  -0.000000   0.000000   0.000000   0.000000   0.000000
    22  H   -0.000000  -0.000000  -0.000000   0.000000   0.000000  -0.000000
    23  S   -0.000000  -0.000018   0.000000   0.000000   0.000012   0.000021
    24  N   -0.010947  -0.007114  -0.000586  -0.000809   0.125517  -0.030881
    25  C   -0.059810  -0.037503   0.022246   0.014754  -0.119927   0.051597
    26  C    0.441907   0.013599  -0.052490   0.003510   0.036932  -0.060129
    27  C    0.020444   0.398923  -0.004472   0.010301  -0.018398   0.013299
    28  C   -0.084196  -0.000524   0.428497   0.005748  -0.002883  -0.005964
    29  C   -0.005083  -0.043017   0.020101   0.381291  -0.000899   0.002477
    30  C    0.022940   0.011227  -0.086986  -0.091166   0.002389  -0.001965
    31  H    0.553226  -0.000255  -0.010301   0.000030   0.002999   0.005180
    32  H   -0.000255   0.532332   0.000032  -0.007255  -0.001941   0.001048
    33  H   -0.010301   0.000032   0.568714  -0.000340  -0.000274   0.000154
    34  H    0.000030  -0.007255  -0.000340   0.585171  -0.000005  -0.000038
    35  C    0.002999  -0.001941  -0.000274  -0.000005   5.732600   0.255070
    36  C    0.005180   0.001048   0.000154  -0.000038   0.255070   5.674918
    37  C   -0.002843  -0.000494  -0.000024   0.000002   0.275825  -0.133364
    38  C   -0.003658  -0.000051   0.000020  -0.000004   0.141543  -0.295571
    39  C    0.001345   0.000023  -0.000007   0.000000   0.032867  -0.016053
    40  C    0.000408  -0.000006   0.000003   0.000000  -0.182688   0.156551
    41  H    0.000886   0.000133  -0.000025   0.000011  -0.034783   0.402096
    42  H    0.000066  -0.000007   0.000001   0.000000  -0.061464   0.019229
    43  H   -0.000030   0.000000  -0.000000   0.000000   0.015052   0.010096
    44  H    0.000003  -0.000000  -0.000000  -0.000000   0.022451  -0.004513
    45  O   -0.000001   0.000000  -0.000000  -0.000000  -0.002452   0.024935
    46  H    0.000001  -0.000000  -0.000000   0.000000  -0.000869   0.009085
    47  O   -0.000118  -0.000086   0.002426  -0.006669  -0.000011   0.000006
    48  H    0.000036  -0.000054  -0.000810   0.001923  -0.000001  -0.000000
              37         38         39         40         41         42
     1  C    0.000000  -0.000000   0.000000   0.000000   0.000000   0.000000
     2  C    0.000001   0.000000  -0.000000   0.000000  -0.000000   0.000000
     3  S    0.000015   0.000000   0.000001  -0.000000   0.000000   0.000012
     4  C   -0.000005   0.000000   0.000000  -0.000000  -0.000000  -0.000003
     5  C   -0.017782  -0.000050  -0.001593  -0.000245  -0.000152  -0.005264
     6  C    0.000957   0.000033   0.000043  -0.000011   0.000013   0.000708
     7  C   -0.000000   0.000000  -0.000000  -0.000000  -0.000000  -0.000000
     8  C   -0.000000  -0.000000  -0.000000   0.000000   0.000000   0.000000
     9  H   -0.000019   0.000001  -0.000004  -0.000002   0.000001   0.000006
    10  C   -0.061398   0.001822  -0.007645  -0.001893   0.000457   0.006785
    11  C   -0.000797  -0.000070  -0.000152   0.000018   0.000005   0.000340
    12  C    0.032675  -0.000070   0.001669   0.000134  -0.000253  -0.000238
    13  C    0.016242  -0.000340   0.003750   0.001183  -0.002166  -0.005249
    14  H    0.003737   0.002090  -0.002023   0.000498   0.000149   0.001559
    15  H   -0.000068   0.000000  -0.000002   0.000000  -0.000000   0.000006
    16  H    0.000592   0.000024   0.000010  -0.000003  -0.000012  -0.000002
    17  C    0.000000  -0.000000   0.000000   0.000000   0.000000   0.000000
    18  H    0.000000  -0.000000   0.000000   0.000000   0.000000   0.000000
    19  H   -0.000001   0.000000   0.000000  -0.000000   0.000000   0.000000
    20  H   -0.000000   0.000000  -0.000000  -0.000000   0.000000   0.000000
    21  H   -0.000000   0.000000  -0.000000  -0.000000   0.000000   0.000000
    22  H    0.000000  -0.000000  -0.000000  -0.000000   0.000000   0.000000
    23  S    0.000035  -0.000002   0.000000  -0.000000  -0.000001   0.000006
    24  N    0.002562   0.030840   0.012756   0.004857  -0.010567  -0.005817
    25  C   -0.010031  -0.016247  -0.004887   0.003822   0.005808  -0.001310
    26  C    0.011921  -0.000928   0.003475  -0.002294   0.004077   0.000596
    27  C   -0.013337   0.002672   0.000055  -0.000129  -0.005303  -0.000487
    28  C    0.001467   0.000802   0.000002  -0.000187  -0.002602   0.000016
    29  C    0.000558   0.000003  -0.000153   0.000076   0.002732   0.000045
    30  C   -0.000045  -0.000115   0.000051  -0.000025   0.000270  -0.000011
    31  H   -0.002843  -0.003658   0.001345   0.000408   0.000886   0.000066
    32  H   -0.000494  -0.000051   0.000023  -0.000006   0.000133  -0.000007
    33  H   -0.000024   0.000020  -0.000007   0.000003  -0.000025   0.000001
    34  H    0.000002  -0.000004   0.000000   0.000000   0.000011   0.000000
    35  C    0.275825   0.141543   0.032867  -0.182688  -0.034783  -0.061464
    36  C   -0.133364  -0.295571  -0.016053   0.156551   0.402096   0.019229
    37  C    5.295039  -0.087084   0.319814   0.018282   0.014074   0.434197
    38  C   -0.087084   6.324130  -0.178680   0.074158  -0.053785  -0.004911
    39  C    0.319814  -0.178680   5.350818   0.386029  -0.000308  -0.068865
    40  C    0.018282   0.074158   0.386029   5.174982   0.012024   0.021575
    41  H    0.014074  -0.053785  -0.000308   0.012024   0.543405  -0.000274
    42  H    0.434197  -0.004911  -0.068865   0.021575  -0.000274   0.538936
    43  H    0.003400   0.381760   0.005634  -0.091319  -0.007320   0.000025
    44  H   -0.050490   0.020260   0.425750  -0.086623   0.000033  -0.010083
    45  O    0.007226  -0.123915  -0.083357   0.414403  -0.000064  -0.000109
    46  H   -0.001780  -0.044946   0.019650  -0.024077  -0.000049   0.000036
    47  O    0.000000   0.000000  -0.000000   0.000000  -0.000006  -0.000000
    48  H   -0.000000   0.000000   0.000000  -0.000000  -0.000002  -0.000000
              43         44         45         46         47         48
     1  C    0.000000  -0.000000  -0.000000   0.000000   0.000000   0.000000
     2  C   -0.000000  -0.000000   0.000000   0.000000  -0.000000  -0.000000
     3  S    0.000000   0.000000   0.000000   0.000000  -0.000000   0.000000
     4  C   -0.000000   0.000000   0.000000  -0.000000  -0.000000  -0.000000
     5  C   -0.000006   0.000020   0.000001  -0.000000  -0.000000   0.000000
     6  C    0.000000  -0.000001   0.000000  -0.000000   0.000000  -0.000000
     7  C   -0.000000   0.000000   0.000000  -0.000000   0.000000  -0.000000
     8  C   -0.000000  -0.000000  -0.000000   0.000000  -0.000000  -0.000000
     9  H    0.000000   0.000000   0.000000   0.000000   0.000000   0.000000
    10  C   -0.000039   0.000078   0.000015  -0.000001   0.000000  -0.000000
    11  C   -0.000000   0.000001  -0.000000   0.000000   0.000000   0.000000
    12  C    0.000003  -0.000036   0.000000   0.000000   0.000004  -0.000001
    13  C    0.000009  -0.000168  -0.000009  -0.000000   0.000008  -0.000000
    14  H    0.000023   0.000003  -0.000010  -0.000001   0.000000  -0.000000
    15  H   -0.000000   0.000000  -0.000000  -0.000000  -0.000000  -0.000000
    16  H   -0.000000   0.000000  -0.000000  -0.000000  -0.000004   0.000001
    17  C    0.000000  -0.000000   0.000000   0.000000  -0.000000   0.000000
    18  H    0.000000   0.000000  -0.000000   0.000000  -0.000000   0.000000
    19  H    0.000000   0.000000   0.000000   0.000000  -0.000000   0.000000
    20  H    0.000000   0.000000  -0.000000  -0.000000  -0.000000   0.000000
    21  H   -0.000000   0.000000  -0.000000  -0.000000   0.000000   0.000000
    22  H    0.000000   0.000000   0.000000   0.000000   0.000000   0.000000
    23  S   -0.000000  -0.000001   0.000000   0.000000   0.000000   0.000000
    24  N   -0.000750  -0.000661  -0.000010  -0.000003  -0.000008  -0.000003
    25  C   -0.000109  -0.000031   0.000016   0.000000  -0.001859  -0.000763
    26  C    0.000092  -0.000016  -0.000006  -0.000001   0.006578  -0.001909
    27  C   -0.000052   0.000004   0.000000  -0.000000   0.023998   0.008622
    28  C    0.000035  -0.000002  -0.000000   0.000000  -0.083060   0.020196
    29  C   -0.000009  -0.000000  -0.000000   0.000000  -0.122999  -0.043795
    30  C   -0.000001   0.000000   0.000000  -0.000000   0.414062  -0.025364
    31  H   -0.000030   0.000003  -0.000001   0.000001  -0.000118   0.000036
    32  H    0.000000  -0.000000   0.000000  -0.000000  -0.000086  -0.000054
    33  H   -0.000000  -0.000000  -0.000000  -0.000000   0.002426  -0.000810
    34  H    0.000000  -0.000000  -0.000000   0.000000  -0.006669   0.001923
    35  C    0.015052   0.022451  -0.002452  -0.000869  -0.000011  -0.000001
    36  C    0.010096  -0.004513   0.024935   0.009085   0.000006  -0.000000
    37  C    0.003400  -0.050490   0.007226  -0.001780   0.000000  -0.000000
    38  C    0.381760   0.020260  -0.123915  -0.044946   0.000000   0.000000
    39  C    0.005634   0.425750  -0.083357   0.019650  -0.000000   0.000000
    40  C   -0.091319  -0.086623   0.414403  -0.024077   0.000000  -0.000000
    41  H   -0.007320   0.000033  -0.000064  -0.000049  -0.000006  -0.000002
    42  H    0.000025  -0.010083  -0.000109   0.000036  -0.000000  -0.000000
    43  H    0.584443  -0.000334  -0.006809   0.001788  -0.000000   0.000000
    44  H   -0.000334   0.567330   0.002584  -0.000819  -0.000000   0.000000
    45  O   -0.006809   0.002584   7.701716   0.303513  -0.000000  -0.000000
    46  H    0.001788  -0.000819   0.303513   0.470934   0.000000  -0.000000
    47  O   -0.000000  -0.000000  -0.000000   0.000000   7.702284   0.303532
    48  H    0.000000   0.000000  -0.000000  -0.000000   0.303532   0.470796
 Mulliken charges:
               1
     1  C   -0.077440
     2  C   -0.149181
     3  S    0.136422
     4  C   -0.144007
     5  C   -0.208196
     6  C   -0.141279
     7  C   -0.090637
     8  C   -0.080375
     9  H    0.089892
    10  C   -0.059704
    11  C   -0.083146
    12  C   -0.146197
    13  C    0.031732
    14  H    0.144859
    15  H    0.089789
    16  H    0.145059
    17  C   -0.089274
    18  H    0.095602
    19  H    0.087366
    20  H    0.101947
    21  H    0.095914
    22  H    0.101983
    23  S    0.135846
    24  N    0.005238
    25  C   -0.143540
    26  C   -0.049051
    27  C   -0.073252
    28  C   -0.203264
    29  C   -0.174526
    30  C    0.124669
    31  H    0.129638
    32  H    0.140118
    33  H    0.114145
    34  H    0.103646
    35  C   -0.138939
    36  C   -0.064065
    37  C   -0.059058
    38  C   -0.169731
    39  C   -0.200012
    40  C    0.120499
    41  H    0.131497
    42  H    0.139950
    43  H    0.104419
    44  H    0.115262
    45  O   -0.237670
    46  H    0.267539
    47  O   -0.238081
    48  H    0.267595
 Sum of Mulliken charges =  -0.00000
 Mulliken charges with hydrogens summed into heavy atoms:
               1
     1  C    0.018162
     2  C   -0.149181
     3  S    0.223787
     4  C   -0.144007
     5  C   -0.208196
     6  C   -0.141279
     7  C    0.011310
     8  C    0.015540
    10  C    0.085154
    11  C    0.006643
    12  C   -0.001138
    13  C    0.031732
    17  C    0.012708
    23  S    0.225737
    24  N    0.005238
    25  C   -0.143540
    26  C    0.080587
    27  C    0.066866
    28  C   -0.089119
    29  C   -0.070880
    30  C    0.124669
    35  C   -0.138939
    36  C    0.067432
    37  C    0.080892
    38  C   -0.065312
    39  C   -0.084750
    40  C    0.120499
    45  O    0.029870
    47  O    0.029515
 Electronic spatial extent (au):  <R**2>=          17769.9033
 Charge=             -0.0000 electrons
 Dipole moment (field-independent basis, Debye):
    X=             -0.9699    Y=             -1.3787    Z=              3.0564  Tot=              3.4904
 Quadrupole moment (field-independent basis, Debye-Ang):
   XX=           -174.8802   YY=           -165.6971   ZZ=           -177.8184
   XY=             -6.8038   XZ=             -5.3856   YZ=              5.1049
 Traceless Quadrupole moment (field-independent basis, Debye-Ang):
   XX=             -2.0816   YY=              7.1014   ZZ=             -5.0198
   XY=             -6.8038   XZ=             -5.3856   YZ=              5.1049
 Octapole moment (field-independent basis, Debye-Ang**2):
  XXX=             61.2753  YYY=            -62.9936  ZZZ=             11.3997  XYY=            -53.7790
  XXY=             27.0722  XXZ=             76.1140  XZZ=            -37.9422  YZZ=              4.7912
  YYZ=             68.7151  XYZ=             21.1918
 Hexadecapole moment (field-independent basis, Debye-Ang**3):
 XXXX=         -17767.2301 YYYY=          -4744.3671 ZZZZ=           -966.8542 XXXY=           -552.8916
 XXXZ=             44.5115 YYYX=             62.8448 YYYZ=             38.8797 ZZZX=            -50.0822
 ZZZY=            -27.4857 XXYY=          -3473.1255 XXZZ=          -3152.2725 YYZZ=           -865.5796
 XXYZ=            171.0357 YYXZ=           -385.0803 ZZXY=             60.6317
 N-N= 2.827246280079D+03 E-N=-1.017896939476D+04  KE= 1.920239355646D+03
 No NMR shielding tensors so no spin-rotation constants.
 Leave Link  601 at Mon Jan 18 19:21:03 2021, MaxMem=  4026531840 cpu:               4.0 elap:               0.6
 (Enter /opt/ohpc/pub/libs/gaussian/g16-A.03/sandybridge/g16/l9999.exe)

 Test job not archived.
 1\1\GINC-CASCADEB025\SP\RLC-wHPBE\TZVP\C24H19N1O2S2\RDU230\18-Jan-2021
 \0\\#P LC-wHPBE/TZVP iop(3/107=0167500000, 3/108=0167500000) scf=(conv
 er=6,fermi,ndamp=35,noincfock,novaracc,vshift=500,xqc)\\H19 C24 S2 N1 
 O2\\0,1\C,0,-6.54463,-1.193879,0.12701\C,0,-5.283469,-0.647909,0.13152
 3\S,0,-3.665919,-1.107322,1.042984\C,0,-4.996815,0.486583,-0.53783\C,0
 ,-1.475687,0.036886,0.221747\C,0,-1.772288,-1.094442,0.892846\C,0,-7.5
 17398,-0.549399,-0.618903\C,0,-5.951198,1.159916,-1.262339\H,0,-2.8434
 06,1.345523,-1.332578\C,0,-0.186077,0.430997,-0.028463\C,0,-0.77363,-1
 .912541,1.366813\C,0,0.53691,-1.552052,1.124661\C,0,0.845585,-0.387156
 ,0.425435\H,0,0.045427,1.33981,-0.567415\H,0,-0.986976,-2.816418,1.923
 251\H,0,1.342687,-2.175375,1.48462\C,0,-7.223748,0.615229,-1.306247\H,
 0,-6.782458,-2.097666,0.673346\H,0,-3.815781,-2.43941,0.928305\H,0,-8.
 517553,-0.958288,-0.663525\H,0,-5.730059,2.077989,-1.791552\H,0,-7.997
 253,1.105431,-1.881471\S,0,-3.166075,0.851646,-0.124057\N,0,2.182887,-
 0.044483,0.184905\C,0,3.146505,-1.044921,-0.067172\C,0,4.392012,-0.989
 098,0.539344\C,0,2.878694,-2.090316,-0.930362\C,0,5.345494,-1.946131,0
 .285899\C,0,3.822608,-3.066997,-1.170354\C,0,5.062274,-2.995295,-0.567
 641\H,0,4.612943,-0.17489,1.215121\H,0,1.913696,-2.145516,-1.414069\H,
 0,6.317156,-1.901598,0.755555\H,0,3.591387,-3.881585,-1.84538\C,0,2.57
 5405,1.310294,0.123192\C,0,3.391681,1.763268,-0.894977\C,0,2.16404,2.2
 11964,1.09371\C,0,3.796835,3.081396,-0.942072\C,0,2.544098,3.531176,1.
 038879\C,0,3.368807,3.972023,0.020733\H,0,3.723839,1.07184,-1.656403\H
 ,0,1.529535,1.868488,1.898614\H,0,4.442764,3.41523,-1.744528\H,0,2.220
 724,4.234697,1.791974\O,0,3.726245,5.28132,0.019257\H,0,4.294203,5.466
 041,-0.728132\O,0,6.032969,-3.920806,-0.776143\H,0,5.721078,-4.593785,
 -1.380389\\Version=EM64L-G16RevA.03\State=1-A\HF=-1926.4161502\RMSD=7.
 373e-07\Dipole=0.3815819,-0.5424321,-1.2024689\Quadrupole=-1.5476292,5
 .2797256,-3.7320964,5.0584238,-4.0040269,-3.795334\PG=C01 [X(C24H19N1O
 2S2)]\\@


 A MUSTACHE HAIR ACROSS A CHIP IS LIKE A REDWOOD
 TREE FALLING THROUGH A HOUSING PROJECT.
 - AN IBM MANAGER IN EAST FISHKILL, NEW YORK
   AS QUOTED IN "FROM SANDS TO CIRCUITS", IBM INNOVATION JANUARY 1985.
 Job cpu time:       0 days  2 hours 12 minutes 38.9 seconds.
 Elapsed time:       0 days  0 hours 16 minutes 38.0 seconds.
 File lengths (MBytes):  RWF=    192 Int=      0 D2E=      0 Chk=     32 Scr=      8
 Normal termination of Gaussian 16 at Mon Jan 18 19:21:04 2021.
