 Entering Gaussian System, Link 0=g16
 Input=mol_ta_ma_half_tune_c0.gjf
 Output=mol_ta_ma_half_tune_c0.log
 Initial command:
 /opt/ohpc/pub/libs/gaussian/g16-A.03/sandybridge/g16/l1.exe "/mnt/gpfs2_4m/scratch/rdu230/ondemand/projects/init_structures/wtuning/mol_ta_ma_half/tuning_mol_ta_ma_half_ocycle0/Gau-109346.inp" -scrdir="/mnt/gpfs2_4m/scratch/rdu230/ondemand/projects/init_structures/wtuning/mol_ta_ma_half/tuning_mol_ta_ma_half_ocycle0/"
 Entering Link 1 = /opt/ohpc/pub/libs/gaussian/g16-A.03/sandybridge/g16/l1.exe PID=    109347.
  
 Copyright (c) 1988,1990,1992,1993,1995,1998,2003,2009,2016,
            Gaussian, Inc.  All Rights Reserved.
  
 This is part of the Gaussian(R) 16 program.  It is based on
 the Gaussian(R) 09 system (copyright 2009, Gaussian, Inc.),
 the Gaussian(R) 03 system (copyright 2003, Gaussian, Inc.),
 the Gaussian(R) 98 system (copyright 1998, Gaussian, Inc.),
 the Gaussian(R) 94 system (copyright 1995, Gaussian, Inc.),
 the Gaussian 92(TM) system (copyright 1992, Gaussian, Inc.),
 the Gaussian 90(TM) system (copyright 1990, Gaussian, Inc.),
 the Gaussian 88(TM) system (copyright 1988, Gaussian, Inc.),
 the Gaussian 86(TM) system (copyright 1986, Carnegie Mellon
 University), and the Gaussian 82(TM) system (copyright 1983,
 Carnegie Mellon University). Gaussian is a federally registered
 trademark of Gaussian, Inc.
  
 This software contains proprietary and confidential information,
 including trade secrets, belonging to Gaussian, Inc.
  
 This software is provided under written license and may be
 used, copied, transmitted, or stored only in accord with that
 written license.
  
 The following legend is applicable only to US Government
 contracts under FAR:
  
                    RESTRICTED RIGHTS LEGEND
  
 Use, reproduction and disclosure by the US Government is
 subject to restrictions as set forth in subparagraphs (a)
 and (c) of the Commercial Computer Software - Restricted
 Rights clause in FAR 52.227-19.
  
 Gaussian, Inc.
 340 Quinnipiac St., Bldg. 40, Wallingford CT 06492
  
  
 ---------------------------------------------------------------
 Warning -- This program may not be used in any manner that
 competes with the business of Gaussian, Inc. or will provide
 assistance to any competitor of Gaussian, Inc.  The licensee
 of this program is prohibited from giving any competitor of
 Gaussian, Inc. access to this program.  By using this program,
 the user acknowledges that Gaussian, Inc. is engaged in the
 business of creating and licensing software in the field of
 computational chemistry and represents and warrants to the
 licensee that it is not a competitor of Gaussian, Inc. and that
 it will not use this program in any manner prohibited above.
 ---------------------------------------------------------------
  

 Cite this work as:
 Gaussian 16, Revision A.03,
 M. J. Frisch, G. W. Trucks, H. B. Schlegel, G. E. Scuseria, 
 M. A. Robb, J. R. Cheeseman, G. Scalmani, V. Barone, 
 G. A. Petersson, H. Nakatsuji, X. Li, M. Caricato, A. V. Marenich, 
 J. Bloino, B. G. Janesko, R. Gomperts, B. Mennucci, H. P. Hratchian, 
 J. V. Ortiz, A. F. Izmaylov, J. L. Sonnenberg, D. Williams-Young, 
 F. Ding, F. Lipparini, F. Egidi, J. Goings, B. Peng, A. Petrone, 
 T. Henderson, D. Ranasinghe, V. G. Zakrzewski, J. Gao, N. Rega, 
 G. Zheng, W. Liang, M. Hada, M. Ehara, K. Toyota, R. Fukuda, 
 J. Hasegawa, M. Ishida, T. Nakajima, Y. Honda, O. Kitao, H. Nakai, 
 T. Vreven, K. Throssell, J. A. Montgomery, Jr., J. E. Peralta, 
 F. Ogliaro, M. J. Bearpark, J. J. Heyd, E. N. Brothers, K. N. Kudin, 
 V. N. Staroverov, T. A. Keith, R. Kobayashi, J. Normand, 
 K. Raghavachari, A. P. Rendell, J. C. Burant, S. S. Iyengar, 
 J. Tomasi, M. Cossi, J. M. Millam, M. Klene, C. Adamo, R. Cammi, 
 J. W. Ochterski, R. L. Martin, K. Morokuma, O. Farkas, 
 J. B. Foresman, and D. J. Fox, Gaussian, Inc., Wallingford CT, 2016.
 
 ******************************************
 Gaussian 16:  EM64L-G16RevA.03 25-Dec-2016
                18-Jan-2021 
 ******************************************
 %mem=30GB
 %nproc=8
 Will use up to    8 processors via shared memory.
 ----------------------------------------------------------------------
 #P LC-wHPBE/TZVP iop(3/107=0221900000, 3/108=0221900000) scf=(conver=6
 ,fermi,ndamp=35,noincfock,novaracc,vshift=500,xqc)
 ----------------------------------------------------------------------
 1/38=1,172=1/1;
 2/12=2,17=6,18=5,40=1/2;
 3/5=19,7=101,11=2,25=1,30=1,74=-71,107=221900000,108=221900000/1,2,3;
 4//1;
 5/5=100002,6=6,8=3,10=500,13=1,18=-1,22=13,38=1,93=35/2,8;
 6/7=2,8=2,9=2,10=2,28=1/1;
 99/5=1,9=1/99;
 Leave Link    1 at Mon Jan 18 04:44:42 2021, MaxMem=  4026531840 cpu:               1.1 elap:               0.2
 (Enter /opt/ohpc/pub/libs/gaussian/g16-A.03/sandybridge/g16/l101.exe)
 ----------------
 H19 C24 S2 N1 O2
 ----------------
 Symbolic Z-matrix:
 Charge =  1 Multiplicity = 2
 C                    -6.54463  -1.19388   0.12701 
 C                    -5.28347  -0.64791   0.13152 
 S                    -3.66592  -1.10732   1.04298 
 C                    -4.99682   0.48658  -0.53783 
 C                    -1.47569   0.03689   0.22175 
 C                    -1.77229  -1.09444   0.89285 
 C                    -7.5174   -0.5494   -0.6189 
 C                    -5.9512    1.15992  -1.26234 
 H                    -2.84341   1.34552  -1.33258 
 C                    -0.18608   0.431    -0.02846 
 C                    -0.77363  -1.91254   1.36681 
 C                     0.53691  -1.55205   1.12466 
 C                     0.84559  -0.38716   0.42544 
 H                     0.04543   1.33981  -0.56742 
 H                    -0.98698  -2.81642   1.92325 
 H                     1.34269  -2.17537   1.48462 
 C                    -7.22375   0.61523  -1.30625 
 H                    -6.78246  -2.09767   0.67335 
 H                    -3.81578  -2.43941   0.92831 
 H                    -8.51755  -0.95829  -0.66353 
 H                    -5.73006   2.07799  -1.79155 
 H                    -7.99725   1.10543  -1.88147 
 S                    -3.16608   0.85165  -0.12406 
 N                     2.18289  -0.04448   0.18491 
 C                     3.1465   -1.04492  -0.06717 
 C                     4.39201  -0.9891    0.53934 
 C                     2.87869  -2.09032  -0.93036 
 C                     5.34549  -1.94613   0.2859 
 C                     3.82261  -3.067    -1.17035 
 C                     5.06227  -2.9953   -0.56764 
 H                     4.61294  -0.17489   1.21512 
 H                     1.9137   -2.14552  -1.41407 
 H                     6.31716  -1.9016    0.75556 
 H                     3.59139  -3.88159  -1.84538 
 C                     2.5754    1.31029   0.12319 
 C                     3.39168   1.76327  -0.89498 
 C                     2.16404   2.21196   1.09371 
 C                     3.79684   3.0814   -0.94207 
 C                     2.5441    3.53118   1.03888 
 C                     3.36881   3.97202   0.02073 
 H                     3.72384   1.07184  -1.6564 
 H                     1.52954   1.86849   1.89861 
 H                     4.44276   3.41523  -1.74453 
 H                     2.22072   4.2347    1.79197 
 O                     3.72625   5.28132   0.01926 
 H                     4.2942    5.46604  -0.72813 
 O                     6.03297  -3.92081  -0.77614 
 H                     5.72108  -4.59379  -1.38039 
 
 ITRead=  0  0  0  0  0  0  0  0  0  0  0  0  0  0  0  0  0  0  0  0
 ITRead=  0  0  0  0  0  0  0  0  0  0  0  0  0  0  0  0  0  0  0  0
 ITRead=  0  0  0  0  0  0  0  0
 MicOpt= -1 -1 -1 -1 -1 -1 -1 -1 -1 -1 -1 -1 -1 -1 -1 -1 -1 -1 -1 -1
 MicOpt= -1 -1 -1 -1 -1 -1 -1 -1 -1 -1 -1 -1 -1 -1 -1 -1 -1 -1 -1 -1
 MicOpt= -1 -1 -1 -1 -1 -1 -1 -1
 NAtoms=     48 NQM=       48 NQMF=       0 NMMI=      0 NMMIF=      0
                NMic=       0 NMicF=      0.
                    Isotopes and Nuclear Properties:
 (Nuclear quadrupole moments (NQMom) in fm**2, nuclear magnetic moments (NMagM)
  in nuclear magnetons)

  Atom         1           2           3           4           5           6           7           8           9          10
 IAtWgt=          12          12          32          12          12          12          12          12           1          12
 AtmWgt=  12.0000000  12.0000000  31.9720718  12.0000000  12.0000000  12.0000000  12.0000000  12.0000000   1.0078250  12.0000000
 NucSpn=           0           0           0           0           0           0           0           0           1           0
 AtZEff=  -0.0000000  -0.0000000  -0.0000000  -0.0000000  -0.0000000  -0.0000000  -0.0000000  -0.0000000  -0.0000000  -0.0000000
 NQMom=    0.0000000   0.0000000   0.0000000   0.0000000   0.0000000   0.0000000   0.0000000   0.0000000   0.0000000   0.0000000
 NMagM=    0.0000000   0.0000000   0.0000000   0.0000000   0.0000000   0.0000000   0.0000000   0.0000000   2.7928460   0.0000000
 AtZNuc=   6.0000000   6.0000000  16.0000000   6.0000000   6.0000000   6.0000000   6.0000000   6.0000000   1.0000000   6.0000000

  Atom        11          12          13          14          15          16          17          18          19          20
 IAtWgt=          12          12          12           1           1           1          12           1           1           1
 AtmWgt=  12.0000000  12.0000000  12.0000000   1.0078250   1.0078250   1.0078250  12.0000000   1.0078250   1.0078250   1.0078250
 NucSpn=           0           0           0           1           1           1           0           1           1           1
 AtZEff=  -0.0000000  -0.0000000  -0.0000000  -0.0000000  -0.0000000  -0.0000000  -0.0000000  -0.0000000  -0.0000000  -0.0000000
 NQMom=    0.0000000   0.0000000   0.0000000   0.0000000   0.0000000   0.0000000   0.0000000   0.0000000   0.0000000   0.0000000
 NMagM=    0.0000000   0.0000000   0.0000000   2.7928460   2.7928460   2.7928460   0.0000000   2.7928460   2.7928460   2.7928460
 AtZNuc=   6.0000000   6.0000000   6.0000000   1.0000000   1.0000000   1.0000000   6.0000000   1.0000000   1.0000000   1.0000000

  Atom        21          22          23          24          25          26          27          28          29          30
 IAtWgt=           1           1          32          14          12          12          12          12          12          12
 AtmWgt=   1.0078250   1.0078250  31.9720718  14.0030740  12.0000000  12.0000000  12.0000000  12.0000000  12.0000000  12.0000000
 NucSpn=           1           1           0           2           0           0           0           0           0           0
 AtZEff=  -0.0000000  -0.0000000  -0.0000000  -0.0000000  -0.0000000  -0.0000000  -0.0000000  -0.0000000  -0.0000000  -0.0000000
 NQMom=    0.0000000   0.0000000   0.0000000   2.0440000   0.0000000   0.0000000   0.0000000   0.0000000   0.0000000   0.0000000
 NMagM=    2.7928460   2.7928460   0.0000000   0.4037610   0.0000000   0.0000000   0.0000000   0.0000000   0.0000000   0.0000000
 AtZNuc=   1.0000000   1.0000000  16.0000000   7.0000000   6.0000000   6.0000000   6.0000000   6.0000000   6.0000000   6.0000000

  Atom        31          32          33          34          35          36          37          38          39          40
 IAtWgt=           1           1           1           1          12          12          12          12          12          12
 AtmWgt=   1.0078250   1.0078250   1.0078250   1.0078250  12.0000000  12.0000000  12.0000000  12.0000000  12.0000000  12.0000000
 NucSpn=           1           1           1           1           0           0           0           0           0           0
 AtZEff=  -0.0000000  -0.0000000  -0.0000000  -0.0000000  -0.0000000  -0.0000000  -0.0000000  -0.0000000  -0.0000000  -0.0000000
 NQMom=    0.0000000   0.0000000   0.0000000   0.0000000   0.0000000   0.0000000   0.0000000   0.0000000   0.0000000   0.0000000
 NMagM=    2.7928460   2.7928460   2.7928460   2.7928460   0.0000000   0.0000000   0.0000000   0.0000000   0.0000000   0.0000000
 AtZNuc=   1.0000000   1.0000000   1.0000000   1.0000000   6.0000000   6.0000000   6.0000000   6.0000000   6.0000000   6.0000000

  Atom        41          42          43          44          45          46          47          48
 IAtWgt=           1           1           1           1          16           1          16           1
 AtmWgt=   1.0078250   1.0078250   1.0078250   1.0078250  15.9949146   1.0078250  15.9949146   1.0078250
 NucSpn=           1           1           1           1           0           1           0           1
 AtZEff=  -0.0000000  -0.0000000  -0.0000000  -0.0000000  -0.0000000  -0.0000000  -0.0000000  -0.0000000
 NQMom=    0.0000000   0.0000000   0.0000000   0.0000000   0.0000000   0.0000000   0.0000000   0.0000000
 NMagM=    2.7928460   2.7928460   2.7928460   2.7928460   0.0000000   2.7928460   0.0000000   2.7928460
 AtZNuc=   1.0000000   1.0000000   1.0000000   1.0000000   8.0000000   1.0000000   8.0000000   1.0000000
 Leave Link  101 at Mon Jan 18 04:44:43 2021, MaxMem=  4026531840 cpu:               0.7 elap:               0.1
 (Enter /opt/ohpc/pub/libs/gaussian/g16-A.03/sandybridge/g16/l202.exe)
                          Input orientation:                          
 ---------------------------------------------------------------------
 Center     Atomic      Atomic             Coordinates (Angstroms)
 Number     Number       Type             X           Y           Z
 ---------------------------------------------------------------------
      1          6           0       -6.544630   -1.193879    0.127010
      2          6           0       -5.283469   -0.647909    0.131523
      3         16           0       -3.665919   -1.107322    1.042984
      4          6           0       -4.996815    0.486583   -0.537830
      5          6           0       -1.475687    0.036886    0.221747
      6          6           0       -1.772288   -1.094442    0.892846
      7          6           0       -7.517398   -0.549399   -0.618903
      8          6           0       -5.951198    1.159916   -1.262339
      9          1           0       -2.843406    1.345523   -1.332578
     10          6           0       -0.186077    0.430997   -0.028463
     11          6           0       -0.773630   -1.912541    1.366813
     12          6           0        0.536910   -1.552052    1.124661
     13          6           0        0.845585   -0.387156    0.425435
     14          1           0        0.045427    1.339810   -0.567415
     15          1           0       -0.986976   -2.816418    1.923251
     16          1           0        1.342687   -2.175375    1.484620
     17          6           0       -7.223748    0.615229   -1.306247
     18          1           0       -6.782458   -2.097666    0.673346
     19          1           0       -3.815781   -2.439410    0.928305
     20          1           0       -8.517553   -0.958288   -0.663525
     21          1           0       -5.730059    2.077989   -1.791552
     22          1           0       -7.997253    1.105431   -1.881471
     23         16           0       -3.166075    0.851646   -0.124057
     24          7           0        2.182887   -0.044483    0.184905
     25          6           0        3.146505   -1.044921   -0.067172
     26          6           0        4.392012   -0.989098    0.539344
     27          6           0        2.878694   -2.090316   -0.930362
     28          6           0        5.345494   -1.946131    0.285899
     29          6           0        3.822608   -3.066997   -1.170354
     30          6           0        5.062274   -2.995295   -0.567641
     31          1           0        4.612943   -0.174890    1.215121
     32          1           0        1.913696   -2.145516   -1.414069
     33          1           0        6.317156   -1.901598    0.755555
     34          1           0        3.591387   -3.881585   -1.845380
     35          6           0        2.575405    1.310294    0.123192
     36          6           0        3.391681    1.763268   -0.894977
     37          6           0        2.164040    2.211964    1.093710
     38          6           0        3.796835    3.081396   -0.942072
     39          6           0        2.544098    3.531176    1.038879
     40          6           0        3.368807    3.972023    0.020733
     41          1           0        3.723839    1.071840   -1.656403
     42          1           0        1.529535    1.868488    1.898614
     43          1           0        4.442764    3.415230   -1.744528
     44          1           0        2.220724    4.234697    1.791974
     45          8           0        3.726245    5.281320    0.019257
     46          1           0        4.294203    5.466041   -0.728132
     47          8           0        6.032969   -3.920806   -0.776143
     48          1           0        5.721078   -4.593785   -1.380389
 ---------------------------------------------------------------------
                    Distance matrix (angstroms):
                    1          2          3          4          5
     1  C    0.000000
     2  C    1.374275   0.000000
     3  S    3.022164   1.912666   0.000000
     4  C    2.379432   1.348064   2.609749   0.000000
     5  C    5.217082   3.869921   2.603989   3.630086   0.000000
     6  C    4.834422   3.620414   1.899617   3.865753   1.348425
     7  C    1.384925   2.358661   4.231671   2.726384   6.128025
     8  C    2.796927   2.378433   3.959467   1.374459   4.847051
     9  H    4.719960   3.474373   3.512303   2.450831   2.449309
    10  C    6.564723   5.212777   3.952686   4.837948   1.371504
    11  C    5.946262   4.843953   3.019698   5.217159   2.367346
    12  C    7.160433   5.973325   4.227083   6.127154   2.718552
    13  C    7.440103   6.141635   4.610171   5.985394   2.368460
    14  H    7.094410   5.730329   4.728206   5.114008   2.152713
    15  H    6.061900   5.135423   3.297365   5.748525   3.357871
    16  H    8.063263   6.933251   5.140225   7.166981   3.798971
    17  C    2.405888   2.725323   4.598284   2.359289   5.975739
    18  H    1.082532   2.154608   3.290931   3.366573   5.737776
    19  H    3.104841   2.449172   1.345388   3.479343   3.479555
    20  H    2.138428   3.344807   5.145166   3.807761   7.166726
    21  H    3.879372   3.365736   4.737243   2.154539   5.130220
    22  H    3.380967   3.806701   5.675312   3.345291   6.935138
    23  S    3.957504   2.607172   2.334392   1.912090   1.908095
    24  N    8.803069   7.490891   6.006202   7.235503   3.659664
    25  C    9.694225   8.441656   6.902569   8.299439   4.755885
    26  C   10.946328   9.690081   8.074521   9.564937   5.965183
    27  C    9.524740   8.356377   6.905963   8.295669   4.981263
    28  C   11.914956  10.709065   9.081979  10.656453   7.103871
    29  C   10.614676   9.511441   8.050915   9.529441   6.296345
    30  C   11.766387  10.631719   9.074134  10.644700   7.249979
    31  H   11.256721   9.966790   8.332984   9.790701   6.172767
    32  H    8.650076   7.512048   6.184421   7.446536   4.350482
    33  H   12.896568  11.684847  10.018746  11.635385   8.048048
    34  H   10.670189   9.650278   8.289009   9.723569   6.730726
    35  C    9.457586   8.099168   6.756109   7.645519   4.247661
    36  C   10.417267   9.062323   7.861660   8.492605   5.283819
    37  C    9.400809   8.035550   6.708849   7.544316   4.328845
    38  C   11.241299   9.874829   8.785130   9.177404   6.198629
    39  C   10.284096   8.919577   7.751128   8.283775   5.388547
    40  C   11.179180   9.809074   8.736825   9.079863   6.244584
    41  H   10.665622   9.342688   8.163575   8.811557   5.624380
    42  H    8.815260   7.474750   6.048164   7.102054   3.898462
    43  H   12.061068  10.706459   9.694041   9.956844   7.092779
    44  H   10.443801   9.105485   7.984405   8.459859   5.809534
    45  O   12.142104  10.786255   9.823790   9.969535   7.389532
    46  H   12.750141  11.395227  10.474230  10.542971   7.979325
    47  O   12.901466  11.815138  10.261254  11.880152   8.546287
    48  H   12.817145  11.787954  10.302615  11.890890   8.706514
                    6          7          8          9         10
     6  C    0.000000
     7  C    5.965630   0.000000
     8  C    5.214426   2.405982   0.000000
     9  H    3.471777   5.093747   3.114122   0.000000
    10  C    2.385758   7.420112   5.940572   3.098140   0.000000
    11  C    1.375227   7.160980   6.569600   4.710166   2.790015
    12  C    2.365489   8.301639   7.426176   5.085322   2.405180
    13  C    2.751724   8.429499   7.172048   4.438631   1.392740
    14  H    3.370761   7.795389   6.039436   2.988455   1.081667
    15  H    2.154913   7.365347   7.113559   5.600760   3.872510
    16  H    3.349878   9.250390   8.477659   6.152780   3.379307
    17  C    6.121879   1.383846   1.384917   4.440880   7.155102
    18  H    5.114337   2.146433   3.879396   5.603161   7.099219
    19  H    2.446643   4.434858   4.723778   4.514734   4.725399
    20  H    6.923830   1.081430   3.381057   6.160448   8.470355
    21  H    5.738838   3.387160   1.082510   3.013292   6.046222
    22  H    7.161457   2.136071   2.138372   5.188551   8.056238
    23  S    2.600768   4.598023   3.024504   1.344824   3.011058
    24  N    4.152951   9.746619   8.349157   5.431251   2.425613
    25  C    5.011847  10.689657   9.437051   6.572253   3.644988
    26  C    6.175326  11.973676  10.716637   7.829803   4.826797
    27  C    5.093867  10.514284   9.414946   6.686494   4.069799
    28  C    7.194205  12.970101  11.817776   8.972878   6.028917
    29  C    6.280974  11.629193  10.649063   7.995773   5.441455
    30  C    7.242755  12.815349  11.791732   9.051387   6.290896
    31  H    6.459149  12.273918  10.932547   8.024934   4.994416
    32  H    4.473599   9.598198   8.532612   5.901187   3.601023
    33  H    8.130772  13.968266  12.804580   9.940824   6.953253
    34  H    6.635892  11.662453  10.808219   8.306153   6.014049
    35  C    5.027679  10.289501   8.639749   5.611062   2.902059
    36  C    6.166798  11.154938   9.369545   6.264369   3.914862
    37  C    5.144642  10.212170   8.515566   5.631351   3.155022
    38  C    7.198589  11.886925   9.940765   6.874485   4.870614
    39  C    6.328417  10.983307   9.115291   6.279020   4.266636
    40  C    7.270523  11.805162   9.819201   6.879066   5.017817
    41  H    6.434195  11.404834   9.683459   6.580917   4.283493
    42  H    4.548907   9.696962   8.151998   5.462299   2.953529
    43  H    8.119098  12.650328  10.646755   7.585622   5.768596
    44  H    6.719546  11.114447   9.250049   6.614799   4.855390
    45  O    8.464477  12.681642  10.596290   7.776778   6.231707
    46  H    9.081290  13.255616  11.126380   8.263745   6.775995
    47  O    8.467343  13.964367  13.025758  10.336047   7.627172
    48  H    8.576919  13.863411  13.013879  10.422478   7.872142
                   11         12         13         14         15
    11  C    0.000000
    12  C    1.380618   0.000000
    13  C    2.415543   1.393262   0.000000
    14  H    3.871677   3.386376   2.146722   0.000000
    15  H    1.082651   2.135087   3.391614   4.954140   0.000000
    16  H    2.135827   1.080453   2.136986   4.272032   2.455741
    17  C    7.425557   8.416308   8.313702   7.342465   7.816853
    18  H    6.051544   7.353538   7.821403   7.744401   5.972142
    19  H    3.118423   4.446558   5.117906   5.606122   3.022282
    20  H    8.062333   9.248430   9.443536   8.866517   8.176408
    21  H    7.103928   7.807458   7.364174   5.949761   7.762204
    22  H    8.475862   9.430323   9.259882   8.152691   8.888239
    23  S    3.948065   4.587936   4.234382   3.278508   4.732297
    24  N    3.691550   2.421806   1.401305   2.655370   4.555601
    25  C    4.263395   2.913354   2.443266   3.943839   4.917891
    26  C    5.312373   3.939711   3.598952   5.053863   5.847034
    27  C    4.318343   3.161772   2.978669   4.463731   4.859397
    28  C    6.213951   4.897071   4.764352   6.294145   6.598371
    29  C    5.375443   4.284619   4.311700   5.835287   5.724096
    30  C    6.242775   5.042396   5.056585   6.630376   6.544461
    31  H    5.661944   4.303348   3.855081   5.131662   6.232031
    32  H    3.874184   2.948371   2.759795   4.044101   4.472327
    33  H    7.117092   5.802557   5.686880   7.182727   7.453238
    34  H    5.766168   4.855687   4.990698   6.439720   6.024829
    35  C    4.811371   3.653960   2.442328   2.622708   5.741126
    36  C    5.998090   4.818714   3.584748   3.388809   6.934592
    37  C    5.071098   4.100771   2.990040   2.829931   5.991800
    38  C    7.152587   6.030534   4.755082   4.152897   8.116596
    39  C    6.383488   5.465837   4.314462   3.691290   7.317277
    40  C    7.321189   6.305054   5.053006   4.280107   8.287059
    41  H    6.186565   4.977514   3.840191   3.845571   7.079848
    42  H    4.459099   3.644777   2.779564   2.926325   5.318062
    43  H    8.079378   6.939873   5.666266   5.002953   9.042572
    44  H    6.850945   6.063580   5.011982   4.321921   7.747567
    45  O    8.591648   7.621598   6.371405   5.424768   9.561015
    46  H    9.193215   8.173354   6.890834   5.924838  10.174469
    47  O    7.413176   6.279388   6.390573   7.972974   7.601712
    48  H    7.544363   6.511760   6.687837   8.251151   7.685770
                   16         17         18         19         20
    16  H    0.000000
    17  C    9.431872   0.000000
    18  H    8.165916   3.387230   0.000000
    19  H    5.195093   5.092964   2.997160   0.000000
    20  H   10.164653   2.136113   2.469000   5.180184   0.000000
    21  H    8.879648   2.146228   4.961790   5.609722   4.273353
    22  H   10.456038   1.081430   4.273482   6.159988   2.452150
    23  S    5.663888   4.232987   4.734186   3.515769   5.674963
    24  N    2.633609   9.546912   9.210404   6.501718  10.772850
    25  C    2.634339  10.575138  10.012040   7.170007  11.679614
    26  C    3.405757  11.870381  11.230123   8.344014  12.965520
    27  C    2.863336  10.465209   9.793354   6.956472  11.455441
    28  C    4.184728  12.925995  12.135085   9.197009  13.930589
    29  C    3.740840  11.644709  10.807694   7.946271  12.529290
    30  C    4.326589  12.826837  11.943344   9.020351  13.732090
    31  H    3.843064  12.128019  11.569172   8.732337  13.287323
    32  H    2.954546   9.546006   8.943304   6.196773  10.525388
    33  H    5.035060  13.926289  13.101339  10.148670  14.932254
    34  H    4.365399  11.725150  10.823262   8.039859  12.512748
    35  C    3.939920   9.927226   9.974290   7.453573  11.349850
    36  C    5.037238  10.685245  10.994524   8.540162  12.218441
    37  C    4.480644   9.820383   9.939288   7.577658  11.279840
    38  C    6.288507  11.299020  11.889226   9.587989  12.963055
    39  C    5.848658  10.460075  10.899639   8.724000  12.058756
    40  C    6.636161  11.190673  11.845472   9.672046  12.886494
    41  H    5.106889  10.962699  11.218546   8.709504  12.448249
    42  H    4.069291   9.405411   9.290903   6.933389  10.747055
    43  H    7.161895  12.005815  12.737494  10.470168  13.721007
    44  H    6.477225  10.578165  11.063789   9.040410  12.178143
    45  O    7.964354  11.976298  12.857298  10.831352  13.758978
    46  H    8.485220  12.511107  13.485779  11.446038  14.332385
    47  O    5.491477  14.021311  13.025361  10.104333  14.849474
    48  H    5.764312  13.953775  12.914598  10.046048  14.712897
                   21         22         23         24         25
    21  H    0.000000
    22  H    2.468628   0.000000
    23  S    3.295219   5.147154   0.000000
    24  N    8.427692  10.451194   5.432301   0.000000
    25  C    9.566579  11.493435   6.591576   1.411729   0.000000
    26  C   10.830347  12.796143   7.807248   2.428612   1.386458
    27  C    9.603491  11.375572   6.770857   2.431748   1.381908
    28  C   11.965668  13.857793   8.968970   3.691686   2.402580
    29  C   10.867852  12.554838   8.080358   3.696079   2.400608
    30  C   11.987936  13.751122   9.094034   4.191001   2.779316
    31  H   11.004237  13.047802   7.959918   2.642636   2.133464
    32  H    8.741137  10.440978   6.037482   2.653963   2.131961
    33  H   12.940644  14.862652   9.913916   4.568008   3.385824
    34  H   11.063850  12.616188   8.427913   4.563911   3.377367
    35  C    8.557823  10.762980   5.765074   1.411843   2.430932
    36  C    9.171098  11.450491   6.665548   2.428022   2.937907
    37  C    8.405920  10.645562   5.634141   2.432660   3.594466
    38  C    9.617180  11.995308   7.356837   3.694053   4.267888
    39  C    8.864805  11.204140   6.413921   3.693925   4.746252
    40  C    9.468955  11.875313   7.243093   4.191143   5.022636
    41  H    9.508248  11.723301   7.061691   2.647853   2.709178
    42  H    8.146344  10.277694   5.212861   2.650118   3.868702
    43  H   10.260446  12.653377   8.190990   4.560633   4.938295
    44  H    8.983763  11.300157   6.643328   4.571158   5.673435
    45  O   10.147021  12.589330   8.194304   5.547393   6.353337
    46  H   10.634641  13.092937   8.792798   5.971362   6.644299
    47  O   13.243316  14.944294  10.383830   5.547308   4.135823
    48  H   13.259342  14.863538  10.498218   5.972026   4.576833
                   26         27         28         29         30
    26  C    0.000000
    27  C    2.379674   0.000000
    28  C    1.374509   2.754121   0.000000
    29  C    2.750446   1.379303   2.386670   0.000000
    30  C    2.387361   2.391354   1.381843   1.380281   0.000000
    31  H    1.080935   3.358508   2.130112   3.831371   3.366723
    32  H    3.360830   1.080852   3.834955   2.133652   3.369289
    33  H    2.141397   3.834182   1.080133   3.360067   2.126441
    34  H    3.833326   2.133971   3.371235   1.082902   2.140476
    35  C    2.959805   3.572969   4.278337   4.731749   5.019947
    36  C    3.260898   3.887739   4.355628   4.857262   5.053905
    37  C    3.939287   4.808036   5.297543   5.978651   6.186711
    38  C    4.372385   5.252592   5.402063   6.152683   6.218336
    39  C    4.908890   5.965822   6.198039   7.074686   7.177530
    40  C    5.092016   6.156033   6.245170   7.153490   7.194271
    41  H    3.084676   3.352706   3.938331   4.168449   4.417963
    42  H    4.266988   5.049303   5.631493   6.247860   6.497618
    43  H    4.961527   5.781022   5.803598   6.537089   6.547036
    44  H    5.794101   6.917357   7.087671   8.040905   8.118804
    45  O    6.327075   7.480718   7.411418   8.433200   8.404271
    46  H    6.579125   7.690455   7.554718   8.557494   8.497641
    47  O    3.608068   3.650196   2.345186   2.402101   1.357311
    48  H    4.294829   3.814319   3.150817   2.445278   1.910432
                   31         32         33         34         35
    31  H    0.000000
    32  H    4.252287   0.000000
    33  H    2.469223   4.915000   0.000000
    34  H    4.914248   2.452471   4.256175   0.000000
    35  C    2.747661   3.839746   4.971603   5.644741   0.000000
    36  C    3.114555   4.210996   4.971308   5.727784   1.381362
    37  C    3.421833   5.033812   5.855264   6.914254   1.387132
    38  C    3.990352   5.575805   5.836453   7.024335   2.400725
    39  C    4.248071   6.216043   6.620519   8.022767   2.402453
    40  C    4.491250   6.449829   6.613029   8.075338   2.779350
    41  H    3.254304   3.699557   4.624302   4.958798   2.131366
    42  H    3.761643   5.218590   6.200117   7.164640   2.134841
    43  H    4.655904   6.117784   6.167043   7.347008   3.377301
    44  H    5.049745   7.147034   7.450439   8.999061   3.385671
    45  O    5.655665   7.778024   7.671327   9.351678   4.135732
    46  H    5.974774   8.004569   7.783044   9.440355   4.577035
    47  O    4.473644   4.530675   2.550306   2.665732   6.334663
    48  H    5.243212   4.526733   3.487899   2.293257   6.856687
                   36         37         38         39         40
    36  C    0.000000
    37  C    2.379770   0.000000
    38  C    1.379793   2.750698   0.000000
    39  C    2.753851   1.373962   2.386591   0.000000
    40  C    2.391160   2.387583   1.379644   1.382430   0.000000
    41  H    1.080820   3.360949   2.133990   3.834667   3.368960
    42  H    3.358989   1.080945   3.831617   2.129088   3.366633
    43  H    2.134360   3.833540   1.082869   3.371310   2.139988
    44  H    3.833902   2.140615   3.359946   1.080123   2.127061
    45  O    3.650267   3.607753   2.401833   2.345230   1.357211
    46  H    3.814828   4.294848   2.445338   3.151015   1.910300
    47  O    6.268909   7.488380   7.352459   8.426064   8.368364
    48  H    6.787771   8.067955   7.924849   9.053234   8.992741
                   41         42         43         44         45
    41  H    0.000000
    42  H    4.252971   0.000000
    43  H    2.452773   4.914448   0.000000
    44  H    4.914705   2.467399   4.256270   0.000000
    45  O    4.530735   4.472688   2.665826   2.550400   0.000000
    46  H    4.527251   5.242668   2.293678   3.488045   0.956707
    47  O    5.570768   7.807123   7.568616   9.361659   9.520124
    48  H    6.013689   8.371491   8.118559  10.012915  10.171336
                   46         47         48
    46  H    0.000000
    47  O    9.546649   0.000000
    48  H   10.181430   0.956708   0.000000
 Stoichiometry    C24H19NO2S2(1+,2)
 Framework group  C1[X(C24H19NO2S2)]
 Deg. of freedom   138
 Full point group                 C1      NOp   1
 Largest Abelian subgroup         C1      NOp   1
 Largest concise Abelian subgroup C1      NOp   1
                         Standard orientation:                         
 ---------------------------------------------------------------------
 Center     Atomic      Atomic             Coordinates (Angstroms)
 Number     Number       Type             X           Y           Z
 ---------------------------------------------------------------------
      1          6           0        6.544630   -1.193879   -0.127010
      2          6           0        5.283469   -0.647909   -0.131523
      3         16           0        3.665919   -1.107322   -1.042984
      4          6           0        4.996815    0.486583    0.537830
      5          6           0        1.475687    0.036886   -0.221747
      6          6           0        1.772288   -1.094442   -0.892846
      7          6           0        7.517398   -0.549399    0.618903
      8          6           0        5.951198    1.159916    1.262339
      9          1           0        2.843406    1.345523    1.332578
     10          6           0        0.186077    0.430997    0.028463
     11          6           0        0.773630   -1.912541   -1.366813
     12          6           0       -0.536910   -1.552052   -1.124661
     13          6           0       -0.845585   -0.387156   -0.425435
     14          1           0       -0.045427    1.339810    0.567415
     15          1           0        0.986976   -2.816418   -1.923251
     16          1           0       -1.342687   -2.175375   -1.484620
     17          6           0        7.223748    0.615229    1.306247
     18          1           0        6.782458   -2.097666   -0.673346
     19          1           0        3.815781   -2.439410   -0.928305
     20          1           0        8.517553   -0.958288    0.663525
     21          1           0        5.730059    2.077989    1.791552
     22          1           0        7.997253    1.105431    1.881471
     23         16           0        3.166075    0.851646    0.124057
     24          7           0       -2.182887   -0.044483   -0.184905
     25          6           0       -3.146505   -1.044921    0.067172
     26          6           0       -4.392012   -0.989098   -0.539344
     27          6           0       -2.878694   -2.090316    0.930362
     28          6           0       -5.345494   -1.946131   -0.285899
     29          6           0       -3.822608   -3.066997    1.170354
     30          6           0       -5.062274   -2.995295    0.567641
     31          1           0       -4.612943   -0.174890   -1.215121
     32          1           0       -1.913696   -2.145516    1.414069
     33          1           0       -6.317156   -1.901598   -0.755555
     34          1           0       -3.591387   -3.881585    1.845380
     35          6           0       -2.575405    1.310294   -0.123192
     36          6           0       -3.391681    1.763268    0.894977
     37          6           0       -2.164040    2.211964   -1.093710
     38          6           0       -3.796835    3.081396    0.942072
     39          6           0       -2.544098    3.531176   -1.038879
     40          6           0       -3.368807    3.972023   -0.020733
     41          1           0       -3.723839    1.071840    1.656403
     42          1           0       -1.529535    1.868488   -1.898614
     43          1           0       -4.442764    3.415230    1.744528
     44          1           0       -2.220724    4.234697   -1.791974
     45          8           0       -3.726245    5.281320   -0.019257
     46          1           0       -4.294203    5.466041    0.728132
     47          8           0       -6.032969   -3.920806    0.776143
     48          1           0       -5.721078   -4.593785    1.380389
 ---------------------------------------------------------------------
 Rotational constants (GHZ):           0.2280536           0.0702108           0.0568934
 Leave Link  202 at Mon Jan 18 04:44:43 2021, MaxMem=  4026531840 cpu:               0.2 elap:               0.0
 (Enter /opt/ohpc/pub/libs/gaussian/g16-A.03/sandybridge/g16/l301.exe)
 Standard basis: TZVP (5D, 7F)
 Ernie: Thresh=  0.10000D-02 Tol=  0.10000D-05 Strict=F.
 There are   700 symmetry adapted cartesian basis functions of A   symmetry.
 There are   671 symmetry adapted basis functions of A   symmetry.
   671 basis functions,  1191 primitive gaussians,   700 cartesian basis functions
   109 alpha electrons      108 beta electrons
       nuclear repulsion energy      2827.2462800785 Hartrees.
 IExCor=33909 DFT=T Ex+Corr=LC-wHPBE ExCW=0 ScaHFX=  1.000000
 ScaDFX=  1.000000  1.000000  1.000000  1.000000 ScalE2=  1.000000  1.000000
 IRadAn=      5 IRanWt=     -1 IRanGd=            0 ICorTp=0 IEmpDi=  4
 HFx  wShort=  0.000000 wLong=  0.221900 cFull=  0.000000 cShort=  0.000000 cLong=  1.000000
 DFx  wShort=  0.000000 wLong=  0.221900 cFull=  0.000000 cShort=  1.000000 cLong=  0.000000
 NAtoms=   48 NActive=   48 NUniq=   48 SFac= 1.00D+00 NAtFMM=   60 NAOKFM=F Big=F
 Integral buffers will be    131072 words long.
 Raffenetti 2 integral format.
 Two-electron integral symmetry is turned on.
 Leave Link  301 at Mon Jan 18 04:44:43 2021, MaxMem=  4026531840 cpu:               0.5 elap:               0.1
 (Enter /opt/ohpc/pub/libs/gaussian/g16-A.03/sandybridge/g16/l302.exe)
 NPDir=0 NMtPBC=     1 NCelOv=     1 NCel=       1 NClECP=     1 NCelD=      1
         NCelK=      1 NCelE2=     1 NClLst=     1 CellRange=     0.0.
 One-electron integrals computed using PRISM.
 One-electron integral symmetry used in STVInt
 NBasis=   671 RedAO= T EigKep=  6.34D-06  NBF=   671
 NBsUse=   671 1.00D-06 EigRej= -1.00D+00 NBFU=   671
 Precomputing XC quadrature grid using
 IXCGrd= 4 IRadAn=           5 IRanWt=          -1 IRanGd=           0 AccXCQ= 0.00D+00.
 Generated NRdTot=       0 NPtTot=           0 NUsed=           0 NTot=          32
 NSgBfM=   657   657   657   657   657 MxSgAt=    48 MxSgA2=    48.
 Leave Link  302 at Mon Jan 18 04:44:44 2021, MaxMem=  4026531840 cpu:              10.3 elap:               1.4
 (Enter /opt/ohpc/pub/libs/gaussian/g16-A.03/sandybridge/g16/l303.exe)
 DipDrv:  MaxL=1.
 Leave Link  303 at Mon Jan 18 04:44:44 2021, MaxMem=  4026531840 cpu:               0.9 elap:               0.2
 (Enter /opt/ohpc/pub/libs/gaussian/g16-A.03/sandybridge/g16/l401.exe)
 ExpMin= 9.52D-02 ExpMax= 6.07D+04 ExpMxC= 2.07D+03 IAcc=3 IRadAn=         5 AccDes= 0.00D+00
 Harris functional with IExCor=33909 and IRadAn=       5 diagonalized for initial guess.
 HarFok:  IExCor=33909 AccDes= 0.00D+00 IRadAn=         5 IDoV= 1 UseB2=F ITyADJ=14
 ICtDFT=  3500011 ScaDFX=  1.000000  1.000000  1.000000  1.000000
 FoFCou: FMM=F IPFlag=           0 FMFlag=      100000 FMFlg1=           0
         NFxFlg=           0 DoJE=T BraDBF=F KetDBF=T FulRan=T
         wScrn=  0.000000 ICntrl=       500 IOpCl=  0 I1Cent=   200000004 NGrid=           0
         NMat0=    1 NMatS0=      1 NMatT0=    0 NMatD0=    1 NMtDS0=    0 NMtDT0=    0
 Petite list used in FoFCou.
 Harris En= -1900.67853058069    
 JPrj=0 DoOrth=F DoCkMO=F.
 Initial guess <Sx>= 0.0000 <Sy>= 0.0000 <Sz>= 0.5000 <S**2>= 0.7500 S= 0.5000
 Leave Link  401 at Mon Jan 18 04:44:52 2021, MaxMem=  4026531840 cpu:              57.6 elap:               7.2
 (Enter /opt/ohpc/pub/libs/gaussian/g16-A.03/sandybridge/g16/l502.exe)
 Integral symmetry usage will be decided dynamically.
 UHF open shell SCF:
 Using DIIS extrapolation, IDIIS=    10.
 NGot=  4026531840 LenX=  4025539370 LenY=  4025048670
 Requested convergence on RMS density matrix=1.00D-06 within  32 cycles.
 Requested convergence on MAX density matrix=1.00D-04.
 Requested convergence on             energy=1.00D-04.
 Virtual orbitals will be shifted by   0.500 hartree.
 No special actions if energy rises.
 Dynamic level shift is on during FON iterations.

 Cycle   1  Pass 1  IDiag  1:
 FoFJK:  IHMeth= 1 ICntrl=       0 DoSepK=T KAlg= 0 I1Cent=           0 FoldK=F
 IRaf=         1 NMat=       1 IRICut=       1 DoRegI=T DoRafI=F ISym2E= 0 IDoP0=0 IntGTp=1.
 FoFCou: FMM=F IPFlag=           0 FMFlag=      100000 FMFlg1=           0
         NFxFlg=           0 DoJE=T BraDBF=F KetDBF=F FulRan=T
         wScrn=  0.000000 ICntrl=       500 IOpCl=  0 I1Cent=           0 NGrid=           0
         NMat0=    1 NMatS0=      1 NMatT0=    0 NMatD0=    1 NMtDS0=    0 NMtDT0=    0
 Symmetry not used in FoFCou.
 E= -1925.61991258667    
 DIIS: error= 1.91D-02 at cycle   1 NSaved=   1.
 NSaved= 1 IEnMin= 1 EnMin= -1925.61991258667     IErMin= 1 ErrMin= 1.91D-02
 ErrMax= 1.91D-02  0.00D+00 EMaxC= 1.00D+00 BMatC= 2.59D+00 BMatP= 2.59D+00
 IDIUse=1 WtCom= 1.00D+00 WtEn= 0.00D+00
 Coeff-Com:  0.100D+01
 Coeff:      0.100D+01
 Gap=     0.532 Goal=   None    Shift=    0.500
 T= 1226. Gap= 0.547 NK=0 IS=  110 IE=  671 IFin=  109
          NO(<0.9)=   0  NV(>0.1)=   0    109.00e < EF      0.00e >EF  Err=0.0D+00
 Gap=    -0.003 Goal=   None    Shift=    0.500
 T= 1226. Gap= 0.434 NK=0 IS=  109 IE=  671 IFin=  108
          NO(<0.9)=   0  NV(>0.1)=   0    108.00e < EF      0.00e >EF  Err=0.0D+00
 GapD=   -0.003 DampG=0.250 DampE=0.500 DampFc=0.1250 IDamp=-1.
 Damping current iteration by 1.25D-01
 RMSDP=3.89D-03 MaxDP=3.50D-01              OVMax= 1.06D-01

 Cycle   2  Pass 1  IDiag  1:
 E= -1925.74117941103     Delta-E=       -0.121266824359 Rises=F Damp=T
 DIIS: error= 1.64D-02 at cycle   2 NSaved=   2.
 NSaved= 2 IEnMin= 2 EnMin= -1925.74117941103     IErMin= 2 ErrMin= 1.64D-02
 ErrMax= 1.64D-02  0.00D+00 EMaxC= 1.00D+00 BMatC= 1.81D+00 BMatP= 2.59D+00
 IDIUse=1 WtCom= 1.00D+00 WtEn= 0.00D+00
 Coeff-Com: -0.491D+01 0.591D+01
 Coeff:     -0.491D+01 0.591D+01
 Gap=     0.231 Goal=   None    Shift=    0.500
 T= 1197. Gap= 0.706 NK=4 IS=  110 IE=  120 IFin=  109
          NO(<0.9)=   0  NV(>0.1)=   0    109.00e < EF      0.00e >EF  Err=0.0D+00
 Gap=     0.089 Goal=   None    Shift=    0.500
 T= 1197. Gap= 0.571 NK=4 IS=  109 IE=  120 IFin=  108
          NO(<0.9)=   0  NV(>0.1)=   0    108.00e < EF      0.00e >EF  Err=0.0D+00
 GapD=    0.089 DampG=0.500 DampE=0.500 DampFc=0.2500 IDamp=-1.
 Damping current iteration by 2.50D-01
 RMSDP=3.16D-03 MaxDP=2.91D-01 DE=-1.21D-01 OVMax= 2.27D-02

 Cycle   3  Pass 1  IDiag  1:
 E= -1925.91304904503     Delta-E=       -0.171869633999 Rises=F Damp=T
 DIIS: error= 1.21D-02 at cycle   3 NSaved=   3.
 NSaved= 3 IEnMin= 3 EnMin= -1925.91304904503     IErMin= 3 ErrMin= 1.21D-02
 ErrMax= 1.21D-02  0.00D+00 EMaxC= 1.00D+00 BMatC= 9.45D-01 BMatP= 1.81D+00
 IDIUse=1 WtCom= 1.00D+00 WtEn= 0.00D+00
 Coeff-Com:  0.149D+00-0.282D+01 0.367D+01
 Coeff:      0.149D+00-0.282D+01 0.367D+01
 Gap=     0.234 Goal=   None    Shift=    0.500
 T= 1115. Gap= 0.733 NK=4 IS=  110 IE=  121 IFin=  109
          NO(<0.9)=   0  NV(>0.1)=   0    109.00e < EF      0.00e >EF  Err=0.0D+00
 Gap=     0.095 Goal=   None    Shift=    0.500
 T= 1115. Gap= 0.594 NK=4 IS=  109 IE=  121 IFin=  108
          NO(<0.9)=   0  NV(>0.1)=   0    108.00e < EF      0.00e >EF  Err=0.0D+00
 GapD=    0.095 DampG=0.500 DampE=0.500 DampFc=0.2500 IDamp=-1.
 Damping current iteration by 2.50D-01
 RMSDP=2.27D-03 MaxDP=1.89D-01 DE=-1.72D-01 OVMax= 1.21D-02

 Cycle   4  Pass 1  IDiag  1:
 E= -1926.01800293577     Delta-E=       -0.104953890740 Rises=F Damp=T
 DIIS: error= 9.16D-03 at cycle   4 NSaved=   4.
 NSaved= 4 IEnMin= 4 EnMin= -1926.01800293577     IErMin= 4 ErrMin= 9.16D-03
 ErrMax= 9.16D-03  0.00D+00 EMaxC= 1.00D+00 BMatC= 5.13D-01 BMatP= 9.45D-01
 IDIUse=1 WtCom= 1.00D+00 WtEn= 0.00D+00
 Coeff-Com:  0.485D+00-0.670D+00-0.282D+01 0.401D+01
 Coeff:      0.485D+00-0.670D+00-0.282D+01 0.401D+01
 Gap=     0.235 Goal=   None    Shift=    0.500
 T=  974. Gap= 0.735 NK=4 IS=  110 IE=  121 IFin=  109
          NO(<0.9)=   0  NV(>0.1)=   0    109.00e < EF      0.00e >EF  Err=0.0D+00
 Gap=     0.096 Goal=   None    Shift=    0.500
 T=  974. Gap= 0.596 NK=4 IS=  109 IE=  121 IFin=  108
          NO(<0.9)=   0  NV(>0.1)=   0    108.00e < EF      0.00e >EF  Err=0.0D+00
 GapD=    0.096 DampG=0.500 DampE=1.000 DampFc=0.5000 IDamp=-1.
 Damping current iteration by 5.00D-01
 RMSDP=1.68D-03 MaxDP=1.18D-01 DE=-1.05D-01 OVMax= 9.29D-03

 Cycle   5  Pass 1  IDiag  1:
 E= -1926.14765643683     Delta-E=       -0.129653501059 Rises=F Damp=T
 DIIS: error= 4.77D-03 at cycle   5 NSaved=   5.
 NSaved= 5 IEnMin= 5 EnMin= -1926.14765643683     IErMin= 5 ErrMin= 4.77D-03
 ErrMax= 4.77D-03  0.00D+00 EMaxC= 1.00D+00 BMatC= 1.24D-01 BMatP= 5.13D-01
 IDIUse=1 WtCom= 1.00D+00 WtEn= 0.00D+00
 Coeff-Com:  0.456D-01 0.360D+00-0.665D+00-0.970D+00 0.223D+01
 Coeff:      0.456D-01 0.360D+00-0.665D+00-0.970D+00 0.223D+01
 Gap=     0.237 Goal=   None    Shift=    0.500
 T=  753. Gap= 0.737 NK=4 IS=  110 IE=  121 IFin=  109
          NO(<0.9)=   0  NV(>0.1)=   0    109.00e < EF      0.00e >EF  Err=0.0D+00
 Gap=     0.098 Goal=   None    Shift=    0.500
 T=  753. Gap= 0.598 NK=4 IS=  109 IE=  121 IFin=  108
          NO(<0.9)=   0  NV(>0.1)=   0    108.00e < EF      0.00e >EF  Err=0.0D+00
 GapD=    0.098 DampG=0.500 DampE=1.000 DampFc=0.5000 IDamp=-1.
 Damping current iteration by 5.00D-01
 RMSDP=8.64D-04 MaxDP=4.78D-02 DE=-1.30D-01 OVMax= 8.50D-03

 Cycle   6  Pass 1  IDiag  1:
 E= -1926.20173416638     Delta-E=       -0.054077729553 Rises=F Damp=T
 DIIS: error= 2.59D-03 at cycle   6 NSaved=   6.
 NSaved= 6 IEnMin= 6 EnMin= -1926.20173416638     IErMin= 6 ErrMin= 2.59D-03
 ErrMax= 2.59D-03  0.00D+00 EMaxC= 1.00D+00 BMatC= 3.08D-02 BMatP= 1.24D-01
 IDIUse=1 WtCom= 1.00D+00 WtEn= 0.00D+00
 Coeff-Com: -0.525D-01 0.152D+00 0.169D+00-0.107D+00-0.200D+01 0.284D+01
 Coeff:     -0.525D-01 0.152D+00 0.169D+00-0.107D+00-0.200D+01 0.284D+01
 Gap=     0.239 Goal=   None    Shift=    0.500
 T=  479. Gap= 0.739 NK=4 IS=  110 IE=  121 IFin=  109
          NO(<0.9)=   0  NV(>0.1)=   0    109.00e < EF      0.00e >EF  Err=0.0D+00
 Gap=     0.099 Goal=   None    Shift=    0.500
 T=  479. Gap= 0.600 NK=4 IS=  109 IE=  121 IFin=  108
          NO(<0.9)=   0  NV(>0.1)=   0    108.00e < EF      0.00e >EF  Err=0.0D+00
 GapD=    0.099 DampG=0.500 DampE=1.000 DampFc=0.5000 IDamp=-1.
 Damping current iteration by 5.00D-01
 RMSDP=4.72D-04 MaxDP=2.39D-02 DE=-5.41D-02 OVMax= 7.72D-03

 Cycle   7  Pass 1  IDiag  1:
 E= -1926.22647247936     Delta-E=       -0.024738312974 Rises=F Damp=T
 DIIS: error= 1.47D-03 at cycle   7 NSaved=   7.
 NSaved= 7 IEnMin= 7 EnMin= -1926.22647247936     IErMin= 7 ErrMin= 1.47D-03
 ErrMax= 1.47D-03  0.00D+00 EMaxC= 1.00D+00 BMatC= 7.88D-03 BMatP= 3.08D-02
 IDIUse=1 WtCom= 1.00D+00 WtEn= 0.00D+00
 Coeff-Com: -0.268D-02-0.146D+00 0.289D+00 0.407D+00-0.701D+00-0.258D+01
 Coeff-Com:  0.374D+01
 Coeff:     -0.268D-02-0.146D+00 0.289D+00 0.407D+00-0.701D+00-0.258D+01
 Coeff:      0.374D+01
 Gap=     0.240 Goal=   None    Shift=    0.500
 T=  103. Gap= 0.740 NK=4 IS=  110 IE=  121 IFin=  109
          NO(<0.9)=   0  NV(>0.1)=   0    109.00e < EF      0.00e >EF  Err=0.0D+00
 Gap=     0.100 Goal=   None    Shift=    0.500
 T=  103. Gap= 0.600 NK=4 IS=  109 IE=  121 IFin=  108
          NO(<0.9)=   0  NV(>0.1)=   0    108.00e < EF      0.00e >EF  Err=0.0D+00
 GapD=    0.100 DampG=0.500 DampE=1.000 DampFc=0.5000 IDamp=-1.
 Damping current iteration by 5.00D-01
 RMSDP=2.87D-04 MaxDP=1.80D-02 DE=-2.47D-02 OVMax= 8.26D-03

 Cycle   8  Pass 1  IDiag  1:
 E= -1926.23841901671     Delta-E=       -0.011946537352 Rises=F Damp=T
 DIIS: error= 1.10D-03 at cycle   8 NSaved=   8.
 NSaved= 8 IEnMin= 8 EnMin= -1926.23841901671     IErMin= 8 ErrMin= 1.10D-03
 ErrMax= 1.10D-03  0.00D+00 EMaxC= 1.00D+00 BMatC= 2.14D-03 BMatP= 7.88D-03
 IDIUse=1 WtCom= 1.00D+00 WtEn= 0.00D+00
 Coeff-Com:  0.233D-01-0.123D+00 0.523D-01 0.155D+00 0.916D+00-0.258D+01
 Coeff-Com: -0.395D+00 0.296D+01
 Coeff:      0.233D-01-0.123D+00 0.523D-01 0.155D+00 0.916D+00-0.258D+01
 Coeff:     -0.395D+00 0.296D+01
 Gap=     0.242 Goal=   None    Shift=    0.500
 Gap=     0.101 Goal=   None    Shift=    0.500
 GapD=    0.101 DampG=1.000 DampE=1.000 DampFc=1.0000 IDamp=-1.
 RMSDP=1.91D-04 MaxDP=1.31D-02 DE=-1.19D-02 OVMax= 7.81D-03

 Cycle   9  Pass 1  IDiag  1:
 E= -1926.25036893739     Delta-E=       -0.011949920685 Rises=F Damp=F
 DIIS: error= 8.64D-04 at cycle   9 NSaved=   9.
 NSaved= 9 IEnMin= 9 EnMin= -1926.25036893739     IErMin= 9 ErrMin= 8.64D-04
 ErrMax= 8.64D-04  0.00D+00 EMaxC= 1.00D+00 BMatC= 8.84D-05 BMatP= 2.14D-03
 IDIUse=1 WtCom= 1.00D+00 WtEn= 0.00D+00
 Coeff-Com:  0.125D-03 0.249D-01-0.713D-01-0.116D+00 0.610D+00-0.649D-01
 Coeff-Com: -0.786D+00-0.409D+00 0.181D+01
 Coeff:      0.125D-03 0.249D-01-0.713D-01-0.116D+00 0.610D+00-0.649D-01
 Coeff:     -0.786D+00-0.409D+00 0.181D+01
 Gap=     0.243 Goal=   None    Shift=    0.500
 Gap=     0.101 Goal=   None    Shift=    0.500
 RMSDP=4.85D-05 MaxDP=5.21D-03 DE=-1.19D-02 OVMax= 7.61D-03

 Cycle  10  Pass 1  IDiag  1:
 E= -1926.25053563417     Delta-E=       -0.000166696773 Rises=F Damp=F
 DIIS: error= 8.50D-04 at cycle  10 NSaved=  10.
 NSaved=10 IEnMin=10 EnMin= -1926.25053563417     IErMin=10 ErrMin= 8.50D-04
 ErrMax= 8.50D-04  0.00D+00 EMaxC= 1.00D+00 BMatC= 6.34D-05 BMatP= 8.84D-05
 IDIUse=1 WtCom= 1.00D+00 WtEn= 0.00D+00
 Coeff-Com: -0.139D-01 0.543D-01 0.281D-01-0.829D-01-0.768D+00 0.197D+01
 Coeff-Com:  0.174D+00-0.247D+01-0.489D+00 0.260D+01
 Coeff:     -0.139D-01 0.543D-01 0.281D-01-0.829D-01-0.768D+00 0.197D+01
 Coeff:      0.174D+00-0.247D+01-0.489D+00 0.260D+01
 Gap=     0.244 Goal=   None    Shift=    0.500
 Gap=     0.101 Goal=   None    Shift=    0.500
 RMSDP=4.52D-05 MaxDP=4.02D-03 DE=-1.67D-04 OVMax= 8.35D-03

 Cycle  11  Pass 1  IDiag  1:
 E= -1926.25067795945     Delta-E=       -0.000142325288 Rises=F Damp=F
 DIIS: error= 8.59D-04 at cycle  11 NSaved=  11.
 NSaved=11 IEnMin=11 EnMin= -1926.25067795945     IErMin=10 ErrMin= 8.50D-04
 ErrMax= 8.59D-04  0.00D+00 EMaxC= 1.00D+00 BMatC= 5.09D-05 BMatP= 6.34D-05
 IDIUse=1 WtCom= 1.00D+00 WtEn= 0.00D+00
 Coeff-Com: -0.117D-01 0.574D-02 0.126D+00-0.510D-01-0.860D+00 0.154D+01
 Coeff-Com:  0.201D+00-0.136D+01-0.112D+01 0.115D+01 0.138D+01
 Coeff:     -0.117D-01 0.574D-02 0.126D+00-0.510D-01-0.860D+00 0.154D+01
 Coeff:      0.201D+00-0.136D+01-0.112D+01 0.115D+01 0.138D+01
 Gap=     0.245 Goal=   None    Shift=    0.500
 Gap=     0.102 Goal=   None    Shift=    0.500
 RMSDP=3.48D-05 MaxDP=2.67D-03 DE=-1.42D-04 OVMax= 8.04D-03

 Cycle  12  Pass 1  IDiag  1:
 E= -1926.25078698668     Delta-E=       -0.000109027226 Rises=F Damp=F
 DIIS: error= 8.49D-04 at cycle  12 NSaved=  12.
 NSaved=12 IEnMin=12 EnMin= -1926.25078698668     IErMin=12 ErrMin= 8.49D-04
 ErrMax= 8.49D-04  0.00D+00 EMaxC= 1.00D+00 BMatC= 4.16D-05 BMatP= 5.09D-05
 IDIUse=1 WtCom= 1.00D+00 WtEn= 0.00D+00
 Coeff-Com: -0.613D-02-0.322D-01 0.131D+00-0.226D-01-0.197D+00-0.167D+00
 Coeff-Com:  0.733D-01 0.774D+00-0.650D+00-0.792D+00-0.977D+00 0.287D+01
 Coeff:     -0.613D-02-0.322D-01 0.131D+00-0.226D-01-0.197D+00-0.167D+00
 Coeff:      0.733D-01 0.774D+00-0.650D+00-0.792D+00-0.977D+00 0.287D+01
 Gap=     0.246 Goal=   None    Shift=    0.500
 Gap=     0.102 Goal=   None    Shift=    0.500
 RMSDP=3.61D-05 MaxDP=2.36D-03 DE=-1.09D-04 OVMax= 8.96D-03

 Cycle  13  Pass 1  IDiag  1:
 E= -1926.25089003746     Delta-E=       -0.000103050779 Rises=F Damp=F
 DIIS: error= 8.69D-04 at cycle  13 NSaved=  13.
 NSaved=13 IEnMin=13 EnMin= -1926.25089003746     IErMin=12 ErrMin= 8.49D-04
 ErrMax= 8.69D-04  0.00D+00 EMaxC= 1.00D+00 BMatC= 3.92D-05 BMatP= 4.16D-05
 IDIUse=1 WtCom= 1.00D+00 WtEn= 0.00D+00
 Coeff-Com: -0.454D-02-0.102D-01 0.656D-01-0.369D-01 0.507D-01-0.328D+00
 Coeff-Com: -0.177D+00 0.871D+00 0.202D-01-0.469D+00-0.239D+01 0.213D+01
 Coeff-Com:  0.128D+01
 Coeff:     -0.454D-02-0.102D-01 0.656D-01-0.369D-01 0.507D-01-0.328D+00
 Coeff:     -0.177D+00 0.871D+00 0.202D-01-0.469D+00-0.239D+01 0.213D+01
 Coeff:      0.128D+01
 Gap=     0.247 Goal=   None    Shift=    0.500
 Gap=     0.102 Goal=   None    Shift=    0.500
 RMSDP=2.96D-05 MaxDP=1.96D-03 DE=-1.03D-04 OVMax= 8.65D-03

 Cycle  14  Pass 1  IDiag  1:
 E= -1926.25097762955     Delta-E=       -0.000087592092 Rises=F Damp=F
 DIIS: error= 8.72D-04 at cycle  14 NSaved=  14.
 NSaved=14 IEnMin=14 EnMin= -1926.25097762955     IErMin=12 ErrMin= 8.49D-04
 ErrMax= 8.72D-04  0.00D+00 EMaxC= 1.00D+00 BMatC= 3.52D-05 BMatP= 3.92D-05
 IDIUse=1 WtCom= 1.00D+00 WtEn= 0.00D+00
 Coeff-Com:  0.615D-03 0.154D-01-0.162D-01 0.155D-02-0.787D-01 0.235D+00
 Coeff-Com: -0.683D-01-0.325D+00 0.428D+00 0.956D+00-0.202D+01 0.288D+00
 Coeff-Com: -0.133D+01 0.291D+01
 Coeff:      0.615D-03 0.154D-01-0.162D-01 0.155D-02-0.787D-01 0.235D+00
 Coeff:     -0.683D-01-0.325D+00 0.428D+00 0.956D+00-0.202D+01 0.288D+00
 Coeff:     -0.133D+01 0.291D+01
 Gap=     0.248 Goal=   None    Shift=    0.500
 Gap=     0.102 Goal=   None    Shift=    0.500
 RMSDP=3.13D-05 MaxDP=2.06D-03 DE=-8.76D-05 OVMax= 9.31D-03

 Cycle  15  Pass 1  IDiag  1:
 E= -1926.25106306370     Delta-E=       -0.000085434148 Rises=F Damp=F
 DIIS: error= 8.90D-04 at cycle  15 NSaved=  15.
 NSaved=15 IEnMin=15 EnMin= -1926.25106306370     IErMin=12 ErrMin= 8.49D-04
 ErrMax= 8.90D-04  0.00D+00 EMaxC= 1.00D+00 BMatC= 3.57D-05 BMatP= 3.52D-05
 IDIUse=1 WtCom= 1.00D+00 WtEn= 0.00D+00
 Coeff-Com:  0.535D-04 0.131D-01-0.463D-02-0.215D-02-0.121D+00 0.298D+00
 Coeff-Com: -0.607D-01-0.361D+00 0.333D+00 0.979D+00-0.179D+01 0.353D+00
 Coeff-Com: -0.157D+01 0.262D+01 0.314D+00
 Coeff:      0.535D-04 0.131D-01-0.463D-02-0.215D-02-0.121D+00 0.298D+00
 Coeff:     -0.607D-01-0.361D+00 0.333D+00 0.979D+00-0.179D+01 0.353D+00
 Coeff:     -0.157D+01 0.262D+01 0.314D+00
 Gap=     0.248 Goal=   None    Shift=    0.500
 Gap=     0.102 Goal=   None    Shift=    0.500
 RMSDP=2.22D-05 MaxDP=1.42D-03 DE=-8.54D-05 OVMax= 7.90D-03

 Cycle  16  Pass 1  IDiag  1:
 E= -1926.25113217568     Delta-E=       -0.000069111978 Rises=F Damp=F
 DIIS: error= 8.77D-04 at cycle  16 NSaved=  16.
 NSaved=16 IEnMin=16 EnMin= -1926.25113217568     IErMin=12 ErrMin= 8.49D-04
 ErrMax= 8.77D-04  0.00D+00 EMaxC= 1.00D+00 BMatC= 3.13D-05 BMatP= 3.52D-05
 IDIUse=1 WtCom= 1.00D+00 WtEn= 0.00D+00
 Coeff-Com: -0.310D-02 0.521D-02 0.166D-01 0.151D-01-0.135D+00 0.489D-01
 Coeff-Com:  0.261D+00-0.286D+00 0.671D-01 0.299D+00-0.400D+00-0.640D-01
 Coeff-Com: -0.793D+00 0.150D+01-0.140D+01 0.187D+01
 Coeff:     -0.310D-02 0.521D-02 0.166D-01 0.151D-01-0.135D+00 0.489D-01
 Coeff:      0.261D+00-0.286D+00 0.671D-01 0.299D+00-0.400D+00-0.640D-01
 Coeff:     -0.793D+00 0.150D+01-0.140D+01 0.187D+01
 Gap=     0.249 Goal=   None    Shift=    0.500
 Gap=     0.102 Goal=   None    Shift=    0.500
 RMSDP=2.13D-05 MaxDP=1.35D-03 DE=-6.91D-05 OVMax= 7.72D-03

 Cycle  17  Pass 1  IDiag  1:
 E= -1926.25119708237     Delta-E=       -0.000064906695 Rises=F Damp=F
 DIIS: error= 8.75D-04 at cycle  17 NSaved=  17.
 NSaved=17 IEnMin=17 EnMin= -1926.25119708237     IErMin=12 ErrMin= 8.49D-04
 ErrMax= 8.75D-04  0.00D+00 EMaxC= 1.00D+00 BMatC= 2.98D-05 BMatP= 3.13D-05
 IDIUse=1 WtCom= 1.00D+00 WtEn= 0.00D+00
 Coeff-Com: -0.392D-02 0.534D-02 0.176D-01 0.142D-01-0.109D+00-0.282D-01
 Coeff-Com:  0.276D+00-0.202D+00 0.640D-01 0.141D+00-0.325D+00-0.976D-01
 Coeff-Com: -0.370D+00 0.122D+01-0.147D+01 0.127D+01 0.603D+00
 Coeff:     -0.392D-02 0.534D-02 0.176D-01 0.142D-01-0.109D+00-0.282D-01
 Coeff:      0.276D+00-0.202D+00 0.640D-01 0.141D+00-0.325D+00-0.976D-01
 Coeff:     -0.370D+00 0.122D+01-0.147D+01 0.127D+01 0.603D+00
 Gap=     0.249 Goal=   None    Shift=    0.500
 Gap=     0.102 Goal=   None    Shift=    0.500
 RMSDP=1.74D-05 MaxDP=1.03D-03 DE=-6.49D-05 OVMax= 6.80D-03

 Cycle  18  Pass 1  IDiag  1:
 E= -1926.25125256154     Delta-E=       -0.000055479164 Rises=F Damp=F
 DIIS: error= 8.61D-04 at cycle  18 NSaved=  18.
 NSaved=18 IEnMin=18 EnMin= -1926.25125256154     IErMin=12 ErrMin= 8.49D-04
 ErrMax= 8.61D-04  0.00D+00 EMaxC= 1.00D+00 BMatC= 2.88D-05 BMatP= 2.98D-05
 IDIUse=1 WtCom= 1.00D+00 WtEn= 0.00D+00
 Coeff-Com: -0.518D-02 0.341D-02 0.292D-01 0.106D-01-0.126D+00-0.514D-01
 Coeff-Com:  0.341D+00-0.194D+00-0.352D-01 0.375D-01-0.783D-01-0.197D-01
 Coeff-Com: -0.413D+00 0.150D+01-0.367D+01 0.273D+01 0.312D+01-0.218D+01
 Coeff:     -0.518D-02 0.341D-02 0.292D-01 0.106D-01-0.126D+00-0.514D-01
 Coeff:      0.341D+00-0.194D+00-0.352D-01 0.375D-01-0.783D-01-0.197D-01
 Coeff:     -0.413D+00 0.150D+01-0.367D+01 0.273D+01 0.312D+01-0.218D+01
 Gap=     0.249 Goal=   None    Shift=    0.500
 Gap=     0.103 Goal=   None    Shift=    0.500
 RMSDP=1.15D-05 MaxDP=6.39D-04 DE=-5.55D-05 OVMax= 5.03D-03

 Cycle  19  Pass 1  IDiag  1:
 E= -1926.25129075366     Delta-E=       -0.000038192119 Rises=F Damp=F
 DIIS: error= 8.23D-04 at cycle  19 NSaved=  19.
 NSaved=19 IEnMin=19 EnMin= -1926.25129075366     IErMin=19 ErrMin= 8.23D-04
 ErrMax= 8.23D-04  0.00D+00 EMaxC= 1.00D+00 BMatC= 3.23D-05 BMatP= 2.88D-05
 IDIUse=1 WtCom= 1.00D+00 WtEn= 0.00D+00
 Large coefficients: NSaved= 19 BigCof=   11.56 CofMax=   10.00 Det=-2.93D-09
 Inversion failed.  Reducing to 18 matrices.
 Large coefficients: NSaved= 18 BigCof=   10.30 CofMax=   10.00 Det=-3.09D-09
 Inversion failed.  Reducing to 17 matrices.
 Large coefficients: NSaved= 17 BigCof=   10.10 CofMax=   10.00 Det=-3.16D-09
 Inversion failed.  Reducing to 16 matrices.
 Large coefficients: NSaved= 16 BigCof=   10.16 CofMax=   10.00 Det=-3.17D-09
 Inversion failed.  Reducing to 15 matrices.
 Large coefficients: NSaved= 15 BigCof=   10.50 CofMax=   10.00 Det=-3.18D-09
 Inversion failed.  Reducing to 14 matrices.
 Large coefficients: NSaved= 14 BigCof=   10.17 CofMax=   10.00 Det=-3.18D-09
 Inversion failed.  Reducing to 13 matrices.
 Coeff-Com:  0.135D+00-0.268D+00 0.165D+00 0.991D-01 0.114D+00-0.336D+00
 Coeff-Com: -0.786D+00 0.127D+01-0.272D+01 0.139D+01 0.833D+01-0.865D+01
 Coeff-Com:  0.225D+01
 Coeff:      0.135D+00-0.268D+00 0.165D+00 0.991D-01 0.114D+00-0.336D+00
 Coeff:     -0.786D+00 0.127D+01-0.272D+01 0.139D+01 0.833D+01-0.865D+01
 Coeff:      0.225D+01
 Gap=     0.248 Goal=   None    Shift=    0.500
 Gap=     0.103 Goal=   None    Shift=    0.500
 RMSDP=8.41D-06 MaxDP=5.90D-04 DE=-3.82D-05 OVMax= 3.06D-03

 Cycle  20  Pass 1  IDiag  1:
 E= -1926.25130894422     Delta-E=       -0.000018190566 Rises=F Damp=F
 DIIS: error= 7.74D-04 at cycle  20 NSaved=  14.
 NSaved=14 IEnMin=14 EnMin= -1926.25130894422     IErMin=14 ErrMin= 7.74D-04
 ErrMax= 7.74D-04  0.00D+00 EMaxC= 1.00D+00 BMatC= 4.52D-05 BMatP= 2.88D-05
 IDIUse=1 WtCom= 1.00D+00 WtEn= 0.00D+00
 Large coefficients: NSaved= 14 BigCof=   11.27 CofMax=   10.00 Det=-4.07D-09
 Inversion failed.  Reducing to 13 matrices.
 Large coefficients: NSaved= 13 BigCof=   10.89 CofMax=   10.00 Det=-4.10D-09
 Inversion failed.  Reducing to 12 matrices.
 Large coefficients: NSaved= 12 BigCof=   10.94 CofMax=   10.00 Det=-4.15D-09
 Inversion failed.  Reducing to 11 matrices.
 Large coefficients: NSaved= 11 BigCof=   11.02 CofMax=   10.00 Det=-4.15D-09
 Inversion failed.  Reducing to 10 matrices.
 Coeff-Com:  0.230D+00-0.365D+00-0.719D+00 0.525D+00-0.612D+00-0.642D+00
 Coeff-Com:  0.973D+01-0.837D+01-0.680D+00 0.191D+01
 Coeff:      0.230D+00-0.365D+00-0.719D+00 0.525D+00-0.612D+00-0.642D+00
 Coeff:      0.973D+01-0.837D+01-0.680D+00 0.191D+01
 Gap=     0.248 Goal=   None    Shift=    0.500
 Gap=     0.103 Goal=   None    Shift=    0.500
 RMSDP=6.48D-06 MaxDP=4.77D-04 DE=-1.82D-05 OVMax= 1.99D-03

 Cycle  21  Pass 1  IDiag  1:
 E= -1926.25131713516     Delta-E=       -0.000008190937 Rises=F Damp=F
 DIIS: error= 7.34D-04 at cycle  21 NSaved=  11.
 NSaved=11 IEnMin=11 EnMin= -1926.25131713516     IErMin=11 ErrMin= 7.34D-04
 ErrMax= 7.34D-04  0.00D+00 EMaxC= 1.00D+00 BMatC= 6.11D-05 BMatP= 2.88D-05
 IDIUse=1 WtCom= 1.00D+00 WtEn= 0.00D+00
 Coeff-Com:  0.205D+00-0.338D+00-0.664D+00 0.739D+00-0.170D+01 0.975D-01
 Coeff-Com:  0.994D+01-0.705D+01-0.217D+01 0.761D+00 0.117D+01
 Coeff:      0.205D+00-0.338D+00-0.664D+00 0.739D+00-0.170D+01 0.975D-01
 Coeff:      0.994D+01-0.705D+01-0.217D+01 0.761D+00 0.117D+01
 Gap=     0.248 Goal=   None    Shift=    0.500
 Gap=     0.103 Goal=   None    Shift=    0.500
 RMSDP=4.73D-06 MaxDP=3.89D-04 DE=-8.19D-06 OVMax= 1.31D-03

 Cycle  22  Pass 1  IDiag  1:
 E= -1926.25132037165     Delta-E=       -0.000003236491 Rises=F Damp=F
 DIIS: error= 7.03D-04 at cycle  22 NSaved=  12.
 NSaved=12 IEnMin=12 EnMin= -1926.25132037165     IErMin=12 ErrMin= 7.03D-04
 ErrMax= 7.03D-04  0.00D+00 EMaxC= 1.00D+00 BMatC= 7.59D-05 BMatP= 2.88D-05
 IDIUse=1 WtCom= 1.00D+00 WtEn= 0.00D+00
 Coeff-Com:  0.218D-01-0.589D-01-0.598D+00 0.151D+01-0.493D+01 0.279D+01
 Coeff-Com:  0.885D+01-0.347D+01-0.411D+01-0.109D+01-0.196D+00 0.228D+01
 Coeff:      0.218D-01-0.589D-01-0.598D+00 0.151D+01-0.493D+01 0.279D+01
 Coeff:      0.885D+01-0.347D+01-0.411D+01-0.109D+01-0.196D+00 0.228D+01
 Gap=     0.248 Goal=   None    Shift=    0.500
 Gap=     0.103 Goal=   None    Shift=    0.500
 RMSDP=4.72D-06 MaxDP=3.51D-04 DE=-3.24D-06 OVMax= 5.97D-04

 Cycle  23  Pass 1  IDiag  1:
 E= -1926.25131774586     Delta-E=        0.000002625792 Rises=F Damp=F
 DIIS: error= 6.76D-04 at cycle  23 NSaved=  13.
 NSaved=13 IEnMin=12 EnMin= -1926.25132037165     IErMin=13 ErrMin= 6.76D-04
 ErrMax= 6.76D-04  0.00D+00 EMaxC= 1.00D+00 BMatC= 8.99D-05 BMatP= 2.88D-05
 IDIUse=1 WtCom= 1.00D+00 WtEn= 0.00D+00
 Coeff-Com: -0.631D-01 0.243D+00-0.844D+00 0.219D+01-0.815D+01 0.601D+01
 Coeff-Com:  0.883D+01-0.319D+01-0.332D+01-0.224D+01-0.153D+01-0.288D+00
 Coeff-Com:  0.335D+01
 Coeff:     -0.631D-01 0.243D+00-0.844D+00 0.219D+01-0.815D+01 0.601D+01
 Coeff:      0.883D+01-0.319D+01-0.332D+01-0.224D+01-0.153D+01-0.288D+00
 Coeff:      0.335D+01
 Gap=     0.247 Goal=   None    Shift=    0.000
 Gap=     0.103 Goal=   None    Shift=    0.000
 RMSDP=1.70D-05 MaxDP=1.31D-03 DE= 2.63D-06 OVMax= 2.88D-03

 Cycle  24  Pass 1  IDiag  1:
 E= -1926.25128537573     Delta-E=        0.000032370130 Rises=F Damp=F
 DIIS: error= 6.19D-04 at cycle  24 NSaved=  14.
 NSaved=14 IEnMin=12 EnMin= -1926.25132037165     IErMin=14 ErrMin= 6.19D-04
 ErrMax= 6.19D-04  0.00D+00 EMaxC= 1.00D+00 BMatC= 1.11D-04 BMatP= 2.88D-05
 IDIUse=1 WtCom= 1.00D+00 WtEn= 0.00D+00
 Large coefficients: NSaved= 14 BigCof=   15.58 CofMax=   10.00 Det=-2.06D-09
 Inversion failed.  Reducing to 13 matrices.
 Large coefficients: NSaved= 13 BigCof=   12.85 CofMax=   10.00 Det=-4.93D-09
 Inversion failed.  Reducing to 12 matrices.
 Large coefficients: NSaved= 12 BigCof=   13.11 CofMax=   10.00 Det=-5.01D-09
 Inversion failed.  Reducing to 11 matrices.
 Large coefficients: NSaved= 11 BigCof=   11.03 CofMax=   10.00 Det=-5.23D-09
 Inversion failed.  Reducing to 10 matrices.
 Large coefficients: NSaved= 10 BigCof=   10.93 CofMax=   10.00 Det=-5.25D-09
 Inversion failed.  Reducing to  9 matrices.
 Coeff-Com: -0.115D+01 0.557D+01-0.606D+01 0.281D+01 0.209D+01 0.647D+00
 Coeff-Com: -0.641D+01 0.117D+01 0.234D+01
 Coeff:     -0.115D+01 0.557D+01-0.606D+01 0.281D+01 0.209D+01 0.647D+00
 Coeff:     -0.641D+01 0.117D+01 0.234D+01
 Gap=     0.247 Goal=   None    Shift=    0.000
 Gap=     0.102 Goal=   None    Shift=    0.000
 RMSDP=9.92D-06 MaxDP=7.12D-04 DE= 3.24D-05 OVMax= 2.22D-03

 Cycle  25  Pass 1  IDiag  1:
 E= -1926.25129505203     Delta-E=       -0.000009676300 Rises=F Damp=F
 DIIS: error= 6.18D-04 at cycle  25 NSaved=  10.
 NSaved=10 IEnMin= 7 EnMin= -1926.25132037165     IErMin=10 ErrMin= 6.18D-04
 ErrMax= 6.18D-04  0.00D+00 EMaxC= 1.00D+00 BMatC= 1.06D-04 BMatP= 2.88D-05
 IDIUse=1 WtCom= 1.00D+00 WtEn= 0.00D+00
 Coeff-Com: -0.155D+01 0.678D+01-0.703D+01 0.263D+01 0.220D+01 0.932D+00
 Coeff-Com: -0.570D+01 0.243D+00 0.214D+01 0.358D+00
 Coeff:     -0.155D+01 0.678D+01-0.703D+01 0.263D+01 0.220D+01 0.932D+00
 Coeff:     -0.570D+01 0.243D+00 0.214D+01 0.358D+00
 Gap=     0.247 Goal=   None    Shift=    0.000
 Gap=     0.102 Goal=   None    Shift=    0.000
 RMSDP=3.90D-06 MaxDP=2.95D-04 DE=-9.68D-06 OVMax= 7.89D-04

 Cycle  26  Pass 1  IDiag  1:
 E= -1926.25128697906     Delta-E=        0.000008072971 Rises=F Damp=F
 DIIS: error= 6.14D-04 at cycle  26 NSaved=  11.
 NSaved=11 IEnMin= 7 EnMin= -1926.25132037165     IErMin=11 ErrMin= 6.14D-04
 ErrMax= 6.14D-04  0.00D+00 EMaxC= 1.00D+00 BMatC= 1.05D-04 BMatP= 2.88D-05
 IDIUse=1 WtCom= 1.00D+00 WtEn= 0.00D+00
 Coeff-Com: -0.154D+01 0.714D+01-0.802D+01 0.347D+01 0.258D+01 0.935D+00
 Coeff-Com: -0.716D+01 0.815D+00 0.258D+01 0.147D+01-0.127D+01
 Coeff:     -0.154D+01 0.714D+01-0.802D+01 0.347D+01 0.258D+01 0.935D+00
 Coeff:     -0.716D+01 0.815D+00 0.258D+01 0.147D+01-0.127D+01
 Gap=     0.247 Goal=   None    Shift=    0.000
 Gap=     0.102 Goal=   None    Shift=    0.000
 RMSDP=3.86D-06 MaxDP=2.36D-04 DE= 8.07D-06 OVMax= 1.41D-03

 Cycle  27  Pass 1  IDiag  1:
 E= -1926.25127764402     Delta-E=        0.000009335036 Rises=F Damp=F
 DIIS: error= 6.14D-04 at cycle  27 NSaved=  12.
 NSaved=12 IEnMin= 7 EnMin= -1926.25132037165     IErMin=12 ErrMin= 6.14D-04
 ErrMax= 6.14D-04  0.00D+00 EMaxC= 1.00D+00 BMatC= 1.04D-04 BMatP= 2.88D-05
 IDIUse=1 WtCom= 1.00D+00 WtEn= 0.00D+00
 Large coefficients: NSaved= 12 BigCof=   12.07 CofMax=   10.00 Det=-5.62D-09
 Inversion failed.  Reducing to 11 matrices.
 Coeff-Com:  0.337D+01-0.605D+01 0.403D+01 0.257D+01 0.103D+01-0.697D+01
 Coeff-Com: -0.133D+00 0.246D+01 0.441D+01-0.807D+01 0.436D+01
 Coeff:      0.337D+01-0.605D+01 0.403D+01 0.257D+01 0.103D+01-0.697D+01
 Coeff:     -0.133D+00 0.246D+01 0.441D+01-0.807D+01 0.436D+01
 Gap=     0.247 Goal=   None    Shift=    0.000
 Gap=     0.103 Goal=   None    Shift=    0.000
 RMSDP=6.42D-06 MaxDP=3.91D-04 DE= 9.34D-06 OVMax= 1.83D-03

 Cycle  28  Pass 1  IDiag  1:
 E= -1926.25126775445     Delta-E=        0.000009889573 Rises=F Damp=F
 DIIS: error= 6.13D-04 at cycle  28 NSaved=  12.
 NSaved=12 IEnMin= 6 EnMin= -1926.25132037165     IErMin=12 ErrMin= 6.13D-04
 ErrMax= 6.13D-04  0.00D+00 EMaxC= 1.00D+00 BMatC= 1.02D-04 BMatP= 2.88D-05
 IDIUse=1 WtCom= 1.00D+00 WtEn= 0.00D+00
 Coeff-Com:  0.381D+01-0.568D+01 0.251D+01 0.186D+01 0.136D+01-0.328D+01
 Coeff-Com: -0.254D+01 0.141D+01 0.427D+01-0.916D+01 0.533D+01 0.110D+01
 Coeff:      0.381D+01-0.568D+01 0.251D+01 0.186D+01 0.136D+01-0.328D+01
 Coeff:     -0.254D+01 0.141D+01 0.427D+01-0.916D+01 0.533D+01 0.110D+01
 Gap=     0.247 Goal=   None    Shift=    0.000
 Gap=     0.103 Goal=   None    Shift=    0.000
 RMSDP=1.76D-05 MaxDP=9.38D-04 DE= 9.89D-06 OVMax= 6.08D-03

 Cycle  29  Pass 1  IDiag  1:
 E= -1926.25122018355     Delta-E=        0.000047570900 Rises=F Damp=F
 DIIS: error= 6.04D-04 at cycle  29 NSaved=  13.
 NSaved=13 IEnMin= 6 EnMin= -1926.25132037165     IErMin=13 ErrMin= 6.04D-04
 ErrMax= 6.04D-04  0.00D+00 EMaxC= 1.00D+00 BMatC= 9.89D-05 BMatP= 2.88D-05
 IDIUse=1 WtCom= 1.00D+00 WtEn= 0.00D+00
 Coeff-Com:  0.156D+01 0.747D+00-0.282D+01-0.725D-01 0.109D+01 0.294D+01
 Coeff-Com: -0.372D+01-0.711D+00 0.438D-01-0.419D+01 0.255D+01 0.827D+00
 Coeff-Com:  0.276D+01
 Coeff:      0.156D+01 0.747D+00-0.282D+01-0.725D-01 0.109D+01 0.294D+01
 Coeff:     -0.372D+01-0.711D+00 0.438D-01-0.419D+01 0.255D+01 0.827D+00
 Coeff:      0.276D+01
 Gap=     0.245 Goal=   None    Shift=    0.000
 Gap=     0.103 Goal=   None    Shift=    0.000
 RMSDP=4.22D-05 MaxDP=2.29D-03 DE= 4.76D-05 OVMax= 1.46D-02

 Cycle  30  Pass 1  IDiag  1:
 E= -1926.25111180428     Delta-E=        0.000108379269 Rises=F Damp=F
 DIIS: error= 5.80D-04 at cycle  30 NSaved=  14.
 NSaved=14 IEnMin= 6 EnMin= -1926.25132037165     IErMin=14 ErrMin= 5.80D-04
 ErrMax= 5.80D-04  0.00D+00 EMaxC= 1.00D+00 BMatC= 9.41D-05 BMatP= 2.88D-05
 IDIUse=1 WtCom= 1.00D+00 WtEn= 0.00D+00
 Coeff-Com: -0.113D+01 0.417D+01-0.311D+01 0.866D+00 0.931D+00-0.285D+01
 Coeff-Com:  0.163D+01 0.327D+00-0.566D+01 0.814D+01-0.543D+01-0.173D+01
 Coeff-Com:  0.248D+01 0.236D+01
 Coeff:     -0.113D+01 0.417D+01-0.311D+01 0.866D+00 0.931D+00-0.285D+01
 Coeff:      0.163D+01 0.327D+00-0.566D+01 0.814D+01-0.543D+01-0.173D+01
 Coeff:      0.248D+01 0.236D+01
 Gap=     0.242 Goal=   None    Shift=    0.000
 Gap=     0.103 Goal=   None    Shift=    0.000
 RMSDP=8.90D-05 MaxDP=5.08D-03 DE= 1.08D-04 OVMax= 3.05D-02

 Cycle  31  Pass 1  IDiag  1:
 E= -1926.25089620119     Delta-E=        0.000215603088 Rises=F Damp=F
 DIIS: error= 5.24D-04 at cycle  31 NSaved=  15.
 NSaved=15 IEnMin= 6 EnMin= -1926.25132037165     IErMin=15 ErrMin= 5.24D-04
 ErrMax= 5.24D-04  0.00D+00 EMaxC= 1.00D+00 BMatC= 9.21D-05 BMatP= 2.88D-05
 IDIUse=1 WtCom= 1.00D+00 WtEn= 0.00D+00
 Large coefficients: NSaved= 15 BigCof=   17.61 CofMax=   10.00 Det=-3.63D-09
 Inversion failed.  Reducing to 14 matrices.
 Large coefficients: NSaved= 14 BigCof=   17.35 CofMax=   10.00 Det=-4.12D-09
 Inversion failed.  Reducing to 13 matrices.
 Large coefficients: NSaved= 13 BigCof=   10.09 CofMax=   10.00 Det=-5.10D-09
 Inversion failed.  Reducing to 12 matrices.
 Large coefficients: NSaved= 12 BigCof=   11.71 CofMax=   10.00 Det=-5.10D-09
 Inversion failed.  Reducing to 11 matrices.
 Coeff-Com:  0.989D+00 0.170D+01 0.676D+00-0.489D+01 0.382D+00 0.136D+01
 Coeff-Com: -0.224D+01 0.244D+01-0.184D+01 0.112D+01 0.130D+01
 Coeff:      0.989D+00 0.170D+01 0.676D+00-0.489D+01 0.382D+00 0.136D+01
 Coeff:     -0.224D+01 0.244D+01-0.184D+01 0.112D+01 0.130D+01
 Gap=     0.239 Goal=   None    Shift=    0.000
 Gap=     0.103 Goal=   None    Shift=    0.000
 RMSDP=9.44D-05 MaxDP=5.89D-03 DE= 2.16D-04 OVMax= 3.21D-02

 Cycle  32  Pass 1  IDiag  1:
 E= -1926.25068558689     Delta-E=        0.000210614297 Rises=F Damp=F
 DIIS: error= 4.67D-04 at cycle  32 NSaved=  12.
 NSaved=12 IEnMin= 4 EnMin= -1926.25132037165     IErMin=12 ErrMin= 4.67D-04
 ErrMax= 4.67D-04  0.00D+00 EMaxC= 1.00D+00 BMatC= 8.44D-05 BMatP= 3.23D-05
 IDIUse=1 WtCom= 1.00D+00 WtEn= 0.00D+00
 Coeff-Com:  0.128D+01 0.165D+01-0.139D+00-0.514D+01 0.185D+01 0.173D+01
 Coeff-Com: -0.504D+01 0.816D+01-0.519D+01-0.456D+00 0.997D+00 0.130D+01
 Coeff:      0.128D+01 0.165D+01-0.139D+00-0.514D+01 0.185D+01 0.173D+01
 Coeff:     -0.504D+01 0.816D+01-0.519D+01-0.456D+00 0.997D+00 0.130D+01
 Gap=     0.234 Goal=   None    Shift=    0.000
 Gap=     0.104 Goal=   None    Shift=    0.000
 RMSDP=1.70D-04 MaxDP=1.10D-02 DE= 2.11D-04 OVMax= 5.83D-02

 >>>>>>>>>> Convergence criterion not met.
 SCF Done:  E(ULC-wHPBE) =  -1926.25068559     A.U. after   33 cycles
            NFock= 32  Conv=0.17D-03     -V/T= 2.0034
 <Sx>= 0.0000 <Sy>= 0.0000 <Sz>= 0.5000 <S**2>= 0.7569 S= 0.5034
 <L.S>= 0.000000000000E+00
 KE= 1.919701612502D+03 PE=-1.015256406064D+04 EE= 3.479365482472D+03
 Annihilation of the first spin contaminant:
 S**2 before annihilation     0.7569,   after     0.7500
 Leave Link  502 at Mon Jan 18 05:19:08 2021, MaxMem=  4026531840 cpu:           16407.1 elap:            2056.3
 (Enter /opt/ohpc/pub/libs/gaussian/g16-A.03/sandybridge/g16/l508.exe)
 Integral symmetry usage will be decided dynamically.
 Tight linear equation convergence will be used.
 ULC-wHPBE wavefunction.
 Quadratic Convergence SCF Method.
 Line search only if initial step raises energy.
 FoFJK:  IHMeth= 1 ICntrl=       0 DoSepK=T KAlg= 0 I1Cent=           0 FoldK=F
 IRaf=         1 NMat=       1 IRICut=       1 DoRegI=T DoRafI=F ISym2E= 1 IDoP0=0 IntGTp=1.
 FoFCou: FMM=F IPFlag=           0 FMFlag=      100000 FMFlg1=           0
         NFxFlg=           0 DoJE=T BraDBF=F KetDBF=F FulRan=T
         wScrn=  0.000000 ICntrl=       500 IOpCl=  0 I1Cent=           0 NGrid=           0
         NMat0=    1 NMatS0=      1 NMatT0=    0 NMatD0=    1 NMtDS0=    0 NMtDT0=    0
 Petite list used in FoFCou.
 Iteration   1 EE= -1926.25034233204                                    Grad=7.418D-03 Max rot=    0.0787 deg.
 QCNR:  CnvC1=7.42D-08 CnvC2=7.42D-07
 LinEq1:  Iter=  0 NonCon=     1 RMS=5.19D-05 Max=1.33D-02 NDo=     1
 AX will form     1 AO Fock derivatives at one time.
 LinEq1:  Iter=  1 NonCon=     1 RMS=7.44D-05 Max=1.58D-02 NDo=     1
 LinEq1:  Iter=  2 NonCon=     1 RMS=1.89D-05 Max=1.74D-03 NDo=     1
 LinEq1:  Iter=  3 NonCon=     1 RMS=1.53D-05 Max=1.62D-03 NDo=     1
 LinEq1:  Iter=  4 NonCon=     1 RMS=9.76D-06 Max=6.94D-04 NDo=     1
 LinEq1:  Iter=  5 NonCon=     1 RMS=5.39D-06 Max=3.06D-04 NDo=     1
 LinEq1:  Iter=  6 NonCon=     1 RMS=3.06D-06 Max=2.39D-04 NDo=     1
 LinEq1:  Iter=  7 NonCon=     1 RMS=2.16D-06 Max=1.74D-04 NDo=     1
 LinEq1:  Iter=  8 NonCon=     1 RMS=1.19D-06 Max=7.81D-05 NDo=     1
 LinEq1:  Iter=  9 NonCon=     1 RMS=7.16D-07 Max=5.35D-05 NDo=     1
 LinEq1:  Iter= 10 NonCon=     1 RMS=3.90D-07 Max=1.99D-05 NDo=     1
 LinEq1:  Iter= 11 NonCon=     1 RMS=1.71D-07 Max=7.17D-06 NDo=     1
 LinEq1:  Iter= 12 NonCon=     1 RMS=1.10D-07 Max=6.76D-06 NDo=     1
 LinEq1:  Iter= 13 NonCon=     1 RMS=6.12D-08 Max=4.04D-06 NDo=     1
 LinEq1:  Iter= 14 NonCon=     1 RMS=3.82D-08 Max=2.25D-06 NDo=     1
 LinEq1:  Iter= 15 NonCon=     1 RMS=2.19D-08 Max=1.51D-06 NDo=     1
 LinEq1:  Iter= 16 NonCon=     1 RMS=1.29D-08 Max=1.16D-06 NDo=     1
 LinEq1:  Iter= 17 NonCon=     1 RMS=6.83D-09 Max=8.22D-07 NDo=     1
 LinEq1:  Iter= 18 NonCon=     0 RMS=3.89D-09 Max=4.61D-07 NDo=     1
 Linear equations converged to 7.418D-08 7.418D-07 after    18 iterations.
 Angle between quadratic step and gradient= 108.18 degrees.
 Incorrect curvature in search direction -- initial direction reversed.
     ILin= 1 X=0.000D+00 Y=-1.926250342332D+03 DE= 0.00D+00 F= -2.77D-03
     ILin= 2 X=1.000D+00 Y=-1.926253702874D+03 DE=-3.36D-03 F= -2.82D-03
     ILin= 3 X=1.400D+00 Y=-1.926254790414D+03 DE=-4.45D-03 F= -2.81D-03
     ILin= 4 X=2.000D+00 Y=-1.926256211139D+03 DE=-5.87D-03 F= -1.66D-04
     Reject lnstep minimum 2.045D+00 FVal=-1.926256217284D+03 Lims=  1.40D+00  2.00D+00
     ILin= 5 X=2.800D+00 Y=-1.926243718558D+03 DE= 6.62D-03 F=  4.12D-02
     An  expanding polynomial of degree  5 produced  1.9560
     Minimum is close to point  4 DX= -4.40D-02 DF= -1.74D-05 DXR=  2.25D-02 DFR=  2.97D-03 which will be used.
 Iteration   2 EE= -1926.25621113938     Delta-E=       -0.005868807338 Grad=8.671D-02 Max rot=    0.3433 deg.
 Gradient too large for Newton-Raphson -- use scaled steepest descent instead.
     ILin= 1 X=0.000D+00 Y=-1.926256211139D+03 DE= 0.00D+00 F= -1.03D-02
     ILin= 2 X=3.000D-01 Y=-1.926258783968D+03 DE=-2.57D-03 F= -6.83D-03
     ILin= 3 X=6.000D-01 Y=-1.926260308205D+03 DE=-4.10D-03 F= -3.33D-03
     ILin= 4 X=1.200D+00 Y=-1.926260210579D+03 DE=-4.00D-03 F=  3.66D-03
     An  expanding polynomial of degree  4 produced  0.8860
 Iteration   3 EE= -1926.26078487286     Delta-E=       -0.004573733483 Grad=3.522D-02 Max rot=    0.3794 deg.
 Gradient too large for Newton-Raphson -- use scaled steepest descent instead.
     ILin= 1 X=0.000D+00 Y=-1.926260784873D+03 DE= 0.00D+00 F= -1.75D-03
     ILin= 2 X=5.000D-01 Y=-1.926261498007D+03 DE=-7.13D-04 F= -1.10D-03
     ILin= 3 X=1.000D+00 Y=-1.926261883846D+03 DE=-1.10D-03 F= -4.45D-04
     ILin= 4 X=2.100D+00 Y=-1.926261583984D+03 DE=-7.99D-04 F=  9.89D-04
     An  expanding polynomial of degree  4 produced  1.3407
 Iteration   4 EE= -1926.26195960604     Delta-E=       -0.001174733178 Grad=2.965D-02 Max rot=    0.1552 deg.
 Gradient too large for Newton-Raphson -- use scaled steepest descent instead.
     ILin= 1 X=0.000D+00 Y=-1.926261959606D+03 DE= 0.00D+00 F= -1.18D-03
     ILin= 2 X=1.100D+00 Y=-1.926262514405D+03 DE=-5.55D-04 F=  1.68D-04
     Accept linear search using points  1 and  2.
     An  expanding polynomial of degree  2 produced  0.9864
 Iteration   5 EE= -1926.26252557292     Delta-E=       -0.000565966887 Grad=1.760D-02 Max rot=    0.2764 deg.
 Gradient too large for Newton-Raphson -- use scaled steepest descent instead.
     ILin= 1 X=0.000D+00 Y=-1.926262525573D+03 DE= 0.00D+00 F= -5.09D-04
     ILin= 2 X=1.200D+00 Y=-1.926262853374D+03 DE=-3.28D-04 F= -3.74D-05
     Reject lnstep minimum 1.252D+00 FVal=-1.926262854194D+03 Lims=  0.00D+00  1.20D+00
     ILin= 3 X=2.300D+00 Y=-1.926262657564D+03 DE=-1.32D-04 F=  3.93D-04
     An  expanding polynomial of degree  3 produced  1.2963
     Minimum is close to point  2 DX=  9.63D-02 DF= -1.82D-06 DXR=  7.43D-02 DFR=  5.55D-03 which will be used.
 Iteration   6 EE= -1926.26285337355     Delta-E=       -0.000327800626 Grad=1.554D-02 Max rot=    0.1286 deg.
 Gradient too large for Newton-Raphson -- use scaled steepest descent instead.
     ILin= 1 X=0.000D+00 Y=-1.926262853374D+03 DE= 0.00D+00 F= -3.58D-04
     ILin= 2 X=1.100D+00 Y=-1.926263062478D+03 DE=-2.09D-04 F= -2.21D-05
     Reject lnstep minimum 1.153D+00 FVal=-1.926263063009D+03 Lims=  0.00D+00  1.10D+00
     ILin= 3 X=2.300D+00 Y=-1.926262868677D+03 DE=-1.53D-05 F=  3.45D-04
     An  expanding polynomial of degree  3 produced  1.1718
     Minimum is close to point  2 DX=  7.18D-02 DF= -7.87D-07 DXR=  6.12D-02 DFR=  3.76D-03 which will be used.
 Iteration   7 EE= -1926.26306247797     Delta-E=       -0.000209104421 Grad=1.154D-02 Max rot=    0.1970 deg.
 Gradient too large for Newton-Raphson -- use scaled steepest descent instead.
     ILin= 1 X=0.000D+00 Y=-1.926263062478D+03 DE= 0.00D+00 F= -2.23D-04
     ILin= 2 X=1.200D+00 Y=-1.926263206760D+03 DE=-1.44D-04 F= -1.72D-05
     Reject lnstep minimum 1.255D+00 FVal=-1.926263207157D+03 Lims=  0.00D+00  1.20D+00
     ILin= 3 X=2.500D+00 Y=-1.926263084503D+03 DE=-2.20D-05 F=  2.05D-04
     An  expanding polynomial of degree  3 produced  1.3014
     Minimum is close to point  2 DX=  1.01D-01 DF= -8.81D-07 DXR=  7.79D-02 DFR=  6.11D-03 which will be used.
 Iteration   8 EE= -1926.26320676050     Delta-E=       -0.000144282528 Grad=1.058D-02 Max rot=    0.0978 deg.
 Gradient too large for Newton-Raphson -- use scaled steepest descent instead.
     ILin= 1 X=0.000D+00 Y=-1.926263206760D+03 DE= 0.00D+00 F= -1.68D-04
     ILin= 2 X=1.200D+00 Y=-1.926263307829D+03 DE=-1.01D-04 F= -8.39D-07
     Reject lnstep minimum 1.204D+00 FVal=-1.926263307830D+03 Lims=  0.00D+00  1.20D+00
     ILin= 3 X=2.500D+00 Y=-1.926263191243D+03 DE= 1.55D-05 F=  1.80D-04
     An  expanding polynomial of degree  3 produced  1.2054
     Minimum is close to point  2 DX=  5.38D-03 DF= -2.02D-09 DXR=  4.47D-03 DFR=  2.00D-05 which will be used.
 Iteration   9 EE= -1926.26330782863     Delta-E=       -0.000101068135 Grad=9.007D-03 Max rot=    0.1453 deg.
 QCNR:  CnvC1=9.01D-08 CnvC2=9.01D-07
 LinEq1:  Iter=  0 NonCon=     1 RMS=6.92D-05 Max=1.59D-02 NDo=     1
 LinEq1:  Iter=  1 NonCon=     1 RMS=5.54D-05 Max=4.25D-03 NDo=     1
 LinEq1:  Iter=  2 NonCon=     1 RMS=2.03D-05 Max=3.90D-03 NDo=     1
 LinEq1:  Iter=  3 NonCon=     1 RMS=1.86D-05 Max=2.97D-03 NDo=     1
[...]
    17   Atom       -0.001371     -0.000295      0.001666
    18   Atom        0.000534     -0.000226     -0.000308
    19   Atom        0.000830      0.000566     -0.001395
    20   Atom        0.000291     -0.000108     -0.000183
    21   Atom        0.000396     -0.000188     -0.000207
    22   Atom        0.000236     -0.000145     -0.000091
    23   Atom        0.009445     -0.000651     -0.008794
    24   Atom       -0.449579     -0.508574      0.958153
    25   Atom       -0.006456     -0.006346      0.012803
    26   Atom        0.010041     -0.008864     -0.001177
    27   Atom       -0.026147      0.033747     -0.007600
    28   Atom        0.013513     -0.001077     -0.012437
    29   Atom        0.007221      0.008062     -0.015282
    30   Atom       -0.039493     -0.012386      0.051879
    31   Atom        0.001201     -0.000588     -0.000613
    32   Atom        0.002082     -0.001419     -0.000663
    33   Atom        0.000313      0.000141     -0.000455
    34   Atom        0.000768     -0.000091     -0.000677
    35   Atom       -0.018865      0.007385      0.011480
    36   Atom        0.083618     -0.047380     -0.036238
    37   Atom        0.054848     -0.021115     -0.033733
    38   Atom       -0.006745      0.010021     -0.003276
    39   Atom       -0.015047      0.017291     -0.002245
    40   Atom        0.041544     -0.045642      0.004098
    41   Atom       -0.000775     -0.001864      0.002639
    42   Atom       -0.000777     -0.001906      0.002683
    43   Atom       -0.001422      0.000953      0.000468
    44   Atom       -0.001313      0.000895      0.000418
    45   Atom        0.083020     -0.074438     -0.008582
    46   Atom        0.000782     -0.003249      0.002467
    47   Atom       -0.055751     -0.008647      0.064397
    48   Atom       -0.004007      0.002914      0.001093
 --------------------------------------------------------
                        XY            XZ            YZ
 --------------------------------------------------------
     1   Atom        0.000793     -0.000920     -0.001407
     2   Atom       -0.000727      0.004239      0.001420
     3   Atom        0.004979     -0.033165     -0.031055
     4   Atom        0.003612     -0.002088     -0.001882
     5   Atom       -0.004099     -0.002635      0.028905
     6   Atom       -0.004299     -0.001788     -0.103228
     7   Atom        0.000351      0.000178      0.000541
     8   Atom       -0.000210      0.001033      0.001200
     9   Atom        0.000680      0.000693      0.000537
    10   Atom        0.013840     -0.010745     -0.084893
    11   Atom       -0.000434      0.000385      0.035163
    12   Atom       -0.005718      0.003284     -0.106147
    13   Atom       -0.006228      0.002446      0.015368
    14   Atom        0.001067     -0.000206      0.005315
    15   Atom        0.000438      0.000217      0.001424
    16   Atom        0.005238      0.004210      0.003759
    17   Atom        0.000712     -0.000516     -0.002199
    18   Atom       -0.000326     -0.000054      0.000073
    19   Atom       -0.001384     -0.000178      0.000364
    20   Atom       -0.000040      0.000085      0.000030
    21   Atom        0.000205      0.000233      0.000114
    22   Atom        0.000266      0.000220      0.000049
    23   Atom        0.010566      0.000279     -0.000629
    24   Atom        0.011546      0.301440      0.056176
    25   Atom        0.013844      0.001741     -0.001829
    26   Atom       -0.041903     -0.044748      0.041238
    27   Atom       -0.045977     -0.033633      0.055136
    28   Atom        0.007347      0.005740     -0.019592
    29   Atom        0.008927      0.012528     -0.013884
    30   Atom       -0.022727     -0.041672      0.067781
    31   Atom       -0.002568      0.003327     -0.003623
    32   Atom       -0.002309      0.004336     -0.002472
    33   Atom        0.000788      0.000939     -0.001644
    34   Atom        0.001006      0.001069     -0.001355
    35   Atom       -0.004605      0.006110      0.005724
    36   Atom        0.015034      0.038109      0.007990
    37   Atom        0.047283      0.032793      0.011908
    38   Atom       -0.011283     -0.015591     -0.007773
    39   Atom       -0.004031     -0.020894     -0.002401
    40   Atom        0.025206      0.078774      0.021128
    41   Atom        0.000860     -0.004637     -0.002843
    42   Atom        0.000497     -0.004836     -0.000960
    43   Atom       -0.000749     -0.001445     -0.000542
    44   Atom       -0.000965     -0.001494     -0.000037
    45   Atom        0.044757      0.113630      0.032057
    46   Atom       -0.002113     -0.004499      0.003222
    47   Atom       -0.048142     -0.067822      0.104846
    48   Atom       -0.002077      0.000943     -0.004959
 --------------------------------------------------------


 ---------------------------------------------------------------------------------
              Anisotropic Spin Dipole Couplings in Principal Axis System
 ---------------------------------------------------------------------------------

       Atom             a.u.   MegaHertz   Gauss  10(-4) cm-1        Axes

              Baa    -0.0016    -0.212    -0.076    -0.071 -0.0278  0.7844  0.6196
     1 C(13)  Bbb    -0.0005    -0.071    -0.025    -0.024  0.8320 -0.3255  0.4493
              Bcc     0.0021     0.283     0.101     0.094 -0.5541 -0.5280  0.6435
 
              Baa    -0.0046    -0.619    -0.221    -0.207  0.4656  0.7933 -0.3924
     2 C(13)  Bbb    -0.0017    -0.228    -0.081    -0.076  0.6839 -0.6039 -0.4094
              Bcc     0.0063     0.847     0.302     0.283  0.5617  0.0778  0.8237
 
              Baa    -0.0557    -2.283    -0.815    -0.762  0.9516  0.1444  0.2714
     3 S(33)  Bbb    -0.0377    -1.545    -0.551    -0.515 -0.2026  0.9585  0.2007
              Bcc     0.0934     3.829     1.366     1.277 -0.2311 -0.2460  0.9413
 
              Baa    -0.0047    -0.630    -0.225    -0.210  0.8537 -0.5016  0.1401
     4 C(13)  Bbb    -0.0005    -0.069    -0.025    -0.023  0.1961  0.5589  0.8057
              Bcc     0.0052     0.699     0.249     0.233  0.4824  0.6604 -0.5755
 
              Baa    -0.0442    -5.928    -2.115    -1.977  0.0031 -0.5054  0.8629
     5 C(13)  Bbb     0.0172     2.311     0.825     0.771  0.7073  0.6111  0.3554
              Bcc     0.0270     3.617     1.291     1.207  0.7069 -0.6092 -0.3593
 
              Baa    -0.0909   -12.194    -4.351    -4.067  0.3331  0.8415  0.4254
     6 C(13)  Bbb    -0.0761   -10.210    -3.643    -3.406  0.9429 -0.2966 -0.1516
              Bcc     0.1670    22.404     7.994     7.473  0.0014 -0.4516  0.8922
 
              Baa    -0.0013    -0.174    -0.062    -0.058 -0.0185 -0.3539  0.9351
     7 C(13)  Bbb     0.0001     0.018     0.007     0.006 -0.4212  0.8510  0.3137
              Bcc     0.0012     0.156     0.056     0.052  0.9068  0.3880  0.1648
 
              Baa    -0.0020    -0.264    -0.094    -0.088 -0.3206 -0.5560  0.7668
     8 C(13)  Bbb     0.0005     0.065     0.023     0.022 -0.5173  0.7810  0.3500
              Bcc     0.0015     0.200     0.071     0.067  0.7935  0.2845  0.5380
 
              Baa    -0.0010    -0.516    -0.184    -0.172 -0.0934 -0.5786  0.8102
     9 H(1)   Bbb    -0.0005    -0.289    -0.103    -0.097 -0.5668  0.6999  0.4345
              Bcc     0.0015     0.805     0.287     0.269  0.8185  0.4187  0.3933
 
              Baa    -0.0604    -8.106    -2.892    -2.704 -0.6196  0.6226  0.4780
    10 C(13)  Bbb    -0.0541    -7.260    -2.590    -2.422  0.7783  0.4087  0.4766
              Bcc     0.1145    15.365     5.483     5.125 -0.1014 -0.6674  0.7378
 
              Baa    -0.0566    -7.595    -2.710    -2.534 -0.0063 -0.4883  0.8727
    11 C(13)  Bbb     0.0259     3.478     1.241     1.160  0.0400  0.8719  0.4881
              Bcc     0.0307     4.118     1.469     1.374  0.9992 -0.0380 -0.0141
 
              Baa    -0.0745    -9.994    -3.566    -3.334  0.9294  0.2870  0.2319
    12 C(13)  Bbb    -0.0688    -9.239    -3.297    -3.082 -0.3679  0.6712  0.6436
              Bcc     0.1433    19.233     6.863     6.415  0.0291 -0.6835  0.7294
 
              Baa    -0.0249    -3.341    -1.192    -1.115  0.1588  0.8025 -0.5751
    13 C(13)  Bbb     0.0081     1.086     0.387     0.362  0.1918  0.5463  0.8153
              Bcc     0.0168     2.255     0.805     0.752  0.9685 -0.2398 -0.0672
 
              Baa    -0.0047    -2.483    -0.886    -0.828  0.5937 -0.4591  0.6608
    14 H(1)   Bbb    -0.0031    -1.658    -0.592    -0.553  0.8016  0.2659 -0.5355
              Bcc     0.0078     4.141     1.478     1.381  0.0701  0.8477  0.5259
 
              Baa    -0.0029    -1.539    -0.549    -0.513  0.0152 -0.5945  0.8040
    15 H(1)   Bbb     0.0000     0.009     0.003     0.003 -0.1713  0.7906  0.5879
              Bcc     0.0029     1.530     0.546     0.510  0.9851  0.1466  0.0898
 
              Baa    -0.0055    -2.956    -1.055    -0.986 -0.6800  0.1054  0.7256
    16 H(1)   Bbb    -0.0037    -1.956    -0.698    -0.652 -0.4514  0.7196 -0.5276
              Bcc     0.0092     4.912     1.753     1.638  0.5778  0.6863  0.4418
 
              Baa    -0.0019    -0.261    -0.093    -0.087 -0.5785  0.7309  0.3621
    17 C(13)  Bbb    -0.0013    -0.173    -0.062    -0.058  0.7965  0.4104  0.4440
              Bcc     0.0032     0.435     0.155     0.145 -0.1760 -0.5453  0.8196
 
              Baa    -0.0004    -0.204    -0.073    -0.068  0.2416  0.7754 -0.5834
    18 H(1)   Bbb    -0.0003    -0.148    -0.053    -0.049  0.2654  0.5255  0.8083
              Bcc     0.0007     0.353     0.126     0.118  0.9334 -0.3501 -0.0788
 
              Baa    -0.0015    -0.781    -0.279    -0.261 -0.0512 -0.2101  0.9763
    19 H(1)   Bbb    -0.0007    -0.354    -0.126    -0.118  0.6795  0.7091  0.1882
              Bcc     0.0021     1.135     0.405     0.379  0.7319 -0.6731 -0.1065
 
              Baa    -0.0002    -0.112    -0.040    -0.037 -0.1829 -0.3427  0.9215
    20 H(1)   Bbb    -0.0001    -0.052    -0.019    -0.017  0.0201  0.9358  0.3520
              Bcc     0.0003     0.164     0.059     0.055  0.9829 -0.0829  0.1643
 
              Baa    -0.0003    -0.169    -0.060    -0.056 -0.1064 -0.5628  0.8197
    21 H(1)   Bbb    -0.0002    -0.124    -0.044    -0.041 -0.4278  0.7701  0.4732
              Bcc     0.0005     0.292     0.104     0.098  0.8976  0.3003  0.3227
 
              Baa    -0.0003    -0.162    -0.058    -0.054 -0.5270  0.7659  0.3684
    22 H(1)   Bbb    -0.0002    -0.083    -0.030    -0.028 -0.1370 -0.5044  0.8525
              Bcc     0.0005     0.245     0.088     0.082  0.8388  0.3988  0.3708
 
              Baa    -0.0091    -0.371    -0.133    -0.124 -0.1907  0.3093  0.9316
    23 S(33)  Bbb    -0.0070    -0.289    -0.103    -0.096 -0.4982  0.7873 -0.3634
              Bcc     0.0161     0.660     0.236     0.220  0.8458  0.5334 -0.0040
 
              Baa    -0.5114   -19.724    -7.038    -6.579  0.9793 -0.0324 -0.1996
    24 N(14)  Bbb    -0.5107   -19.697    -7.029    -6.570  0.0242  0.9988 -0.0432
              Bcc     1.0221    39.421    14.067    13.150  0.2008  0.0374  0.9789
 
              Baa    -0.0204    -2.742    -0.979    -0.915  0.7063 -0.7038 -0.0757
    25 C(13)  Bbb     0.0074     0.999     0.356     0.333  0.7064  0.7077  0.0120
              Bcc     0.0130     1.744     0.622     0.582  0.0452 -0.0620  0.9971
 
              Baa    -0.0465    -6.240    -2.226    -2.081  0.0744  0.7731 -0.6300
    26 C(13)  Bbb    -0.0394    -5.290    -1.888    -1.765  0.7743  0.3533  0.5250
              Bcc     0.0859    11.530     4.114     3.846  0.6284 -0.5268 -0.5723
 
              Baa    -0.0525    -7.047    -2.515    -2.351  0.8922  0.2252  0.3916
    27 C(13)  Bbb    -0.0456    -6.113    -2.181    -2.039 -0.1742 -0.6282  0.7583
              Bcc     0.0981    13.160     4.696     4.390 -0.4168  0.7447  0.5212
 
              Baa    -0.0291    -3.900    -1.392    -1.301 -0.2075  0.5970  0.7750
    28 C(13)  Bbb     0.0120     1.610     0.575     0.537  0.5561 -0.5798  0.5955
              Bcc     0.0171     2.290     0.817     0.764  0.8048  0.5545 -0.2116
 
              Baa    -0.0282    -3.789    -1.352    -1.264 -0.3940  0.4113  0.8220
    29 C(13)  Bbb     0.0115     1.544     0.551     0.515  0.6958 -0.4508  0.5591
              Bcc     0.0167     2.245     0.801     0.749  0.6005  0.7922 -0.1086
 
              Baa    -0.0578    -7.763    -2.770    -2.589  0.6311 -0.5296  0.5668
    30 C(13)  Bbb    -0.0519    -6.971    -2.487    -2.325  0.7143  0.6817 -0.1583
              Bcc     0.1098    14.733     5.257     4.914 -0.3025  0.5048  0.8085
 
              Baa    -0.0043    -2.304    -0.822    -0.768 -0.1693  0.6242  0.7627
    31 H(1)   Bbb    -0.0021    -1.105    -0.394    -0.369  0.7596  0.5758 -0.3026
              Bcc     0.0064     3.408     1.216     1.137  0.6280 -0.5280  0.5716
 
              Baa    -0.0041    -2.189    -0.781    -0.730 -0.4302  0.3830  0.8175
    32 H(1)   Bbb    -0.0025    -1.351    -0.482    -0.451  0.5291  0.8407 -0.1154
              Bcc     0.0066     3.540     1.263     1.181  0.7315 -0.3829  0.5642
 
              Baa    -0.0024    -1.272    -0.454    -0.424 -0.4136  0.5839  0.6986
    33 H(1)   Bbb     0.0009     0.464     0.166     0.155  0.9104  0.2615  0.3205
              Bcc     0.0015     0.808     0.288     0.269  0.0044  0.7686 -0.6398
 
              Baa    -0.0024    -1.301    -0.464    -0.434 -0.4155  0.5816  0.6993
    34 H(1)   Bbb     0.0010     0.523     0.187     0.175 -0.1924  0.6953 -0.6925
              Bcc     0.0015     0.778     0.278     0.259  0.8890  0.4223  0.1770
 
              Baa    -0.0212    -2.842    -1.014    -0.948  0.9568  0.1971 -0.2136
    35 C(13)  Bbb     0.0055     0.736     0.263     0.245 -0.2802  0.8207 -0.4979
              Bcc     0.0157     2.106     0.751     0.702  0.0771  0.5363  0.8405
 
              Baa    -0.0519    -6.965    -2.485    -2.323  0.0815  0.7936 -0.6030
    36 C(13)  Bbb    -0.0447    -6.003    -2.142    -2.002 -0.2918  0.5975  0.7469
              Bcc     0.0966    12.968     4.627     4.326  0.9530  0.1150  0.2802
 
              Baa    -0.0470    -6.312    -2.252    -2.106 -0.4780  0.5615  0.6754
    37 C(13)  Bbb    -0.0404    -5.425    -1.936    -1.810 -0.1215  0.7193 -0.6840
              Bcc     0.0875    11.737     4.188     3.915  0.8699  0.4090  0.2756
 
              Baa    -0.0259    -3.470    -1.238    -1.157  0.7078  0.3549  0.6108
    38 C(13)  Bbb     0.0102     1.364     0.487     0.455 -0.5419 -0.2820  0.7917
              Bcc     0.0157     2.106     0.752     0.703 -0.4533  0.8913  0.0073
 
              Baa    -0.0309    -4.153    -1.482    -1.385  0.8009  0.0963  0.5910
    39 C(13)  Bbb     0.0132     1.766     0.630     0.589 -0.5829 -0.1002  0.8063
              Bcc     0.0178     2.387     0.852     0.796 -0.1369  0.9903  0.0241
 
              Baa    -0.0583    -7.823    -2.791    -2.609 -0.5871 -0.1566  0.7942
    40 C(13)  Bbb    -0.0524    -7.032    -2.509    -2.346 -0.2586  0.9660 -0.0007
              Bcc     0.1107    14.855     5.301     4.955  0.7671  0.2058  0.6076
 
              Baa    -0.0045    -2.386    -0.851    -0.796  0.6583  0.4449  0.6072
    41 H(1)   Bbb    -0.0023    -1.244    -0.444    -0.415 -0.5429  0.8394 -0.0264
              Bcc     0.0068     3.629     1.295     1.211 -0.5214 -0.3123  0.7941
 
              Baa    -0.0042    -2.237    -0.798    -0.746  0.8117  0.0673  0.5803
    42 H(1)   Bbb    -0.0020    -1.087    -0.388    -0.363 -0.1304  0.9892  0.0677
              Bcc     0.0062     3.324     1.186     1.109 -0.5694 -0.1306  0.8116
 
              Baa    -0.0025    -1.307    -0.466    -0.436  0.8452  0.2603  0.4667
    43 H(1)   Bbb     0.0011     0.591     0.211     0.197 -0.4816  0.7495  0.4542
              Bcc     0.0013     0.717     0.256     0.239 -0.2315 -0.6087  0.7589
 
              Baa    -0.0024    -1.280    -0.457    -0.427  0.8529  0.2549  0.4557
    44 H(1)   Bbb     0.0008     0.404     0.144     0.135  0.1312  0.7401 -0.6596
              Bcc     0.0016     0.876     0.313     0.292 -0.5054  0.6223  0.5977
 
              Baa    -0.0877     6.343     2.263     2.116  0.1456  0.8263 -0.5441
    45 O(17)  Bbb    -0.0844     6.104     2.178     2.036 -0.5707  0.5194  0.6361
              Bcc     0.1720   -12.447    -4.442    -4.152  0.8082  0.2179  0.5472
 
              Baa    -0.0047    -2.508    -0.895    -0.836  0.0314  0.9189 -0.3933
    46 H(1)   Bbb    -0.0029    -1.526    -0.545    -0.509  0.8058  0.2096  0.5538
              Bcc     0.0076     4.034     1.439     1.346 -0.5913  0.3343  0.7339
 
              Baa    -0.0864     6.255     2.232     2.087  0.9381  0.1907  0.2892
    47 O(17)  Bbb    -0.0831     6.017     2.147     2.007  0.0113  0.8176 -0.5757
              Bcc     0.1696   -12.272    -4.379    -4.093 -0.3462  0.5434  0.7648
 
              Baa    -0.0046    -2.480    -0.885    -0.827  0.9218  0.3551  0.1554
    48 H(1)   Bbb    -0.0028    -1.505    -0.537    -0.502 -0.3386  0.5424  0.7689
              Bcc     0.0075     3.985     1.422     1.329 -0.1888  0.7614 -0.6202
 

 ---------------------------------------------------------------------------------

 No NMR shielding tensors so no spin-rotation constants.
 Leave Link  601 at Mon Jan 18 06:32:35 2021, MaxMem=  4026531840 cpu:               7.3 elap:               1.2
 (Enter /opt/ohpc/pub/libs/gaussian/g16-A.03/sandybridge/g16/l9999.exe)

 Test job not archived.
 1\1\GINC-CASCADEB025\SP\ULC-wHPBE\TZVP\C24H19N1O2S2(1+,2)\RDU230\18-Ja
 n-2021\0\\#P LC-wHPBE/TZVP iop(3/107=0221900000, 3/108=0221900000) scf
 =(conver=6,fermi,ndamp=35,noincfock,novaracc,vshift=500,xqc)\\H19 C24 
 S2 N1 O2\\1,2\C,0,-6.54463,-1.193879,0.12701\C,0,-5.283469,-0.647909,0
 .131523\S,0,-3.665919,-1.107322,1.042984\C,0,-4.996815,0.486583,-0.537
 83\C,0,-1.475687,0.036886,0.221747\C,0,-1.772288,-1.094442,0.892846\C,
 0,-7.517398,-0.549399,-0.618903\C,0,-5.951198,1.159916,-1.262339\H,0,-
 2.843406,1.345523,-1.332578\C,0,-0.186077,0.430997,-0.028463\C,0,-0.77
 363,-1.912541,1.366813\C,0,0.53691,-1.552052,1.124661\C,0,0.845585,-0.
 387156,0.425435\H,0,0.045427,1.33981,-0.567415\H,0,-0.986976,-2.816418
 ,1.923251\H,0,1.342687,-2.175375,1.48462\C,0,-7.223748,0.615229,-1.306
 247\H,0,-6.782458,-2.097666,0.673346\H,0,-3.815781,-2.43941,0.928305\H
 ,0,-8.517553,-0.958288,-0.663525\H,0,-5.730059,2.077989,-1.791552\H,0,
 -7.997253,1.105431,-1.881471\S,0,-3.166075,0.851646,-0.124057\N,0,2.18
 2887,-0.044483,0.184905\C,0,3.146505,-1.044921,-0.067172\C,0,4.392012,
 -0.989098,0.539344\C,0,2.878694,-2.090316,-0.930362\C,0,5.345494,-1.94
 6131,0.285899\C,0,3.822608,-3.066997,-1.170354\C,0,5.062274,-2.995295,
 -0.567641\H,0,4.612943,-0.17489,1.215121\H,0,1.913696,-2.145516,-1.414
 069\H,0,6.317156,-1.901598,0.755555\H,0,3.591387,-3.881585,-1.84538\C,
 0,2.575405,1.310294,0.123192\C,0,3.391681,1.763268,-0.894977\C,0,2.164
 04,2.211964,1.09371\C,0,3.796835,3.081396,-0.942072\C,0,2.544098,3.531
 176,1.038879\C,0,3.368807,3.972023,0.020733\H,0,3.723839,1.07184,-1.65
 6403\H,0,1.529535,1.868488,1.898614\H,0,4.442764,3.41523,-1.744528\H,0
 ,2.220724,4.234697,1.791974\O,0,3.726245,5.28132,0.019257\H,0,4.294203
 ,5.466041,-0.728132\O,0,6.032969,-3.920806,-0.776143\H,0,5.721078,-4.5
 93785,-1.380389\\Version=EM64L-G16RevA.03\State=2-A\HF=-1926.263621\S2
 =0.770842\S2-1=0.\S2A=0.750392\RMSD=2.290e-09\Dipole=2.8919677,-0.5720
 473,-1.1936003\Quadrupole=28.0583458,1.0371777,-29.0955235,5.0090353,-
 5.4225092,-3.5506691\PG=C01 [X(C24H19N1O2S2)]\\@


 THE DIFFERENCE BETWEEN A NOOSE AND A HALO IS ONLY 12 INCHES.
 Job cpu time:       0 days 14 hours 20 minutes  2.0 seconds.
 Elapsed time:       0 days  1 hours 47 minutes 52.5 seconds.
 File lengths (MBytes):  RWF=    264 Int=      0 D2E=      0 Chk=     36 Scr=      8
 Normal termination of Gaussian 16 at Mon Jan 18 06:32:35 2021.
