 Entering Gaussian System, Link 0=g16
 Input=mol_ta_ma_half_tune_n9.gjf
 Output=mol_ta_ma_half_tune_n9.log
 Initial command:
 /opt/ohpc/pub/libs/gaussian/g16-A.03/sandybridge/g16/l1.exe "/mnt/gpfs2_4m/scratch/rdu230/ondemand/projects/init_structures/wtuning/mol_ta_ma_half/tuning_mol_ta_ma_half_ocycle0/Gau-77201.inp" -scrdir="/mnt/gpfs2_4m/scratch/rdu230/ondemand/projects/init_structures/wtuning/mol_ta_ma_half/tuning_mol_ta_ma_half_ocycle0/"
 Entering Link 1 = /opt/ohpc/pub/libs/gaussian/g16-A.03/sandybridge/g16/l1.exe PID=     77203.
  
 Copyright (c) 1988,1990,1992,1993,1995,1998,2003,2009,2016,
            Gaussian, Inc.  All Rights Reserved.
  
 This is part of the Gaussian(R) 16 program.  It is based on
 the Gaussian(R) 09 system (copyright 2009, Gaussian, Inc.),
 the Gaussian(R) 03 system (copyright 2003, Gaussian, Inc.),
 the Gaussian(R) 98 system (copyright 1998, Gaussian, Inc.),
 the Gaussian(R) 94 system (copyright 1995, Gaussian, Inc.),
 the Gaussian 92(TM) system (copyright 1992, Gaussian, Inc.),
 the Gaussian 90(TM) system (copyright 1990, Gaussian, Inc.),
 the Gaussian 88(TM) system (copyright 1988, Gaussian, Inc.),
 the Gaussian 86(TM) system (copyright 1986, Carnegie Mellon
 University), and the Gaussian 82(TM) system (copyright 1983,
 Carnegie Mellon University). Gaussian is a federally registered
 trademark of Gaussian, Inc.
  
 This software contains proprietary and confidential information,
 including trade secrets, belonging to Gaussian, Inc.
  
 This software is provided under written license and may be
 used, copied, transmitted, or stored only in accord with that
 written license.
  
 The following legend is applicable only to US Government
 contracts under FAR:
  
                    RESTRICTED RIGHTS LEGEND
  
 Use, reproduction and disclosure by the US Government is
 subject to restrictions as set forth in subparagraphs (a)
 and (c) of the Commercial Computer Software - Restricted
 Rights clause in FAR 52.227-19.
  
 Gaussian, Inc.
 340 Quinnipiac St., Bldg. 40, Wallingford CT 06492
  
  
 ---------------------------------------------------------------
 Warning -- This program may not be used in any manner that
 competes with the business of Gaussian, Inc. or will provide
 assistance to any competitor of Gaussian, Inc.  The licensee
 of this program is prohibited from giving any competitor of
 Gaussian, Inc. access to this program.  By using this program,
 the user acknowledges that Gaussian, Inc. is engaged in the
 business of creating and licensing software in the field of
 computational chemistry and represents and warrants to the
 licensee that it is not a competitor of Gaussian, Inc. and that
 it will not use this program in any manner prohibited above.
 ---------------------------------------------------------------
  

 Cite this work as:
 Gaussian 16, Revision A.03,
 M. J. Frisch, G. W. Trucks, H. B. Schlegel, G. E. Scuseria, 
 M. A. Robb, J. R. Cheeseman, G. Scalmani, V. Barone, 
 G. A. Petersson, H. Nakatsuji, X. Li, M. Caricato, A. V. Marenich, 
 J. Bloino, B. G. Janesko, R. Gomperts, B. Mennucci, H. P. Hratchian, 
 J. V. Ortiz, A. F. Izmaylov, J. L. Sonnenberg, D. Williams-Young, 
 F. Ding, F. Lipparini, F. Egidi, J. Goings, B. Peng, A. Petrone, 
 T. Henderson, D. Ranasinghe, V. G. Zakrzewski, J. Gao, N. Rega, 
 G. Zheng, W. Liang, M. Hada, M. Ehara, K. Toyota, R. Fukuda, 
 J. Hasegawa, M. Ishida, T. Nakajima, Y. Honda, O. Kitao, H. Nakai, 
 T. Vreven, K. Throssell, J. A. Montgomery, Jr., J. E. Peralta, 
 F. Ogliaro, M. J. Bearpark, J. J. Heyd, E. N. Brothers, K. N. Kudin, 
 V. N. Staroverov, T. A. Keith, R. Kobayashi, J. Normand, 
 K. Raghavachari, A. P. Rendell, J. C. Burant, S. S. Iyengar, 
 J. Tomasi, M. Cossi, J. M. Millam, M. Klene, C. Adamo, R. Cammi, 
 J. W. Ochterski, R. L. Martin, K. Morokuma, O. Farkas, 
 J. B. Foresman, and D. J. Fox, Gaussian, Inc., Wallingford CT, 2016.
 
 ******************************************
 Gaussian 16:  EM64L-G16RevA.03 25-Dec-2016
                19-Jan-2021 
 ******************************************
 %mem=30GB
 %nproc=8
 Will use up to    8 processors via shared memory.
 ----------------------------------------------------------------------
 #P LC-wHPBE/TZVP iop(3/107=0177500000, 3/108=0177500000) scf=(conver=6
 ,fermi,ndamp=35,noincfock,novaracc,vshift=500,xqc)
 ----------------------------------------------------------------------
 1/38=1,172=1/1;
 2/12=2,17=6,18=5,40=1/2;
 3/5=19,7=101,11=2,25=1,30=1,74=-71,107=177500000,108=177500000/1,2,3;
 4//1;
 5/5=100002,6=6,8=3,10=500,13=1,18=-1,22=13,38=1,93=35/2,8;
 6/7=2,8=2,9=2,10=2,28=1/1;
 99/5=1,9=1/99;
 Leave Link    1 at Tue Jan 19 00:33:17 2021, MaxMem=  4026531840 cpu:               0.9 elap:               0.1
 (Enter /opt/ohpc/pub/libs/gaussian/g16-A.03/sandybridge/g16/l101.exe)
 ----------------
 H19 C24 S2 N1 O2
 ----------------
 Symbolic Z-matrix:
 Charge =  0 Multiplicity = 1
 C                    -6.54463  -1.19388   0.12701 
 C                    -5.28347  -0.64791   0.13152 
 S                    -3.66592  -1.10732   1.04298 
 C                    -4.99682   0.48658  -0.53783 
 C                    -1.47569   0.03689   0.22175 
 C                    -1.77229  -1.09444   0.89285 
 C                    -7.5174   -0.5494   -0.6189 
 C                    -5.9512    1.15992  -1.26234 
 H                    -2.84341   1.34552  -1.33258 
 C                    -0.18608   0.431    -0.02846 
 C                    -0.77363  -1.91254   1.36681 
 C                     0.53691  -1.55205   1.12466 
 C                     0.84559  -0.38716   0.42544 
 H                     0.04543   1.33981  -0.56742 
 H                    -0.98698  -2.81642   1.92325 
 H                     1.34269  -2.17537   1.48462 
 C                    -7.22375   0.61523  -1.30625 
 H                    -6.78246  -2.09767   0.67335 
 H                    -3.81578  -2.43941   0.92831 
 H                    -8.51755  -0.95829  -0.66353 
 H                    -5.73006   2.07799  -1.79155 
 H                    -7.99725   1.10543  -1.88147 
 S                    -3.16608   0.85165  -0.12406 
 N                     2.18289  -0.04448   0.18491 
 C                     3.1465   -1.04492  -0.06717 
 C                     4.39201  -0.9891    0.53934 
 C                     2.87869  -2.09032  -0.93036 
 C                     5.34549  -1.94613   0.2859 
 C                     3.82261  -3.067    -1.17035 
 C                     5.06227  -2.9953   -0.56764 
 H                     4.61294  -0.17489   1.21512 
 H                     1.9137   -2.14552  -1.41407 
 H                     6.31716  -1.9016    0.75556 
 H                     3.59139  -3.88159  -1.84538 
 C                     2.5754    1.31029   0.12319 
 C                     3.39168   1.76327  -0.89498 
 C                     2.16404   2.21196   1.09371 
 C                     3.79684   3.0814   -0.94207 
 C                     2.5441    3.53118   1.03888 
 C                     3.36881   3.97202   0.02073 
 H                     3.72384   1.07184  -1.6564 
 H                     1.52954   1.86849   1.89861 
 H                     4.44276   3.41523  -1.74453 
 H                     2.22072   4.2347    1.79197 
 O                     3.72625   5.28132   0.01926 
 H                     4.2942    5.46604  -0.72813 
 O                     6.03297  -3.92081  -0.77614 
 H                     5.72108  -4.59379  -1.38039 
 
 ITRead=  0  0  0  0  0  0  0  0  0  0  0  0  0  0  0  0  0  0  0  0
 ITRead=  0  0  0  0  0  0  0  0  0  0  0  0  0  0  0  0  0  0  0  0
 ITRead=  0  0  0  0  0  0  0  0
 MicOpt= -1 -1 -1 -1 -1 -1 -1 -1 -1 -1 -1 -1 -1 -1 -1 -1 -1 -1 -1 -1
 MicOpt= -1 -1 -1 -1 -1 -1 -1 -1 -1 -1 -1 -1 -1 -1 -1 -1 -1 -1 -1 -1
 MicOpt= -1 -1 -1 -1 -1 -1 -1 -1
 NAtoms=     48 NQM=       48 NQMF=       0 NMMI=      0 NMMIF=      0
                NMic=       0 NMicF=      0.
                    Isotopes and Nuclear Properties:
 (Nuclear quadrupole moments (NQMom) in fm**2, nuclear magnetic moments (NMagM)
  in nuclear magnetons)

  Atom         1           2           3           4           5           6           7           8           9          10
 IAtWgt=          12          12          32          12          12          12          12          12           1          12
 AtmWgt=  12.0000000  12.0000000  31.9720718  12.0000000  12.0000000  12.0000000  12.0000000  12.0000000   1.0078250  12.0000000
 NucSpn=           0           0           0           0           0           0           0           0           1           0
 AtZEff=  -0.0000000  -0.0000000  -0.0000000  -0.0000000  -0.0000000  -0.0000000  -0.0000000  -0.0000000  -0.0000000  -0.0000000
 NQMom=    0.0000000   0.0000000   0.0000000   0.0000000   0.0000000   0.0000000   0.0000000   0.0000000   0.0000000   0.0000000
 NMagM=    0.0000000   0.0000000   0.0000000   0.0000000   0.0000000   0.0000000   0.0000000   0.0000000   2.7928460   0.0000000
 AtZNuc=   6.0000000   6.0000000  16.0000000   6.0000000   6.0000000   6.0000000   6.0000000   6.0000000   1.0000000   6.0000000

  Atom        11          12          13          14          15          16          17          18          19          20
 IAtWgt=          12          12          12           1           1           1          12           1           1           1
 AtmWgt=  12.0000000  12.0000000  12.0000000   1.0078250   1.0078250   1.0078250  12.0000000   1.0078250   1.0078250   1.0078250
 NucSpn=           0           0           0           1           1           1           0           1           1           1
 AtZEff=  -0.0000000  -0.0000000  -0.0000000  -0.0000000  -0.0000000  -0.0000000  -0.0000000  -0.0000000  -0.0000000  -0.0000000
 NQMom=    0.0000000   0.0000000   0.0000000   0.0000000   0.0000000   0.0000000   0.0000000   0.0000000   0.0000000   0.0000000
 NMagM=    0.0000000   0.0000000   0.0000000   2.7928460   2.7928460   2.7928460   0.0000000   2.7928460   2.7928460   2.7928460
 AtZNuc=   6.0000000   6.0000000   6.0000000   1.0000000   1.0000000   1.0000000   6.0000000   1.0000000   1.0000000   1.0000000

  Atom        21          22          23          24          25          26          27          28          29          30
 IAtWgt=           1           1          32          14          12          12          12          12          12          12
 AtmWgt=   1.0078250   1.0078250  31.9720718  14.0030740  12.0000000  12.0000000  12.0000000  12.0000000  12.0000000  12.0000000
 NucSpn=           1           1           0           2           0           0           0           0           0           0
 AtZEff=  -0.0000000  -0.0000000  -0.0000000  -0.0000000  -0.0000000  -0.0000000  -0.0000000  -0.0000000  -0.0000000  -0.0000000
 NQMom=    0.0000000   0.0000000   0.0000000   2.0440000   0.0000000   0.0000000   0.0000000   0.0000000   0.0000000   0.0000000
 NMagM=    2.7928460   2.7928460   0.0000000   0.4037610   0.0000000   0.0000000   0.0000000   0.0000000   0.0000000   0.0000000
 AtZNuc=   1.0000000   1.0000000  16.0000000   7.0000000   6.0000000   6.0000000   6.0000000   6.0000000   6.0000000   6.0000000

  Atom        31          32          33          34          35          36          37          38          39          40
 IAtWgt=           1           1           1           1          12          12          12          12          12          12
 AtmWgt=   1.0078250   1.0078250   1.0078250   1.0078250  12.0000000  12.0000000  12.0000000  12.0000000  12.0000000  12.0000000
 NucSpn=           1           1           1           1           0           0           0           0           0           0
 AtZEff=  -0.0000000  -0.0000000  -0.0000000  -0.0000000  -0.0000000  -0.0000000  -0.0000000  -0.0000000  -0.0000000  -0.0000000
 NQMom=    0.0000000   0.0000000   0.0000000   0.0000000   0.0000000   0.0000000   0.0000000   0.0000000   0.0000000   0.0000000
 NMagM=    2.7928460   2.7928460   2.7928460   2.7928460   0.0000000   0.0000000   0.0000000   0.0000000   0.0000000   0.0000000
 AtZNuc=   1.0000000   1.0000000   1.0000000   1.0000000   6.0000000   6.0000000   6.0000000   6.0000000   6.0000000   6.0000000

  Atom        41          42          43          44          45          46          47          48
 IAtWgt=           1           1           1           1          16           1          16           1
 AtmWgt=   1.0078250   1.0078250   1.0078250   1.0078250  15.9949146   1.0078250  15.9949146   1.0078250
 NucSpn=           1           1           1           1           0           1           0           1
 AtZEff=  -0.0000000  -0.0000000  -0.0000000  -0.0000000  -0.0000000  -0.0000000  -0.0000000  -0.0000000
 NQMom=    0.0000000   0.0000000   0.0000000   0.0000000   0.0000000   0.0000000   0.0000000   0.0000000
 NMagM=    2.7928460   2.7928460   2.7928460   2.7928460   0.0000000   2.7928460   0.0000000   2.7928460
 AtZNuc=   1.0000000   1.0000000   1.0000000   1.0000000   8.0000000   1.0000000   8.0000000   1.0000000
 Leave Link  101 at Tue Jan 19 00:33:17 2021, MaxMem=  4026531840 cpu:               0.7 elap:               0.1
 (Enter /opt/ohpc/pub/libs/gaussian/g16-A.03/sandybridge/g16/l202.exe)
                          Input orientation:                          
 ---------------------------------------------------------------------
 Center     Atomic      Atomic             Coordinates (Angstroms)
 Number     Number       Type             X           Y           Z
 ---------------------------------------------------------------------
      1          6           0       -6.544630   -1.193879    0.127010
      2          6           0       -5.283469   -0.647909    0.131523
      3         16           0       -3.665919   -1.107322    1.042984
      4          6           0       -4.996815    0.486583   -0.537830
      5          6           0       -1.475687    0.036886    0.221747
      6          6           0       -1.772288   -1.094442    0.892846
      7          6           0       -7.517398   -0.549399   -0.618903
      8          6           0       -5.951198    1.159916   -1.262339
      9          1           0       -2.843406    1.345523   -1.332578
     10          6           0       -0.186077    0.430997   -0.028463
     11          6           0       -0.773630   -1.912541    1.366813
     12          6           0        0.536910   -1.552052    1.124661
     13          6           0        0.845585   -0.387156    0.425435
     14          1           0        0.045427    1.339810   -0.567415
     15          1           0       -0.986976   -2.816418    1.923251
     16          1           0        1.342687   -2.175375    1.484620
     17          6           0       -7.223748    0.615229   -1.306247
     18          1           0       -6.782458   -2.097666    0.673346
     19          1           0       -3.815781   -2.439410    0.928305
     20          1           0       -8.517553   -0.958288   -0.663525
     21          1           0       -5.730059    2.077989   -1.791552
     22          1           0       -7.997253    1.105431   -1.881471
     23         16           0       -3.166075    0.851646   -0.124057
     24          7           0        2.182887   -0.044483    0.184905
     25          6           0        3.146505   -1.044921   -0.067172
     26          6           0        4.392012   -0.989098    0.539344
     27          6           0        2.878694   -2.090316   -0.930362
     28          6           0        5.345494   -1.946131    0.285899
     29          6           0        3.822608   -3.066997   -1.170354
     30          6           0        5.062274   -2.995295   -0.567641
     31          1           0        4.612943   -0.174890    1.215121
     32          1           0        1.913696   -2.145516   -1.414069
     33          1           0        6.317156   -1.901598    0.755555
     34          1           0        3.591387   -3.881585   -1.845380
     35          6           0        2.575405    1.310294    0.123192
     36          6           0        3.391681    1.763268   -0.894977
     37          6           0        2.164040    2.211964    1.093710
     38          6           0        3.796835    3.081396   -0.942072
     39          6           0        2.544098    3.531176    1.038879
     40          6           0        3.368807    3.972023    0.020733
     41          1           0        3.723839    1.071840   -1.656403
     42          1           0        1.529535    1.868488    1.898614
     43          1           0        4.442764    3.415230   -1.744528
     44          1           0        2.220724    4.234697    1.791974
     45          8           0        3.726245    5.281320    0.019257
     46          1           0        4.294203    5.466041   -0.728132
     47          8           0        6.032969   -3.920806   -0.776143
     48          1           0        5.721078   -4.593785   -1.380389
 ---------------------------------------------------------------------
                    Distance matrix (angstroms):
                    1          2          3          4          5
     1  C    0.000000
     2  C    1.374275   0.000000
     3  S    3.022164   1.912666   0.000000
     4  C    2.379432   1.348064   2.609749   0.000000
     5  C    5.217082   3.869921   2.603989   3.630086   0.000000
     6  C    4.834422   3.620414   1.899617   3.865753   1.348425
     7  C    1.384925   2.358661   4.231671   2.726384   6.128025
     8  C    2.796927   2.378433   3.959467   1.374459   4.847051
     9  H    4.719960   3.474373   3.512303   2.450831   2.449309
    10  C    6.564723   5.212777   3.952686   4.837948   1.371504
    11  C    5.946262   4.843953   3.019698   5.217159   2.367346
    12  C    7.160433   5.973325   4.227083   6.127154   2.718552
    13  C    7.440103   6.141635   4.610171   5.985394   2.368460
    14  H    7.094410   5.730329   4.728206   5.114008   2.152713
    15  H    6.061900   5.135423   3.297365   5.748525   3.357871
    16  H    8.063263   6.933251   5.140225   7.166981   3.798971
    17  C    2.405888   2.725323   4.598284   2.359289   5.975739
    18  H    1.082532   2.154608   3.290931   3.366573   5.737776
    19  H    3.104841   2.449172   1.345388   3.479343   3.479555
    20  H    2.138428   3.344807   5.145166   3.807761   7.166726
    21  H    3.879372   3.365736   4.737243   2.154539   5.130220
    22  H    3.380967   3.806701   5.675312   3.345291   6.935138
    23  S    3.957504   2.607172   2.334392   1.912090   1.908095
    24  N    8.803069   7.490891   6.006202   7.235503   3.659664
    25  C    9.694225   8.441656   6.902569   8.299439   4.755885
    26  C   10.946328   9.690081   8.074521   9.564937   5.965183
    27  C    9.524740   8.356377   6.905963   8.295669   4.981263
    28  C   11.914956  10.709065   9.081979  10.656453   7.103871
    29  C   10.614676   9.511441   8.050915   9.529441   6.296345
    30  C   11.766387  10.631719   9.074134  10.644700   7.249979
    31  H   11.256721   9.966790   8.332984   9.790701   6.172767
    32  H    8.650076   7.512048   6.184421   7.446536   4.350482
    33  H   12.896568  11.684847  10.018746  11.635385   8.048048
    34  H   10.670189   9.650278   8.289009   9.723569   6.730726
    35  C    9.457586   8.099168   6.756109   7.645519   4.247661
    36  C   10.417267   9.062323   7.861660   8.492605   5.283819
    37  C    9.400809   8.035550   6.708849   7.544316   4.328845
    38  C   11.241299   9.874829   8.785130   9.177404   6.198629
    39  C   10.284096   8.919577   7.751128   8.283775   5.388547
    40  C   11.179180   9.809074   8.736825   9.079863   6.244584
    41  H   10.665622   9.342688   8.163575   8.811557   5.624380
    42  H    8.815260   7.474750   6.048164   7.102054   3.898462
    43  H   12.061068  10.706459   9.694041   9.956844   7.092779
    44  H   10.443801   9.105485   7.984405   8.459859   5.809534
    45  O   12.142104  10.786255   9.823790   9.969535   7.389532
    46  H   12.750141  11.395227  10.474230  10.542971   7.979325
    47  O   12.901466  11.815138  10.261254  11.880152   8.546287
    48  H   12.817145  11.787954  10.302615  11.890890   8.706514
                    6          7          8          9         10
     6  C    0.000000
     7  C    5.965630   0.000000
     8  C    5.214426   2.405982   0.000000
     9  H    3.471777   5.093747   3.114122   0.000000
    10  C    2.385758   7.420112   5.940572   3.098140   0.000000
    11  C    1.375227   7.160980   6.569600   4.710166   2.790015
    12  C    2.365489   8.301639   7.426176   5.085322   2.405180
    13  C    2.751724   8.429499   7.172048   4.438631   1.392740
    14  H    3.370761   7.795389   6.039436   2.988455   1.081667
    15  H    2.154913   7.365347   7.113559   5.600760   3.872510
    16  H    3.349878   9.250390   8.477659   6.152780   3.379307
    17  C    6.121879   1.383846   1.384917   4.440880   7.155102
    18  H    5.114337   2.146433   3.879396   5.603161   7.099219
    19  H    2.446643   4.434858   4.723778   4.514734   4.725399
    20  H    6.923830   1.081430   3.381057   6.160448   8.470355
    21  H    5.738838   3.387160   1.082510   3.013292   6.046222
    22  H    7.161457   2.136071   2.138372   5.188551   8.056238
    23  S    2.600768   4.598023   3.024504   1.344824   3.011058
    24  N    4.152951   9.746619   8.349157   5.431251   2.425613
    25  C    5.011847  10.689657   9.437051   6.572253   3.644988
    26  C    6.175326  11.973676  10.716637   7.829803   4.826797
    27  C    5.093867  10.514284   9.414946   6.686494   4.069799
    28  C    7.194205  12.970101  11.817776   8.972878   6.028917
    29  C    6.280974  11.629193  10.649063   7.995773   5.441455
    30  C    7.242755  12.815349  11.791732   9.051387   6.290896
    31  H    6.459149  12.273918  10.932547   8.024934   4.994416
    32  H    4.473599   9.598198   8.532612   5.901187   3.601023
    33  H    8.130772  13.968266  12.804580   9.940824   6.953253
    34  H    6.635892  11.662453  10.808219   8.306153   6.014049
    35  C    5.027679  10.289501   8.639749   5.611062   2.902059
    36  C    6.166798  11.154938   9.369545   6.264369   3.914862
    37  C    5.144642  10.212170   8.515566   5.631351   3.155022
    38  C    7.198589  11.886925   9.940765   6.874485   4.870614
    39  C    6.328417  10.983307   9.115291   6.279020   4.266636
    40  C    7.270523  11.805162   9.819201   6.879066   5.017817
    41  H    6.434195  11.404834   9.683459   6.580917   4.283493
    42  H    4.548907   9.696962   8.151998   5.462299   2.953529
    43  H    8.119098  12.650328  10.646755   7.585622   5.768596
    44  H    6.719546  11.114447   9.250049   6.614799   4.855390
    45  O    8.464477  12.681642  10.596290   7.776778   6.231707
    46  H    9.081290  13.255616  11.126380   8.263745   6.775995
    47  O    8.467343  13.964367  13.025758  10.336047   7.627172
    48  H    8.576919  13.863411  13.013879  10.422478   7.872142
                   11         12         13         14         15
    11  C    0.000000
    12  C    1.380618   0.000000
    13  C    2.415543   1.393262   0.000000
    14  H    3.871677   3.386376   2.146722   0.000000
    15  H    1.082651   2.135087   3.391614   4.954140   0.000000
    16  H    2.135827   1.080453   2.136986   4.272032   2.455741
    17  C    7.425557   8.416308   8.313702   7.342465   7.816853
    18  H    6.051544   7.353538   7.821403   7.744401   5.972142
    19  H    3.118423   4.446558   5.117906   5.606122   3.022282
    20  H    8.062333   9.248430   9.443536   8.866517   8.176408
    21  H    7.103928   7.807458   7.364174   5.949761   7.762204
    22  H    8.475862   9.430323   9.259882   8.152691   8.888239
    23  S    3.948065   4.587936   4.234382   3.278508   4.732297
    24  N    3.691550   2.421806   1.401305   2.655370   4.555601
    25  C    4.263395   2.913354   2.443266   3.943839   4.917891
    26  C    5.312373   3.939711   3.598952   5.053863   5.847034
    27  C    4.318343   3.161772   2.978669   4.463731   4.859397
    28  C    6.213951   4.897071   4.764352   6.294145   6.598371
    29  C    5.375443   4.284619   4.311700   5.835287   5.724096
    30  C    6.242775   5.042396   5.056585   6.630376   6.544461
    31  H    5.661944   4.303348   3.855081   5.131662   6.232031
    32  H    3.874184   2.948371   2.759795   4.044101   4.472327
    33  H    7.117092   5.802557   5.686880   7.182727   7.453238
    34  H    5.766168   4.855687   4.990698   6.439720   6.024829
    35  C    4.811371   3.653960   2.442328   2.622708   5.741126
    36  C    5.998090   4.818714   3.584748   3.388809   6.934592
    37  C    5.071098   4.100771   2.990040   2.829931   5.991800
    38  C    7.152587   6.030534   4.755082   4.152897   8.116596
    39  C    6.383488   5.465837   4.314462   3.691290   7.317277
    40  C    7.321189   6.305054   5.053006   4.280107   8.287059
    41  H    6.186565   4.977514   3.840191   3.845571   7.079848
    42  H    4.459099   3.644777   2.779564   2.926325   5.318062
    43  H    8.079378   6.939873   5.666266   5.002953   9.042572
    44  H    6.850945   6.063580   5.011982   4.321921   7.747567
    45  O    8.591648   7.621598   6.371405   5.424768   9.561015
    46  H    9.193215   8.173354   6.890834   5.924838  10.174469
    47  O    7.413176   6.279388   6.390573   7.972974   7.601712
    48  H    7.544363   6.511760   6.687837   8.251151   7.685770
                   16         17         18         19         20
    16  H    0.000000
    17  C    9.431872   0.000000
    18  H    8.165916   3.387230   0.000000
    19  H    5.195093   5.092964   2.997160   0.000000
    20  H   10.164653   2.136113   2.469000   5.180184   0.000000
    21  H    8.879648   2.146228   4.961790   5.609722   4.273353
    22  H   10.456038   1.081430   4.273482   6.159988   2.452150
    23  S    5.663888   4.232987   4.734186   3.515769   5.674963
    24  N    2.633609   9.546912   9.210404   6.501718  10.772850
    25  C    2.634339  10.575138  10.012040   7.170007  11.679614
    26  C    3.405757  11.870381  11.230123   8.344014  12.965520
    27  C    2.863336  10.465209   9.793354   6.956472  11.455441
    28  C    4.184728  12.925995  12.135085   9.197009  13.930589
    29  C    3.740840  11.644709  10.807694   7.946271  12.529290
    30  C    4.326589  12.826837  11.943344   9.020351  13.732090
    31  H    3.843064  12.128019  11.569172   8.732337  13.287323
    32  H    2.954546   9.546006   8.943304   6.196773  10.525388
    33  H    5.035060  13.926289  13.101339  10.148670  14.932254
    34  H    4.365399  11.725150  10.823262   8.039859  12.512748
    35  C    3.939920   9.927226   9.974290   7.453573  11.349850
    36  C    5.037238  10.685245  10.994524   8.540162  12.218441
    37  C    4.480644   9.820383   9.939288   7.577658  11.279840
    38  C    6.288507  11.299020  11.889226   9.587989  12.963055
    39  C    5.848658  10.460075  10.899639   8.724000  12.058756
    40  C    6.636161  11.190673  11.845472   9.672046  12.886494
    41  H    5.106889  10.962699  11.218546   8.709504  12.448249
    42  H    4.069291   9.405411   9.290903   6.933389  10.747055
    43  H    7.161895  12.005815  12.737494  10.470168  13.721007
    44  H    6.477225  10.578165  11.063789   9.040410  12.178143
    45  O    7.964354  11.976298  12.857298  10.831352  13.758978
    46  H    8.485220  12.511107  13.485779  11.446038  14.332385
    47  O    5.491477  14.021311  13.025361  10.104333  14.849474
    48  H    5.764312  13.953775  12.914598  10.046048  14.712897
                   21         22         23         24         25
    21  H    0.000000
    22  H    2.468628   0.000000
    23  S    3.295219   5.147154   0.000000
    24  N    8.427692  10.451194   5.432301   0.000000
    25  C    9.566579  11.493435   6.591576   1.411729   0.000000
    26  C   10.830347  12.796143   7.807248   2.428612   1.386458
    27  C    9.603491  11.375572   6.770857   2.431748   1.381908
    28  C   11.965668  13.857793   8.968970   3.691686   2.402580
    29  C   10.867852  12.554838   8.080358   3.696079   2.400608
    30  C   11.987936  13.751122   9.094034   4.191001   2.779316
    31  H   11.004237  13.047802   7.959918   2.642636   2.133464
    32  H    8.741137  10.440978   6.037482   2.653963   2.131961
    33  H   12.940644  14.862652   9.913916   4.568008   3.385824
    34  H   11.063850  12.616188   8.427913   4.563911   3.377367
    35  C    8.557823  10.762980   5.765074   1.411843   2.430932
    36  C    9.171098  11.450491   6.665548   2.428022   2.937907
    37  C    8.405920  10.645562   5.634141   2.432660   3.594466
    38  C    9.617180  11.995308   7.356837   3.694053   4.267888
    39  C    8.864805  11.204140   6.413921   3.693925   4.746252
    40  C    9.468955  11.875313   7.243093   4.191143   5.022636
    41  H    9.508248  11.723301   7.061691   2.647853   2.709178
    42  H    8.146344  10.277694   5.212861   2.650118   3.868702
    43  H   10.260446  12.653377   8.190990   4.560633   4.938295
    44  H    8.983763  11.300157   6.643328   4.571158   5.673435
    45  O   10.147021  12.589330   8.194304   5.547393   6.353337
    46  H   10.634641  13.092937   8.792798   5.971362   6.644299
    47  O   13.243316  14.944294  10.383830   5.547308   4.135823
    48  H   13.259342  14.863538  10.498218   5.972026   4.576833
                   26         27         28         29         30
    26  C    0.000000
    27  C    2.379674   0.000000
    28  C    1.374509   2.754121   0.000000
    29  C    2.750446   1.379303   2.386670   0.000000
    30  C    2.387361   2.391354   1.381843   1.380281   0.000000
    31  H    1.080935   3.358508   2.130112   3.831371   3.366723
    32  H    3.360830   1.080852   3.834955   2.133652   3.369289
    33  H    2.141397   3.834182   1.080133   3.360067   2.126441
    34  H    3.833326   2.133971   3.371235   1.082902   2.140476
    35  C    2.959805   3.572969   4.278337   4.731749   5.019947
    36  C    3.260898   3.887739   4.355628   4.857262   5.053905
    37  C    3.939287   4.808036   5.297543   5.978651   6.186711
    38  C    4.372385   5.252592   5.402063   6.152683   6.218336
    39  C    4.908890   5.965822   6.198039   7.074686   7.177530
    40  C    5.092016   6.156033   6.245170   7.153490   7.194271
    41  H    3.084676   3.352706   3.938331   4.168449   4.417963
    42  H    4.266988   5.049303   5.631493   6.247860   6.497618
    43  H    4.961527   5.781022   5.803598   6.537089   6.547036
    44  H    5.794101   6.917357   7.087671   8.040905   8.118804
    45  O    6.327075   7.480718   7.411418   8.433200   8.404271
    46  H    6.579125   7.690455   7.554718   8.557494   8.497641
    47  O    3.608068   3.650196   2.345186   2.402101   1.357311
    48  H    4.294829   3.814319   3.150817   2.445278   1.910432
                   31         32         33         34         35
    31  H    0.000000
    32  H    4.252287   0.000000
    33  H    2.469223   4.915000   0.000000
    34  H    4.914248   2.452471   4.256175   0.000000
    35  C    2.747661   3.839746   4.971603   5.644741   0.000000
    36  C    3.114555   4.210996   4.971308   5.727784   1.381362
    37  C    3.421833   5.033812   5.855264   6.914254   1.387132
    38  C    3.990352   5.575805   5.836453   7.024335   2.400725
    39  C    4.248071   6.216043   6.620519   8.022767   2.402453
    40  C    4.491250   6.449829   6.613029   8.075338   2.779350
    41  H    3.254304   3.699557   4.624302   4.958798   2.131366
    42  H    3.761643   5.218590   6.200117   7.164640   2.134841
    43  H    4.655904   6.117784   6.167043   7.347008   3.377301
    44  H    5.049745   7.147034   7.450439   8.999061   3.385671
    45  O    5.655665   7.778024   7.671327   9.351678   4.135732
    46  H    5.974774   8.004569   7.783044   9.440355   4.577035
    47  O    4.473644   4.530675   2.550306   2.665732   6.334663
    48  H    5.243212   4.526733   3.487899   2.293257   6.856687
                   36         37         38         39         40
    36  C    0.000000
    37  C    2.379770   0.000000
    38  C    1.379793   2.750698   0.000000
    39  C    2.753851   1.373962   2.386591   0.000000
    40  C    2.391160   2.387583   1.379644   1.382430   0.000000
    41  H    1.080820   3.360949   2.133990   3.834667   3.368960
    42  H    3.358989   1.080945   3.831617   2.129088   3.366633
    43  H    2.134360   3.833540   1.082869   3.371310   2.139988
    44  H    3.833902   2.140615   3.359946   1.080123   2.127061
    45  O    3.650267   3.607753   2.401833   2.345230   1.357211
    46  H    3.814828   4.294848   2.445338   3.151015   1.910300
    47  O    6.268909   7.488380   7.352459   8.426064   8.368364
    48  H    6.787771   8.067955   7.924849   9.053234   8.992741
                   41         42         43         44         45
    41  H    0.000000
    42  H    4.252971   0.000000
    43  H    2.452773   4.914448   0.000000
    44  H    4.914705   2.467399   4.256270   0.000000
    45  O    4.530735   4.472688   2.665826   2.550400   0.000000
    46  H    4.527251   5.242668   2.293678   3.488045   0.956707
    47  O    5.570768   7.807123   7.568616   9.361659   9.520124
    48  H    6.013689   8.371491   8.118559  10.012915  10.171336
                   46         47         48
    46  H    0.000000
    47  O    9.546649   0.000000
    48  H   10.181430   0.956708   0.000000
 Stoichiometry    C24H19NO2S2
 Framework group  C1[X(C24H19NO2S2)]
 Deg. of freedom   138
 Full point group                 C1      NOp   1
 Largest Abelian subgroup         C1      NOp   1
 Largest concise Abelian subgroup C1      NOp   1
                         Standard orientation:                         
 ---------------------------------------------------------------------
 Center     Atomic      Atomic             Coordinates (Angstroms)
 Number     Number       Type             X           Y           Z
 ---------------------------------------------------------------------
      1          6           0        6.544630   -1.193879   -0.127010
      2          6           0        5.283469   -0.647909   -0.131523
      3         16           0        3.665919   -1.107322   -1.042984
      4          6           0        4.996815    0.486583    0.537830
      5          6           0        1.475687    0.036886   -0.221747
      6          6           0        1.772288   -1.094442   -0.892846
      7          6           0        7.517398   -0.549399    0.618903
      8          6           0        5.951198    1.159916    1.262339
      9          1           0        2.843406    1.345523    1.332578
     10          6           0        0.186077    0.430997    0.028463
     11          6           0        0.773630   -1.912541   -1.366813
     12          6           0       -0.536910   -1.552052   -1.124661
     13          6           0       -0.845585   -0.387156   -0.425435
     14          1           0       -0.045427    1.339810    0.567415
     15          1           0        0.986976   -2.816418   -1.923251
     16          1           0       -1.342687   -2.175375   -1.484620
     17          6           0        7.223748    0.615229    1.306247
     18          1           0        6.782458   -2.097666   -0.673346
     19          1           0        3.815781   -2.439410   -0.928305
     20          1           0        8.517553   -0.958288    0.663525
     21          1           0        5.730059    2.077989    1.791552
     22          1           0        7.997253    1.105431    1.881471
     23         16           0        3.166075    0.851646    0.124057
     24          7           0       -2.182887   -0.044483   -0.184905
     25          6           0       -3.146505   -1.044921    0.067172
     26          6           0       -4.392012   -0.989098   -0.539344
     27          6           0       -2.878694   -2.090316    0.930362
     28          6           0       -5.345494   -1.946131   -0.285899
     29          6           0       -3.822608   -3.066997    1.170354
     30          6           0       -5.062274   -2.995295    0.567641
     31          1           0       -4.612943   -0.174890   -1.215121
     32          1           0       -1.913696   -2.145516    1.414069
     33          1           0       -6.317156   -1.901598   -0.755555
     34          1           0       -3.591387   -3.881585    1.845380
     35          6           0       -2.575405    1.310294   -0.123192
     36          6           0       -3.391681    1.763268    0.894977
     37          6           0       -2.164040    2.211964   -1.093710
     38          6           0       -3.796835    3.081396    0.942072
     39          6           0       -2.544098    3.531176   -1.038879
     40          6           0       -3.368807    3.972023   -0.020733
     41          1           0       -3.723839    1.071840    1.656403
     42          1           0       -1.529535    1.868488   -1.898614
     43          1           0       -4.442764    3.415230    1.744528
     44          1           0       -2.220724    4.234697   -1.791974
     45          8           0       -3.726245    5.281320   -0.019257
     46          1           0       -4.294203    5.466041    0.728132
     47          8           0       -6.032969   -3.920806    0.776143
     48          1           0       -5.721078   -4.593785    1.380389
 ---------------------------------------------------------------------
 Rotational constants (GHZ):           0.2280536           0.0702108           0.0568934
 Leave Link  202 at Tue Jan 19 00:33:17 2021, MaxMem=  4026531840 cpu:               0.2 elap:               0.0
 (Enter /opt/ohpc/pub/libs/gaussian/g16-A.03/sandybridge/g16/l301.exe)
 Standard basis: TZVP (5D, 7F)
 Ernie: Thresh=  0.10000D-02 Tol=  0.10000D-05 Strict=F.
 There are   700 symmetry adapted cartesian basis functions of A   symmetry.
 There are   671 symmetry adapted basis functions of A   symmetry.
   671 basis functions,  1191 primitive gaussians,   700 cartesian basis functions
   109 alpha electrons      109 beta electrons
       nuclear repulsion energy      2827.2462800785 Hartrees.
 IExCor=33909 DFT=T Ex+Corr=LC-wHPBE ExCW=0 ScaHFX=  1.000000
 ScaDFX=  1.000000  1.000000  1.000000  1.000000 ScalE2=  1.000000  1.000000
 IRadAn=      5 IRanWt=     -1 IRanGd=            0 ICorTp=0 IEmpDi=  4
 HFx  wShort=  0.000000 wLong=  0.177500 cFull=  0.000000 cShort=  0.000000 cLong=  1.000000
 DFx  wShort=  0.000000 wLong=  0.177500 cFull=  0.000000 cShort=  1.000000 cLong=  0.000000
 NAtoms=   48 NActive=   48 NUniq=   48 SFac= 1.00D+00 NAtFMM=   60 NAOKFM=F Big=F
 Integral buffers will be    131072 words long.
 Raffenetti 2 integral format.
 Two-electron integral symmetry is turned on.
 Leave Link  301 at Tue Jan 19 00:33:17 2021, MaxMem=  4026531840 cpu:               0.5 elap:               0.1
 (Enter /opt/ohpc/pub/libs/gaussian/g16-A.03/sandybridge/g16/l302.exe)
 NPDir=0 NMtPBC=     1 NCelOv=     1 NCel=       1 NClECP=     1 NCelD=      1
         NCelK=      1 NCelE2=     1 NClLst=     1 CellRange=     0.0.
 One-electron integrals computed using PRISM.
 One-electron integral symmetry used in STVInt
 NBasis=   671 RedAO= T EigKep=  6.34D-06  NBF=   671
 NBsUse=   671 1.00D-06 EigRej= -1.00D+00 NBFU=   671
 Precomputing XC quadrature grid using
 IXCGrd= 4 IRadAn=           5 IRanWt=          -1 IRanGd=           0 AccXCQ= 0.00D+00.
 Generated NRdTot=       0 NPtTot=           0 NUsed=           0 NTot=          32
 NSgBfM=   657   657   657   657   657 MxSgAt=    48 MxSgA2=    48.
 Leave Link  302 at Tue Jan 19 00:33:19 2021, MaxMem=  4026531840 cpu:              10.8 elap:               1.4
 (Enter /opt/ohpc/pub/libs/gaussian/g16-A.03/sandybridge/g16/l303.exe)
 DipDrv:  MaxL=1.
 Leave Link  303 at Tue Jan 19 00:33:19 2021, MaxMem=  4026531840 cpu:               0.9 elap:               0.2
 (Enter /opt/ohpc/pub/libs/gaussian/g16-A.03/sandybridge/g16/l401.exe)
 ExpMin= 9.52D-02 ExpMax= 6.07D+04 ExpMxC= 2.07D+03 IAcc=3 IRadAn=         5 AccDes= 0.00D+00
 Harris functional with IExCor=33909 and IRadAn=       5 diagonalized for initial guess.
 HarFok:  IExCor=33909 AccDes= 0.00D+00 IRadAn=         5 IDoV= 1 UseB2=F ITyADJ=14
 ICtDFT=  3500011 ScaDFX=  1.000000  1.000000  1.000000  1.000000
 FoFCou: FMM=F IPFlag=           0 FMFlag=      100000 FMFlg1=           0
         NFxFlg=           0 DoJE=T BraDBF=F KetDBF=T FulRan=T
         wScrn=  0.000000 ICntrl=       500 IOpCl=  0 I1Cent=   200000004 NGrid=           0
         NMat0=    1 NMatS0=      1 NMatT0=    0 NMatD0=    1 NMtDS0=    0 NMtDT0=    0
 Petite list used in FoFCou.
 Harris En= -1905.65277522076    
 JPrj=0 DoOrth=F DoCkMO=F.
 Leave Link  401 at Tue Jan 19 00:33:26 2021, MaxMem=  4026531840 cpu:              60.4 elap:               7.6
 (Enter /opt/ohpc/pub/libs/gaussian/g16-A.03/sandybridge/g16/l502.exe)
 Integral symmetry usage will be decided dynamically.
 Closed shell SCF:
 Using DIIS extrapolation, IDIIS=    10.
 NGot=  4026531840 LenX=  4025539370 LenY=  4025048670
 Requested convergence on RMS density matrix=1.00D-06 within  32 cycles.
 Requested convergence on MAX density matrix=1.00D-04.
 Requested convergence on             energy=1.00D-04.
 Virtual orbitals will be shifted by   0.500 hartree.
 No special actions if energy rises.
 Dynamic level shift is on during FON iterations.

 Cycle   1  Pass 1  IDiag  1:
 FoFJK:  IHMeth= 1 ICntrl=       0 DoSepK=T KAlg= 0 I1Cent=           0 FoldK=F
 IRaf=         1 NMat=       1 IRICut=       1 DoRegI=T DoRafI=F ISym2E= 0 IDoP0=0 IntGTp=1.
 FoFCou: FMM=F IPFlag=           0 FMFlag=      100000 FMFlg1=           0
         NFxFlg=           0 DoJE=T BraDBF=F KetDBF=F FulRan=T
         wScrn=  0.000000 ICntrl=       500 IOpCl=  0 I1Cent=           0 NGrid=           0
         NMat0=    1 NMatS0=      1 NMatT0=    0 NMatD0=    1 NMtDS0=    0 NMtDT0=    0
 Symmetry not used in FoFCou.
 E= -1925.80158253349    
 DIIS: error= 2.09D-02 at cycle   1 NSaved=   1.
 NSaved= 1 IEnMin= 1 EnMin= -1925.80158253349     IErMin= 1 ErrMin= 2.09D-02
 ErrMax= 2.09D-02  0.00D+00 EMaxC= 1.00D+00 BMatC= 6.50D-01 BMatP= 6.50D-01
 IDIUse=1 WtCom= 1.00D+00 WtEn= 0.00D+00
 Coeff-Com:  0.100D+01
 Coeff:      0.100D+01
 Gap=     0.369 Goal=   None    Shift=    0.500
 T= 1279. Gap= 0.650 NK=0 IS=  110 IE=  671 IFin=  109
          NO(<0.9)=   0  NV(>0.1)=   0    109.00e < EF      0.00e >EF  Err=0.0D+00
 GapD=    0.369 DampG=1.000 DampE=0.500 DampFc=0.5000 IDamp=-1.
 Damping current iteration by 5.00D-01
 RMSDP=4.20D-03 MaxDP=2.60D-01              OVMax= 1.06D-01

 Cycle   2  Pass 1  IDiag  1:
 E= -1926.19808040467     Delta-E=       -0.396497871180 Rises=F Damp=T
 DIIS: error= 8.93D-03 at cycle   2 NSaved=   2.
 NSaved= 2 IEnMin= 2 EnMin= -1926.19808040467     IErMin= 2 ErrMin= 8.93D-03
 ErrMax= 8.93D-03  0.00D+00 EMaxC= 1.00D+00 BMatC= 9.06D-02 BMatP= 6.50D-01
 IDIUse=1 WtCom= 1.00D+00 WtEn= 0.00D+00
 Coeff-Com: -0.475D+00 0.148D+01
 Coeff:     -0.475D+00 0.148D+01
 Gap=     0.267 Goal=   None    Shift=    0.500
 T= 1152. Gap= 0.739 NK=0 IS=  110 IE=  671 IFin=  109
          NO(<0.9)=   0  NV(>0.1)=   0    109.00e < EF      0.00e >EF  Err=0.0D+00
 GapD=    0.267 DampG=1.000 DampE=1.000 DampFc=1.0000 IDamp=-1.
 RMSDP=1.75D-03 MaxDP=1.04D-01 DE=-3.96D-01 OVMax= 2.00D-02

 Cycle   3  Pass 1  IDiag  1:
 E= -1926.42092435702     Delta-E=       -0.222843952345 Rises=F Damp=F
 DIIS: error= 2.77D-03 at cycle   3 NSaved=   3.
 NSaved= 3 IEnMin= 3 EnMin= -1926.42092435702     IErMin= 3 ErrMin= 2.77D-03
 ErrMax= 2.77D-03  0.00D+00 EMaxC= 1.00D+00 BMatC= 9.14D-03 BMatP= 9.06D-02
 IDIUse=1 WtCom= 1.00D+00 WtEn= 0.00D+00
 Coeff-Com:  0.643D-01 0.631D-01 0.873D+00
 Coeff:      0.643D-01 0.631D-01 0.873D+00
 Gap=     0.256 Goal=   None    Shift=    0.500
 T=  887. Gap= 0.752 NK=0 IS=  110 IE=  671 IFin=  109
          NO(<0.9)=   0  NV(>0.1)=   0    109.00e < EF      0.00e >EF  Err=0.0D+00
 GapD=    0.256 DampG=1.000 DampE=1.000 DampFc=1.0000 IDamp=-1.
 RMSDP=6.91D-04 MaxDP=4.49D-02 DE=-2.23D-01 OVMax= 1.03D-02

 Cycle   4  Pass 1  IDiag  1:
 E= -1926.42946162792     Delta-E=       -0.008537270907 Rises=F Damp=F
 DIIS: error= 1.38D-03 at cycle   4 NSaved=   4.
 NSaved= 4 IEnMin= 4 EnMin= -1926.42946162792     IErMin= 4 ErrMin= 1.38D-03
 ErrMax= 1.38D-03  0.00D+00 EMaxC= 1.00D+00 BMatC= 1.29D-03 BMatP= 9.14D-03
 IDIUse=1 WtCom= 1.00D+00 WtEn= 0.00D+00
 Coeff-Com:  0.730D-01-0.981D-01 0.729D-01 0.952D+00
 Coeff:      0.730D-01-0.981D-01 0.729D-01 0.952D+00
 Gap=     0.251 Goal=   None    Shift=    0.500
 T=  339. Gap= 0.751 NK=0 IS=  110 IE=  671 IFin=  109
          NO(<0.9)=   0  NV(>0.1)=   0    109.00e < EF      0.00e >EF  Err=0.0D+00
 GapD=    0.251 DampG=1.000 DampE=1.000 DampFc=1.0000 IDamp=-1.
 RMSDP=3.41D-04 MaxDP=2.47D-02 DE=-8.54D-03 OVMax= 7.61D-03

 Cycle   5  Pass 1  IDiag  1:
 E= -1926.43093873566     Delta-E=       -0.001477107739 Rises=F Damp=F
 DIIS: error= 5.24D-04 at cycle   5 NSaved=   5.
 NSaved= 5 IEnMin= 5 EnMin= -1926.43093873566     IErMin= 5 ErrMin= 5.24D-04
 ErrMax= 5.24D-04  0.00D+00 EMaxC= 1.00D+00 BMatC= 1.85D-04 BMatP= 1.29D-03
 IDIUse=1 WtCom= 1.00D+00 WtEn= 0.00D+00
 Coeff-Com:  0.383D-02-0.125D-01-0.105D+00-0.236D-01 0.114D+01
 Coeff:      0.383D-02-0.125D-01-0.105D+00-0.236D-01 0.114D+01
 Gap=     0.250 Goal=   None    Shift=    0.500
 RMSDP=2.05D-04 MaxDP=1.51D-02 DE=-1.48D-03 OVMax= 6.48D-03

 Cycle   6  Pass 1  IDiag  1:
 E= -1926.43137886899     Delta-E=       -0.000440133324 Rises=F Damp=F
 DIIS: error= 4.36D-04 at cycle   6 NSaved=   6.
 NSaved= 6 IEnMin= 6 EnMin= -1926.43137886899     IErMin= 6 ErrMin= 4.36D-04
 ErrMax= 4.36D-04  0.00D+00 EMaxC= 1.00D+00 BMatC= 5.20D-05 BMatP= 1.85D-04
 IDIUse=1 WtCom= 1.00D+00 WtEn= 0.00D+00
 Coeff-Com: -0.158D-01 0.191D-01-0.515D-01-0.173D+00-0.135D+00 0.136D+01
 Coeff:     -0.158D-01 0.191D-01-0.515D-01-0.173D+00-0.135D+00 0.136D+01
 Gap=     0.251 Goal=   None    Shift=    0.500
 RMSDP=1.27D-04 MaxDP=1.01D-02 DE=-4.40D-04 OVMax= 5.61D-03

 Cycle   7  Pass 1  IDiag  1:
 E= -1926.43158200147     Delta-E=       -0.000203132484 Rises=F Damp=F
 DIIS: error= 3.06D-04 at cycle   7 NSaved=   7.
 NSaved= 7 IEnMin= 7 EnMin= -1926.43158200147     IErMin= 7 ErrMin= 3.06D-04
 ErrMax= 3.06D-04  0.00D+00 EMaxC= 1.00D+00 BMatC= 2.27D-05 BMatP= 5.20D-05
 IDIUse=1 WtCom= 1.00D+00 WtEn= 0.00D+00
 Coeff-Com: -0.676D-02 0.726D-02 0.157D-01-0.710D-01-0.449D+00 0.717D-01
 Coeff-Com:  0.143D+01
 Coeff:     -0.676D-02 0.726D-02 0.157D-01-0.710D-01-0.449D+00 0.717D-01
 Coeff:      0.143D+01
 Gap=     0.251 Goal=   None    Shift=    0.500
 RMSDP=8.23D-05 MaxDP=7.09D-03 DE=-2.03D-04 OVMax= 4.81D-03

 Cycle   8  Pass 1  IDiag  1:
 E= -1926.43168791454     Delta-E=       -0.000105913068 Rises=F Damp=F
 DIIS: error= 2.27D-04 at cycle   8 NSaved=   8.
 NSaved= 8 IEnMin= 8 EnMin= -1926.43168791454     IErMin= 8 ErrMin= 2.27D-04
 ErrMax= 2.27D-04  0.00D+00 EMaxC= 1.00D+00 BMatC= 1.00D-05 BMatP= 2.27D-05
 IDIUse=1 WtCom= 1.00D+00 WtEn= 0.00D+00
 Coeff-Com:  0.388D-02-0.694D-02 0.318D-01 0.336D-01-0.140D+00-0.648D+00
 Coeff-Com:  0.156D+00 0.157D+01
 Coeff:      0.388D-02-0.694D-02 0.318D-01 0.336D-01-0.140D+00-0.648D+00
 Coeff:      0.156D+00 0.157D+01
 Gap=     0.251 Goal=   None    Shift=    0.500
 RMSDP=5.39D-05 MaxDP=5.12D-03 DE=-1.06D-04 OVMax= 3.96D-03

 Cycle   9  Pass 1  IDiag  1:
 E= -1926.43174237572     Delta-E=       -0.000054461177 Rises=F Damp=F
 DIIS: error= 1.73D-04 at cycle   9 NSaved=   9.
 NSaved= 9 IEnMin= 9 EnMin= -1926.43174237572     IErMin= 9 ErrMin= 1.73D-04
 ErrMax= 1.73D-04  0.00D+00 EMaxC= 1.00D+00 BMatC= 4.57D-06 BMatP= 1.00D-05
 IDIUse=1 WtCom= 1.00D+00 WtEn= 0.00D+00
 Coeff-Com:  0.325D-02-0.453D-02 0.305D-02 0.447D-01 0.171D+00-0.433D+00
 Coeff-Com: -0.528D+00-0.101D+00 0.184D+01
 Coeff:      0.325D-02-0.453D-02 0.305D-02 0.447D-01 0.171D+00-0.433D+00
 Coeff:     -0.528D+00-0.101D+00 0.184D+01
 Gap=     0.251 Goal=   None    Shift=    0.500
 RMSDP=3.78D-05 MaxDP=3.55D-03 DE=-5.45D-05 OVMax= 3.17D-03

 Cycle  10  Pass 1  IDiag  1:
 E= -1926.43176965764     Delta-E=       -0.000027281922 Rises=F Damp=F
 DIIS: error= 1.24D-04 at cycle  10 NSaved=  10.
 NSaved=10 IEnMin=10 EnMin= -1926.43176965764     IErMin=10 ErrMin= 1.24D-04
 ErrMax= 1.24D-04  0.00D+00 EMaxC= 1.00D+00 BMatC= 2.11D-06 BMatP= 4.57D-06
 IDIUse=1 WtCom= 1.00D+00 WtEn= 0.00D+00
 Coeff-Com:  0.268D-03 0.200D-04-0.829D-02 0.175D-01 0.122D+00-0.510D-01
 Coeff-Com: -0.290D+00-0.591D+00 0.146D+00 0.165D+01
 Coeff:      0.268D-03 0.200D-04-0.829D-02 0.175D-01 0.122D+00-0.510D-01
 Coeff:     -0.290D+00-0.591D+00 0.146D+00 0.165D+01
 Gap=     0.251 Goal=   None    Shift=    0.500
 RMSDP=2.50D-05 MaxDP=2.29D-03 DE=-2.73D-05 OVMax= 2.35D-03

 Cycle  11  Pass 1  IDiag  1:
 E= -1926.43178257266     Delta-E=       -0.000012915020 Rises=F Damp=F
 DIIS: error= 8.72D-05 at cycle  11 NSaved=  11.
 NSaved=11 IEnMin=11 EnMin= -1926.43178257266     IErMin=11 ErrMin= 8.72D-05
 ErrMax= 8.72D-05  0.00D+00 EMaxC= 1.00D+00 BMatC= 9.48D-07 BMatP= 2.11D-06
 IDIUse=1 WtCom= 1.00D+00 WtEn= 0.00D+00
 Coeff-Com: -0.954D-03 0.137D-02-0.207D-02-0.863D-02-0.407D-01 0.156D+00
 Coeff-Com:  0.150D+00-0.267D+00-0.927D+00-0.168D+00 0.211D+01
 Coeff:     -0.954D-03 0.137D-02-0.207D-02-0.863D-02-0.407D-01 0.156D+00
 Coeff:      0.150D+00-0.267D+00-0.927D+00-0.168D+00 0.211D+01
 Gap=     0.251 Goal=   None    Shift=    0.500
 RMSDP=1.78D-05 MaxDP=1.62D-03 DE=-1.29D-05 OVMax= 1.78D-03

 Cycle  12  Pass 1  IDiag  1:
 E= -1926.43178879723     Delta-E=       -0.000006224571 Rises=F Damp=F
 DIIS: error= 6.16D-05 at cycle  12 NSaved=  12.
 NSaved=12 IEnMin=12 EnMin= -1926.43178879723     IErMin=12 ErrMin= 6.16D-05
 ErrMax= 6.16D-05  0.00D+00 EMaxC= 1.00D+00 BMatC= 4.64D-07 BMatP= 9.48D-07
 IDIUse=1 WtCom= 1.00D+00 WtEn= 0.00D+00
 Coeff-Com: -0.180D-03 0.121D-03 0.383D-02-0.832D-02-0.357D-01 0.369D-01
 Coeff-Com:  0.130D+00 0.118D+00-0.340D+00-0.101D+01 0.210D+00 0.189D+01
 Coeff:     -0.180D-03 0.121D-03 0.383D-02-0.832D-02-0.357D-01 0.369D-01
 Coeff:      0.130D+00 0.118D+00-0.340D+00-0.101D+01 0.210D+00 0.189D+01
 Gap=     0.251 Goal=   None    Shift=    0.500
 RMSDP=1.09D-05 MaxDP=9.96D-04 DE=-6.22D-06 OVMax= 1.27D-03

 Cycle  13  Pass 1  IDiag  1:
 E= -1926.43179169525     Delta-E=       -0.000002898018 Rises=F Damp=F
 DIIS: error= 4.24D-05 at cycle  13 NSaved=  13.
 NSaved=13 IEnMin=13 EnMin= -1926.43179169525     IErMin=13 ErrMin= 4.24D-05
 ErrMax= 4.24D-05  0.00D+00 EMaxC= 1.00D+00 BMatC= 2.20D-07 BMatP= 4.64D-07
 IDIUse=1 WtCom= 1.00D+00 WtEn= 0.00D+00
 Coeff-Com:  0.968D-04-0.173D-03 0.299D-02-0.136D-02-0.427D-02-0.389D-01
 Coeff-Com:  0.362D-01 0.160D+00 0.125D+00-0.678D+00-0.447D+00-0.644D-01
 Coeff-Com:  0.191D+01
 Coeff:      0.968D-04-0.173D-03 0.299D-02-0.136D-02-0.427D-02-0.389D-01
 Coeff:      0.362D-01 0.160D+00 0.125D+00-0.678D+00-0.447D+00-0.644D-01
 Coeff:      0.191D+01
 Gap=     0.251 Goal=   None    Shift=    0.500
 RMSDP=7.04D-06 MaxDP=6.37D-04 DE=-2.90D-06 OVMax= 8.89D-04

 Cycle  14  Pass 1  IDiag  1:
 E= -1926.43179302236     Delta-E=       -0.000001327111 Rises=F Damp=F
 DIIS: error= 2.80D-05 at cycle  14 NSaved=  14.
 NSaved=14 IEnMin=14 EnMin= -1926.43179302236     IErMin=14 ErrMin= 2.80D-05
 ErrMax= 2.80D-05  0.00D+00 EMaxC= 1.00D+00 BMatC= 9.80D-08 BMatP= 2.20D-07
 IDIUse=1 WtCom= 1.00D+00 WtEn= 0.00D+00
 Coeff-Com:  0.560D-04-0.612D-04 0.837D-04 0.298D-02 0.591D-02-0.282D-01
 Coeff-Com: -0.113D-01 0.320D-01 0.153D+00-0.220D-01-0.191D+00-0.107D+01
 Coeff-Com:  0.310D+00 0.182D+01
 Coeff:      0.560D-04-0.612D-04 0.837D-04 0.298D-02 0.591D-02-0.282D-01
 Coeff:     -0.113D-01 0.320D-01 0.153D+00-0.220D-01-0.191D+00-0.107D+01
 Coeff:      0.310D+00 0.182D+01
 Gap=     0.251 Goal=   None    Shift=    0.500
 RMSDP=4.29D-06 MaxDP=3.56D-04 DE=-1.33D-06 OVMax= 6.04D-04

 Cycle  15  Pass 1  IDiag  1:
 E= -1926.43179360835     Delta-E=       -0.000000585994 Rises=F Damp=F
 DIIS: error= 1.84D-05 at cycle  15 NSaved=  15.
 NSaved=15 IEnMin=15 EnMin= -1926.43179360835     IErMin=15 ErrMin= 1.84D-05
 ErrMax= 1.84D-05  0.00D+00 EMaxC= 1.00D+00 BMatC= 4.19D-08 BMatP= 9.80D-08
 IDIUse=1 WtCom= 1.00D+00 WtEn= 0.00D+00
 Coeff-Com:  0.357D-04-0.718D-04-0.801D-03 0.190D-02 0.414D-02-0.668D-03
 Coeff-Com: -0.170D-01-0.325D-01 0.398D-01 0.203D+00 0.303D-01-0.671D+00
 Coeff-Com: -0.412D+00 0.911D-01 0.176D+01
 Coeff:      0.357D-04-0.718D-04-0.801D-03 0.190D-02 0.414D-02-0.668D-03
 Coeff:     -0.170D-01-0.325D-01 0.398D-01 0.203D+00 0.303D-01-0.671D+00
 Coeff:     -0.412D+00 0.911D-01 0.176D+01
 Gap=     0.251 Goal=   None    Shift=    0.500
 RMSDP=2.62D-06 MaxDP=1.99D-04 DE=-5.86D-07 OVMax= 4.01D-04

 Cycle  16  Pass 1  IDiag  1:
 E= -1926.43179386043     Delta-E=       -0.000000252075 Rises=F Damp=F
 DIIS: error= 1.21D-05 at cycle  16 NSaved=  16.
 NSaved=16 IEnMin=16 EnMin= -1926.43179386043     IErMin=16 ErrMin= 1.21D-05
 ErrMax= 1.21D-05  0.00D+00 EMaxC= 1.00D+00 BMatC= 1.80D-08 BMatP= 4.19D-08
 IDIUse=1 WtCom= 1.00D+00 WtEn= 0.00D+00
 Coeff-Com:  0.154D-04-0.593D-04-0.267D-03-0.322D-03 0.496D-03 0.875D-02
 Coeff-Com: -0.479D-02-0.203D-01-0.345D-01 0.979D-01 0.809D-01-0.362D-01
 Coeff-Com: -0.296D+00-0.653D+00 0.884D-01 0.177D+01
 Coeff:      0.154D-04-0.593D-04-0.267D-03-0.322D-03 0.496D-03 0.875D-02
 Coeff:     -0.479D-02-0.203D-01-0.345D-01 0.979D-01 0.809D-01-0.362D-01
 Coeff:     -0.296D+00-0.653D+00 0.884D-01 0.177D+01
 Gap=     0.251 Goal=   None    Shift=    0.500
 RMSDP=1.70D-06 MaxDP=1.15D-04 DE=-2.52D-07 OVMax= 2.61D-04

 Cycle  17  Pass 1  IDiag  1:
 E= -1926.43179396675     Delta-E=       -0.000000106325 Rises=F Damp=F
 DIIS: error= 7.86D-06 at cycle  17 NSaved=  17.
 NSaved=17 IEnMin=17 EnMin= -1926.43179396675     IErMin=17 ErrMin= 7.86D-06
 ErrMax= 7.86D-06  0.00D+00 EMaxC= 1.00D+00 BMatC= 8.15D-09 BMatP= 1.80D-08
 IDIUse=1 WtCom= 1.00D+00 WtEn= 0.00D+00
 Coeff-Com: -0.158D-04 0.147D-04 0.190D-03-0.809D-03-0.144D-02 0.433D-02
 Coeff-Com:  0.443D-02 0.500D-02-0.344D-01-0.233D-01 0.417D-01 0.190D+00
 Coeff-Com: -0.380D-01-0.378D+00-0.779D+00 0.278D+00 0.173D+01
 Coeff:     -0.158D-04 0.147D-04 0.190D-03-0.809D-03-0.144D-02 0.433D-02
 Coeff:      0.443D-02 0.500D-02-0.344D-01-0.233D-01 0.417D-01 0.190D+00
 Coeff:     -0.380D-01-0.378D+00-0.779D+00 0.278D+00 0.173D+01
 Gap=     0.251 Goal=   None    Shift=    0.500
 RMSDP=1.10D-06 MaxDP=6.87D-05 DE=-1.06D-07 OVMax= 1.70D-04

 Cycle  18  Pass 1  IDiag  1:
 E= -1926.43179401242     Delta-E=       -0.000000045667 Rises=F Damp=F
 DIIS: error= 5.06D-06 at cycle  18 NSaved=  18.
 NSaved=18 IEnMin=18 EnMin= -1926.43179401242     IErMin=18 ErrMin= 5.06D-06
 ErrMax= 5.06D-06  0.00D+00 EMaxC= 1.00D+00 BMatC= 3.55D-09 BMatP= 8.15D-09
 IDIUse=1 WtCom= 1.00D+00 WtEn= 0.00D+00
 Coeff-Com: -0.162D-04 0.295D-04 0.171D-03-0.323D-03-0.102D-02 0.295D-03
 Coeff-Com:  0.379D-02 0.827D-02-0.118D-01-0.357D-01 0.102D-01 0.107D+00
 Coeff-Com:  0.454D-01-0.711D-01-0.560D+00-0.229D+00 0.247D+00 0.149D+01
 Coeff:     -0.162D-04 0.295D-04 0.171D-03-0.323D-03-0.102D-02 0.295D-03
 Coeff:      0.379D-02 0.827D-02-0.118D-01-0.357D-01 0.102D-01 0.107D+00
 Coeff:      0.454D-01-0.711D-01-0.560D+00-0.229D+00 0.247D+00 0.149D+01
 Gap=     0.251 Goal=   None    Shift=    0.500
 RMSDP=7.02D-07 MaxDP=4.36D-05 DE=-4.57D-08 OVMax= 1.11D-04

 SCF Done:  E(RLC-wHPBE) =  -1926.43179401     A.U. after   18 cycles
            NFock= 18  Conv=0.70D-06     -V/T= 2.0032
 KE= 1.920198435072D+03 PE=-1.017893608118D+04 EE= 3.505059572021D+03
 Leave Link  502 at Tue Jan 19 00:49:53 2021, MaxMem=  4026531840 cpu:            7873.0 elap:             986.7
 (Enter /opt/ohpc/pub/libs/gaussian/g16-A.03/sandybridge/g16/l508.exe)
 QCSCF skips out because SCF is already converged.
 Leave Link  508 at Tue Jan 19 00:49:53 2021, MaxMem=  4026531840 cpu:               0.2 elap:               0.1
 (Enter /opt/ohpc/pub/libs/gaussian/g16-A.03/sandybridge/g16/l601.exe)
 Copying SCF densities to generalized density rwf, IOpCl= 0 IROHF=0.

 **********************************************************************

            Population analysis using the SCF density.

 **********************************************************************

 Orbital symmetries:
       Occupied  (A) (A) (A) (A) (A) (A) (A) (A) (A) (A) (A) (A)
                 (A) (A) (A) (A) (A) (A) (A) (A) (A) (A) (A) (A)
                 (A) (A) (A) (A) (A) (A) (A) (A) (A) (A) (A) (A)
                 (A) (A) (A) (A) (A) (A) (A) (A) (A) (A) (A) (A)
                 (A) (A) (A) (A) (A) (A) (A) (A) (A) (A) (A) (A)
                 (A) (A) (A) (A) (A) (A) (A) (A) (A) (A) (A) (A)
                 (A) (A) (A) (A) (A) (A) (A) (A) (A) (A) (A) (A)
                 (A) (A) (A) (A) (A) (A) (A) (A) (A) (A) (A) (A)
                 (A) (A) (A) (A) (A) (A) (A) (A) (A) (A) (A) (A)
                 (A)
       Virtual   (A) (A) (A) (A) (A) (A) (A) (A) (A) (A) (A) (A)
                 (A) (A) (A) (A) (A) (A) (A) (A) (A) (A) (A) (A)
                 (A) (A) (A) (A) (A) (A) (A) (A) (A) (A) (A) (A)
                 (A) (A) (A) (A) (A) (A) (A) (A) (A) (A) (A) (A)
                 (A) (A) (A) (A) (A) (A) (A) (A) (A) (A) (A) (A)
                 (A) (A) (A) (A) (A) (A) (A) (A) (A) (A) (A) (A)
                 (A) (A) (A) (A) (A) (A) (A) (A) (A) (A) (A) (A)
                 (A) (A) (A) (A) (A) (A) (A) (A) (A) (A) (A) (A)
                 (A) (A) (A) (A) (A) (A) (A) (A) (A) (A) (A) (A)
                 (A) (A) (A) (A) (A) (A) (A) (A) (A) (A) (A) (A)
                 (A) (A) (A) (A) (A) (A) (A) (A) (A) (A) (A) (A)
                 (A) (A) (A) (A) (A) (A) (A) (A) (A) (A) (A) (A)
                 (A) (A) (A) (A) (A) (A) (A) (A) (A) (A) (A) (A)
                 (A) (A) (A) (A) (A) (A) (A) (A) (A) (A) (A) (A)
                 (A) (A) (A) (A) (A) (A) (A) (A) (A) (A) (A) (A)
                 (A) (A) (A) (A) (A) (A) (A) (A) (A) (A) (A) (A)
                 (A) (A) (A) (A) (A) (A) (A) (A) (A) (A) (A) (A)
                 (A) (A) (A) (A) (A) (A) (A) (A) (A) (A) (A) (A)
                 (A) (A) (A) (A) (A) (A) (A) (A) (A) (A) (A) (A)
                 (A) (A) (A) (A) (A) (A) (A) (A) (A) (A) (A) (A)
                 (A) (A) (A) (A) (A) (A) (A) (A) (A) (A) (A) (A)
                 (A) (A) (A) (A) (A) (A) (A) (A) (A) (A) (A) (A)
                 (A) (A) (A) (A) (A) (A) (A) (A) (A) (A) (A) (A)
                 (A) (A) (A) (A) (A) (A) (A) (A) (A) (A) (A) (A)
                 (A) (A) (A) (A) (A) (A) (A) (A) (A) (A) (A) (A)
                 (A) (A) (A) (A) (A) (A) (A) (A) (A) (A) (A) (A)
                 (A) (A) (A) (A) (A) (A) (A) (A) (A) (A) (A) (A)
                 (A) (A) (A) (A) (A) (A) (A) (A) (A) (A) (A) (A)
                 (A) (A) (A) (A) (A) (A) (A) (A) (A) (A) (A) (A)
                 (A) (A) (A) (A) (A) (A) (A) (A) (A) (A) (A) (A)
                 (A) (A) (A) (A) (A) (A) (A) (A) (A) (A) (A) (A)
                 (A) (A) (A) (A) (A) (A) (A) (A) (A) (A) (A) (A)
                 (A) (A) (A) (A) (A) (A) (A) (A) (A) (A) (A) (A)
                 (A) (A) (A) (A) (A) (A) (A) (A) (A) (A) (A) (A)
                 (A) (A) (A) (A) (A) (A) (A) (A) (A) (A) (A) (A)
                 (A) (A) (A) (A) (A) (A) (A) (A) (A) (A) (A) (A)
                 (A) (A) (A) (A) (A) (A) (A) (A) (A) (A) (A) (A)
                 (A) (A) (A) (A) (A) (A) (A) (A) (A) (A) (A) (A)
                 (A) (A) (A) (A) (A) (A) (A) (A) (A) (A) (A) (A)
                 (A) (A) (A) (A) (A) (A) (A) (A) (A) (A) (A) (A)
                 (A) (A) (A) (A) (A) (A) (A) (A) (A) (A) (A) (A)
                 (A) (A) (A) (A) (A) (A) (A) (A) (A) (A) (A) (A)
                 (A) (A) (A) (A) (A) (A) (A) (A) (A) (A) (A) (A)
                 (A) (A) (A) (A) (A) (A) (A) (A) (A) (A) (A) (A)
                 (A) (A) (A) (A) (A) (A) (A) (A) (A) (A) (A) (A)
                 (A) (A) (A) (A) (A) (A) (A) (A) (A) (A) (A) (A)
                 (A) (A) (A) (A) (A) (A) (A) (A) (A) (A)
 The electronic state is 1-A.
 Alpha  occ. eigenvalues --  -88.23150 -88.23068 -18.88267 -18.88160 -14.11318
 Alpha  occ. eigenvalues --  -10.04435 -10.04332 -10.02464 -10.01913 -10.01847
 Alpha  occ. eigenvalues --   -9.98988  -9.98956  -9.98954  -9.98941  -9.98940
 Alpha  occ. eigenvalues --   -9.98930  -9.98906  -9.98831  -9.98801  -9.98707
 Alpha  occ. eigenvalues --   -9.98631  -9.98548  -9.98482  -9.98424  -9.98412
 Alpha  occ. eigenvalues --   -9.98383  -9.98305  -9.98213  -9.97967  -7.81618
 Alpha  occ. eigenvalues --   -7.81547  -5.83713  -5.83646  -5.83542  -5.83467
 Alpha  occ. eigenvalues --   -5.82790  -5.82717  -1.08536  -1.08432  -0.99471
 Alpha  occ. eigenvalues --   -0.91242  -0.89482  -0.89441  -0.87892  -0.84937
 Alpha  occ. eigenvalues --   -0.80269  -0.79673  -0.79434  -0.78804  -0.78677
 Alpha  occ. eigenvalues --   -0.78138  -0.76298  -0.75194  -0.73077  -0.68501
 Alpha  occ. eigenvalues --   -0.67794  -0.66347  -0.65967  -0.64894  -0.64361
 Alpha  occ. eigenvalues --   -0.62835  -0.61262  -0.60170  -0.60049  -0.58488
 Alpha  occ. eigenvalues --   -0.58092  -0.56560  -0.54830  -0.53291  -0.52416
 Alpha  occ. eigenvalues --   -0.51187  -0.50715  -0.49545  -0.49443  -0.49171
 Alpha  occ. eigenvalues --   -0.48852  -0.48270  -0.47760  -0.47617  -0.47346
 Alpha  occ. eigenvalues --   -0.47078  -0.46864  -0.46546  -0.45307  -0.45175
 Alpha  occ. eigenvalues --   -0.44535  -0.43976  -0.43392  -0.42688  -0.41861
 Alpha  occ. eigenvalues --   -0.41284  -0.40902  -0.40466  -0.39950  -0.39627
 Alpha  occ. eigenvalues --   -0.39251  -0.39022  -0.37863  -0.35147  -0.33268
 Alpha  occ. eigenvalues --   -0.32762  -0.32161  -0.31998  -0.31298  -0.29605
 Alpha  occ. eigenvalues --   -0.29383  -0.28741  -0.24688  -0.23197
 Alpha virt. eigenvalues --    0.01913   0.02845   0.03117   0.03912   0.04097
 Alpha virt. eigenvalues --    0.04199   0.04314   0.06118   0.07592   0.08177
 Alpha virt. eigenvalues --    0.08295   0.08772   0.09715   0.10789   0.11379
 Alpha virt. eigenvalues --    0.11697   0.12435   0.13506   0.13745   0.14002
 Alpha virt. eigenvalues --    0.14285   0.15120   0.15707   0.16276   0.16838
 Alpha virt. eigenvalues --    0.17165   0.17415   0.17742   0.17880   0.18161
 Alpha virt. eigenvalues --    0.18894   0.19238   0.19600   0.20407   0.21034
 Alpha virt. eigenvalues --    0.21318   0.21556   0.22027   0.22395   0.22896
 Alpha virt. eigenvalues --    0.24083   0.24303   0.25060   0.25473   0.25884
 Alpha virt. eigenvalues --    0.26470   0.26567   0.26703   0.26865   0.27007
 Alpha virt. eigenvalues --    0.27331   0.27980   0.28117   0.28268   0.28642
 Alpha virt. eigenvalues --    0.28899   0.29236   0.29551   0.29618   0.30285
 Alpha virt. eigenvalues --    0.30394   0.30706   0.31037   0.31437   0.31577
 Alpha virt. eigenvalues --    0.31990   0.32502   0.33235   0.33404   0.33557
 Alpha virt. eigenvalues --    0.34032   0.34808   0.34883   0.35217   0.35278
 Alpha virt. eigenvalues --    0.35824   0.36110   0.36286   0.37194   0.38263
 Alpha virt. eigenvalues --    0.38532   0.38732   0.39059   0.39324   0.39498
 Alpha virt. eigenvalues --    0.39618   0.40181   0.40533   0.41222   0.41314
 Alpha virt. eigenvalues --    0.41493   0.41852   0.42401   0.43200   0.43363
 Alpha virt. eigenvalues --    0.43522   0.43748   0.43938   0.43988   0.44126
 Alpha virt. eigenvalues --    0.44684   0.44836   0.45018   0.45269   0.45824
 Alpha virt. eigenvalues --    0.46181   0.46286   0.46442   0.46823   0.47136
 Alpha virt. eigenvalues --    0.47287   0.47634   0.47766   0.48264   0.48593
 Alpha virt. eigenvalues --    0.49267   0.49391   0.49946   0.50253   0.50625
 Alpha virt. eigenvalues --    0.50884   0.51414   0.52122   0.52501   0.52812
 Alpha virt. eigenvalues --    0.53058   0.53339   0.53648   0.54028   0.54163
 Alpha virt. eigenvalues --    0.54647   0.54720   0.55237   0.55694   0.55996
 Alpha virt. eigenvalues --    0.56822   0.56882   0.57610   0.58148   0.58696
 Alpha virt. eigenvalues --    0.59237   0.59744   0.60181   0.60461   0.60928
 Alpha virt. eigenvalues --    0.61236   0.61965   0.62148   0.62379   0.62664
 Alpha virt. eigenvalues --    0.63685   0.63801   0.64204   0.64692   0.65645
 Alpha virt. eigenvalues --    0.66118   0.66837   0.67773   0.69625   0.69943
 Alpha virt. eigenvalues --    0.70312   0.71907   0.72121   0.72410   0.72994
 Alpha virt. eigenvalues --    0.73240   0.73681   0.74062   0.74481   0.75014
 Alpha virt. eigenvalues --    0.75659   0.75970   0.76699   0.76947   0.77618
 Alpha virt. eigenvalues --    0.78125   0.78779   0.79894   0.80532   0.81125
 Alpha virt. eigenvalues --    0.81762   0.82157   0.82266   0.82727   0.83458
 Alpha virt. eigenvalues --    0.84508   0.84989   0.85997   0.86678   0.87113
 Alpha virt. eigenvalues --    0.88336   0.88786   0.89747   0.90344   0.90968
 Alpha virt. eigenvalues --    0.91945   0.92030   0.92878   0.94988   0.96025
 Alpha virt. eigenvalues --    0.96465   0.97332   0.99938   1.01102   1.02950
 Alpha virt. eigenvalues --    1.05109   1.07047   1.17744   1.18799   1.19662
 Alpha virt. eigenvalues --    1.23032   1.23985   1.25119   1.25539   1.26492
 Alpha virt. eigenvalues --    1.26903   1.27295   1.27393   1.27680   1.27962
 Alpha virt. eigenvalues --    1.28497   1.28821   1.29234   1.29696   1.30190
 Alpha virt. eigenvalues --    1.30475   1.30899   1.32270   1.32471   1.32952
 Alpha virt. eigenvalues --    1.33184   1.33877   1.34951   1.35454   1.35703
 Alpha virt. eigenvalues --    1.36178   1.36653   1.37104   1.37398   1.38751
 Alpha virt. eigenvalues --    1.38810   1.39085   1.41325   1.42089   1.42520
 Alpha virt. eigenvalues --    1.43234   1.43560   1.43825   1.44640   1.44951
 Alpha virt. eigenvalues --    1.45169   1.45430   1.45866   1.46171   1.46330
 Alpha virt. eigenvalues --    1.46423   1.47030   1.47472   1.47523   1.47923
 Alpha virt. eigenvalues --    1.48008   1.48248   1.48724   1.49153   1.49936
 Alpha virt. eigenvalues --    1.50221   1.51009   1.51206   1.51391   1.52132
 Alpha virt. eigenvalues --    1.52475   1.52943   1.52980   1.53110   1.53988
 Alpha virt. eigenvalues --    1.54102   1.54562   1.55694   1.55929   1.56151
 Alpha virt. eigenvalues --    1.56204   1.56715   1.56886   1.57082   1.57551
 Alpha virt. eigenvalues --    1.57881   1.57998   1.58285   1.58780   1.59082
 Alpha virt. eigenvalues --    1.59306   1.59742   1.60042   1.60581   1.60851
 Alpha virt. eigenvalues --    1.60974   1.61561   1.61610   1.62584   1.62657
 Alpha virt. eigenvalues --    1.63503   1.64217   1.64804   1.65594   1.65928
 Alpha virt. eigenvalues --    1.67477   1.68586   1.69900   1.70253   1.70521
 Alpha virt. eigenvalues --    1.71218   1.72456   1.73181   1.75603   1.76090
 Alpha virt. eigenvalues --    1.77884   1.78708   1.79055   1.79369   1.79549
 Alpha virt. eigenvalues --    1.79716   1.80106   1.80796   1.80837   1.81353
 Alpha virt. eigenvalues --    1.81823   1.82551   1.82641   1.83754   1.84261
 Alpha virt. eigenvalues --    1.84922   1.84985   1.85435   1.86066   1.86847
 Alpha virt. eigenvalues --    1.87691   1.89040   1.89848   1.90438   1.90745
 Alpha virt. eigenvalues --    1.91156   1.91678   1.92001   1.92663   1.93198
 Alpha virt. eigenvalues --    1.93396   1.93548   1.94147   1.94342   1.95035
 Alpha virt. eigenvalues --    1.95657   1.95762   1.95968   1.96367   1.97088
 Alpha virt. eigenvalues --    1.97504   1.98184   2.00227   2.00894   2.01033
 Alpha virt. eigenvalues --    2.02121   2.02783   2.03357   2.03731   2.04581
 Alpha virt. eigenvalues --    2.04916   2.05176   2.05716   2.06481   2.08616
 Alpha virt. eigenvalues --    2.10468   2.11199   2.12062   2.12779   2.13073
 Alpha virt. eigenvalues --    2.14840   2.16393   2.17434   2.17795   2.20472
 Alpha virt. eigenvalues --    2.21247   2.21990   2.22525   2.23940   2.24674
 Alpha virt. eigenvalues --    2.25397   2.26097   2.27623   2.28164   2.28343
 Alpha virt. eigenvalues --    2.28939   2.30013   2.31000   2.32930   2.33020
 Alpha virt. eigenvalues --    2.34213   2.34573   2.34760   2.34885   2.35070
 Alpha virt. eigenvalues --    2.35391   2.36102   2.36377   2.37120   2.37450
 Alpha virt. eigenvalues --    2.37681   2.38053   2.38566   2.38803   2.39412
 Alpha virt. eigenvalues --    2.39496   2.39995   2.40110   2.40275   2.40773
 Alpha virt. eigenvalues --    2.41171   2.41689   2.41899   2.42127   2.44615
 Alpha virt. eigenvalues --    2.47157   2.48086   2.48787   2.50541   2.51277
 Alpha virt. eigenvalues --    2.51661   2.54060   2.54806   2.55028   2.55563
 Alpha virt. eigenvalues --    2.56569   2.59770   2.59844   2.60893   2.61738
 Alpha virt. eigenvalues --    2.62313   2.62785   2.63116   2.63226   2.64776
 Alpha virt. eigenvalues --    2.64851   2.65263   2.65487   2.65906   2.67080
 Alpha virt. eigenvalues --    2.67922   2.68143   2.68518   2.68916   2.70167
 Alpha virt. eigenvalues --    2.71076   2.72277   2.73182   2.74196   2.75253
 Alpha virt. eigenvalues --    2.75792   2.76310   2.77389   2.79355   2.80754
 Alpha virt. eigenvalues --    2.81183   2.82072   2.82254   2.82864   2.83554
 Alpha virt. eigenvalues --    2.85480   2.87077   2.87702   2.89104   2.89755
 Alpha virt. eigenvalues --    2.90304   2.95060   2.95224   2.96278   2.97067
 Alpha virt. eigenvalues --    2.98711   2.99804   3.01708   3.01748   3.01974
 Alpha virt. eigenvalues --    3.02491   3.03757   3.04207   3.06022   3.06321
 Alpha virt. eigenvalues --    3.06856   3.09154   3.10143   3.12180   3.13009
 Alpha virt. eigenvalues --    3.13532   3.14077   3.14501   3.15281   3.15795
 Alpha virt. eigenvalues --    3.16066   3.16726   3.18821   3.19850   3.21180
 Alpha virt. eigenvalues --    3.21548   3.22592   3.23493   3.24752   3.25470
 Alpha virt. eigenvalues --    3.26109   3.26335   3.28779   3.30396   3.30629
 Alpha virt. eigenvalues --    3.33317   3.34747   3.35450   3.38073   3.39427
 Alpha virt. eigenvalues --    3.41273   3.42550   3.45276   3.48495   3.56064
 Alpha virt. eigenvalues --    3.56587   3.57334   3.58529   3.60871   3.62174
 Alpha virt. eigenvalues --    3.72686   3.74260   3.87328   3.89223   4.09299
 Alpha virt. eigenvalues --    4.10301   4.35115   4.35249  18.98510  19.20176
 Alpha virt. eigenvalues --   21.06305  21.17286  21.24707  21.26462  21.62276
 Alpha virt. eigenvalues --   21.70155  21.72000  21.73299  21.74388  21.77653
 Alpha virt. eigenvalues --   21.84640  21.86224  21.91264  21.93835  21.95680
 Alpha virt. eigenvalues --   21.97760  21.99422  22.01369  22.04717  22.05994
 Alpha virt. eigenvalues --   22.12155  22.13318  22.18179  22.20743  32.07139
 Alpha virt. eigenvalues --   43.23807  43.24045
          Condensed to atoms (all electrons):
               1          2          3          4          5          6
     1  C    5.555952  -0.224924  -0.013775   0.374124   0.001158  -0.006498
     2  C   -0.224924   6.505205   0.075556  -0.177814  -0.022687   0.042014
     3  S   -0.013775   0.075556  15.522951  -0.207446  -0.216432   0.088844
     4  C    0.374124  -0.177814  -0.207446   6.525872   0.037506  -0.020628
     5  C    0.001158  -0.022687  -0.216432   0.037506   6.950293  -0.109896
     6  C   -0.006498   0.042014   0.088844  -0.020628  -0.109896   6.641812
     7  C    0.077548   0.350626   0.008444  -0.394808  -0.000554   0.001353
     8  C   -0.324813   0.383105   0.026512  -0.242123  -0.006273   0.002076
     9  H    0.001239   0.006154   0.023309  -0.115069  -0.114960   0.006034
    10  C    0.000556   0.001133   0.050453  -0.007099  -0.746901   0.307710
    11  C    0.000012  -0.009079  -0.030001   0.000059   0.340850  -0.309740
    12  C   -0.000004   0.001637   0.009923  -0.000145  -0.338082   0.354010
    13  C   -0.000034  -0.000892  -0.006696   0.000701   0.427826  -0.428047
    14  H    0.000013  -0.000020   0.000399  -0.001037  -0.094704   0.027805
    15  H    0.000044  -0.001193  -0.007906  -0.000054   0.033559  -0.153841
    16  H    0.000000   0.000001  -0.000023  -0.000001  -0.006131   0.025028
    17  C    0.191391  -0.393692  -0.003402   0.354582   0.001137  -0.000612
    18  H    0.467549  -0.123741  -0.007331   0.035551  -0.000014  -0.001182
    19  H    0.010816  -0.115861   0.351160   0.007730   0.007093  -0.122538
    20  H   -0.080403   0.029876  -0.000094  -0.008945  -0.000001  -0.000003
    21  H   -0.004228   0.035086   0.000339  -0.123411  -0.001026  -0.000024
    22  H    0.026907  -0.009026   0.000047   0.030175  -0.000002  -0.000002
    23  S    0.025375  -0.200976   0.195990   0.077644   0.085868  -0.209766
    24  N    0.000000  -0.000002   0.000023  -0.000006   0.020642   0.006712
    25  C   -0.000000  -0.000000  -0.000094   0.000001  -0.000369   0.000684
    26  C   -0.000000   0.000000   0.000002  -0.000000  -0.000573   0.000587
    27  C    0.000000  -0.000001   0.000008  -0.000001   0.003557  -0.003871
    28  C   -0.000000   0.000000   0.000000   0.000000  -0.000125   0.000047
    29  C    0.000000  -0.000000   0.000000  -0.000000   0.000080  -0.000352
    30  C    0.000000  -0.000000   0.000000  -0.000000   0.000035  -0.000003
    31  H    0.000000  -0.000000  -0.000000  -0.000000   0.000062  -0.000026
    32  H    0.000000  -0.000000  -0.000011  -0.000001   0.000699   0.000983
    33  H    0.000000  -0.000000  -0.000000   0.000000   0.000000  -0.000000
    34  H    0.000000  -0.000000  -0.000000   0.000000  -0.000001  -0.000005
    35  C    0.000000  -0.000001   0.000093  -0.000004  -0.022187   0.003448
    36  C   -0.000000   0.000000  -0.000003   0.000001   0.005152  -0.000418
    37  C    0.000000   0.000001   0.000015  -0.000005  -0.017751   0.000965
    38  C   -0.000000   0.000000   0.000000   0.000000  -0.000054   0.000033
    39  C    0.000000  -0.000000   0.000001   0.000000  -0.001551   0.000040
    40  C    0.000000   0.000000  -0.000000  -0.000000  -0.000243  -0.000011
    41  H    0.000000  -0.000000   0.000000  -0.000000  -0.000149   0.000013
    42  H    0.000000   0.000000   0.000012  -0.000003  -0.005236   0.000701
    43  H    0.000000  -0.000000   0.000000  -0.000000  -0.000006   0.000000
    44  H   -0.000000  -0.000000   0.000000   0.000000   0.000019  -0.000001
    45  O   -0.000000   0.000000   0.000000   0.000000   0.000001   0.000000
    46  H    0.000000   0.000000   0.000000  -0.000000  -0.000000  -0.000000
    47  O    0.000000  -0.000000  -0.000000  -0.000000  -0.000000   0.000000
    48  H    0.000000  -0.000000   0.000000  -0.000000   0.000000  -0.000000
               7          8          9         10         11         12
     1  C    0.077548  -0.324813   0.001239   0.000556   0.000012  -0.000004
     2  C    0.350626   0.383105   0.006154   0.001133  -0.009079   0.001637
     3  S    0.008444   0.026512   0.023309   0.050453  -0.030001   0.009923
     4  C   -0.394808  -0.242123  -0.115069  -0.007099   0.000059  -0.000145
     5  C   -0.000554  -0.006273  -0.114960  -0.746901   0.340850  -0.338082
     6  C    0.001353   0.002076   0.006034   0.307710  -0.309740   0.354010
     7  C    5.299517   0.193218  -0.000393  -0.000076   0.000023   0.000002
     8  C    0.193218   5.565277   0.010627  -0.000691   0.000613  -0.000069
     9  H   -0.000393   0.010627   0.717045   0.014693   0.002040  -0.001508
    10  C   -0.000076  -0.000691   0.014693   6.487428  -0.305532  -0.062316
    11  C    0.000023   0.000613   0.002040  -0.305532   5.741710  -0.065400
    12  C    0.000002  -0.000069  -0.001508  -0.062316  -0.065400   5.857665
    13  C    0.000001   0.000049  -0.001852  -0.139770   0.234425   0.122298
    14  H   -0.000002   0.000015   0.005635   0.439366  -0.002153   0.010547
    15  H    0.000001   0.000014   0.000061  -0.001518   0.484982  -0.094467
    16  H   -0.000000   0.000000  -0.000000   0.021203  -0.062498   0.415531
    17  C    0.270962   0.076415  -0.002285   0.000048  -0.000066   0.000003
    18  H   -0.085077  -0.004594   0.000059   0.000015   0.000042  -0.000002
    19  H   -0.002520   0.001102   0.000661   0.001313   0.017121  -0.005145
    20  H    0.436872   0.026772   0.000004   0.000000   0.000000  -0.000000
    21  H    0.018105   0.467639   0.007068   0.000032   0.000015  -0.000002
    22  H   -0.078931  -0.080503   0.000056   0.000000   0.000000  -0.000000
    23  S   -0.002924  -0.013428   0.351353  -0.013485   0.031688  -0.006697
    24  N   -0.000000   0.000000   0.000116  -0.007836   0.019855  -0.017419
    25  C    0.000000   0.000000  -0.000029  -0.011496  -0.001217   0.031433
    26  C   -0.000000  -0.000000  -0.000000  -0.012412   0.000814   0.030926
    27  C   -0.000000   0.000000   0.000021   0.024262  -0.001223  -0.098482
    28  C    0.000000  -0.000000  -0.000000  -0.000153  -0.000233   0.001627
    29  C   -0.000000   0.000000   0.000001   0.001475   0.000701  -0.005638
    30  C   -0.000000   0.000000   0.000000   0.000039  -0.000157  -0.001469
    31  H    0.000000   0.000000  -0.000000  -0.000254   0.000049  -0.000074
    32  H    0.000000   0.000000  -0.000003   0.000034  -0.002077   0.003205
    33  H    0.000000   0.000000   0.000000   0.000003  -0.000001  -0.000039
    34  H   -0.000000  -0.000000   0.000000  -0.000029   0.000017  -0.000084
    35  C   -0.000000  -0.000000   0.000205   0.063558  -0.001701  -0.012924
    36  C    0.000000   0.000000  -0.000008   0.018814   0.000394  -0.016016
    37  C   -0.000000  -0.000000  -0.000020  -0.062263  -0.000780   0.032744
    38  C    0.000000  -0.000000   0.000001   0.001868  -0.000070  -0.000078
    39  C   -0.000000  -0.000000  -0.000004  -0.007579  -0.000148   0.001653
    40  C   -0.000000   0.000000  -0.000002  -0.001906   0.000017   0.000137
    41  H   -0.000000   0.000000   0.000001   0.000456   0.000005  -0.000256
    42  H   -0.000000   0.000000   0.000006   0.006586   0.000331  -0.000271
    43  H   -0.000000  -0.000000   0.000000  -0.000039  -0.000000   0.000003
    44  H    0.000000  -0.000000   0.000000   0.000079   0.000001  -0.000035
    45  O    0.000000  -0.000000   0.000000   0.000015  -0.000000   0.000000
    46  H   -0.000000   0.000000   0.000000  -0.000001   0.000000   0.000000
    47  O    0.000000  -0.000000   0.000000   0.000000   0.000000   0.000004
    48  H   -0.000000  -0.000000   0.000000  -0.000000   0.000000  -0.000001
              13         14         15         16         17         18
     1  C   -0.000034   0.000013   0.000044   0.000000   0.191391   0.467549
     2  C   -0.000892  -0.000020  -0.001193   0.000001  -0.393692  -0.123741
     3  S   -0.006696   0.000399  -0.007906  -0.000023  -0.003402  -0.007331
     4  C    0.000701  -0.001037  -0.000054  -0.000001   0.354582   0.035551
     5  C    0.427826  -0.094704   0.033559  -0.006131   0.001137  -0.000014
     6  C   -0.428047   0.027805  -0.153841   0.025028  -0.000612  -0.001182
     7  C    0.000001  -0.000002   0.000001  -0.000000   0.270962  -0.085077
     8  C    0.000049   0.000015   0.000014   0.000000   0.076415  -0.004594
     9  H   -0.001852   0.005635   0.000061  -0.000000  -0.002285   0.000059
    10  C   -0.139770   0.439366  -0.001518   0.021203   0.000048   0.000015
    11  C    0.234425  -0.002153   0.484982  -0.062498  -0.000066   0.000042
    12  C    0.122298   0.010547  -0.094467   0.415531   0.000003  -0.000002
    13  C    5.898703  -0.062839   0.031251  -0.059467  -0.000000  -0.000000
    14  H   -0.062839   0.534651   0.000012  -0.000181   0.000003   0.000000
    15  H    0.031251   0.000012   0.619922  -0.008797  -0.000002   0.000004
    16  H   -0.059467  -0.000181  -0.008797   0.533041   0.000000   0.000000
    17  C   -0.000000   0.000003  -0.000002   0.000000   5.295995   0.018477
    18  H   -0.000000   0.000000   0.000004   0.000000   0.018477   0.604537
    19  H    0.000970   0.000031   0.007099   0.000003  -0.000331   0.007473
    20  H   -0.000000  -0.000000   0.000000  -0.000000  -0.078572  -0.008410
    21  H    0.000001  -0.000001   0.000000  -0.000000  -0.084429   0.000057
    22  H   -0.000000   0.000000   0.000000   0.000000   0.436838  -0.000084
    23  S    0.010175  -0.007704   0.000303   0.000003   0.007573   0.000339
    24  N    0.135962  -0.006656  -0.000308  -0.007522  -0.000000   0.000000
[...]
    17  C   -0.000000   0.000000  -0.000000  -0.000000  -0.000000   0.000000
    18  H   -0.000000  -0.000000   0.000000   0.000000   0.000000   0.000000
    19  H   -0.000006  -0.000000   0.000008   0.000000   0.000000   0.000000
    20  H   -0.000000  -0.000000   0.000000   0.000000   0.000000  -0.000000
    21  H   -0.000000  -0.000000   0.000000  -0.000000   0.000000  -0.000000
    22  H   -0.000000  -0.000000   0.000000   0.000000   0.000000  -0.000000
    23  S   -0.000026  -0.000000   0.000020   0.000000   0.000002  -0.000000
    24  N    0.103499  -0.002013  -0.022388   0.017779   0.030133   0.004125
    25  C    5.702711   0.300439   0.272958   0.043512   0.109470  -0.178134
    26  C    0.300439   5.263049  -0.138689   0.279140  -0.072058   0.021130
    27  C    0.272958  -0.138689   5.680068  -0.020481  -0.243959   0.142907
    28  C    0.043512   0.279140  -0.020481   5.416266  -0.181594   0.369841
    29  C    0.109470  -0.072058  -0.243959  -0.181594   6.246662   0.108198
    30  C   -0.178134   0.021130   0.142907   0.369841   0.108198   5.159873
    31  H   -0.058458   0.440936   0.020094  -0.082915  -0.004982   0.022438
    32  H   -0.036583   0.013372   0.398757  -0.000528  -0.042445   0.011009
    33  H    0.021823  -0.051706  -0.004433   0.427879   0.019821  -0.085433
    34  H    0.014541   0.003455   0.010530   0.005621   0.381595  -0.090259
    35  C   -0.116016   0.036546  -0.018938  -0.002826  -0.000905   0.002327
    36  C    0.051308  -0.060736   0.013550  -0.005940   0.002480  -0.001947
    37  C   -0.010716   0.012148  -0.013290   0.001458   0.000539  -0.000038
    38  C   -0.016146  -0.000887   0.002646   0.000812   0.000003  -0.000114
    39  C   -0.004903   0.003505   0.000036   0.000005  -0.000150   0.000050
    40  C    0.003801  -0.002309  -0.000117  -0.000188   0.000075  -0.000025
    41  H    0.005746   0.004004  -0.005345  -0.002603   0.002699   0.000268
    42  H   -0.001310   0.000602  -0.000486   0.000015   0.000045  -0.000011
    43  H   -0.000105   0.000093  -0.000052   0.000035  -0.000009  -0.000001
    44  H   -0.000031  -0.000016   0.000004  -0.000002  -0.000000   0.000000
    45  O    0.000017  -0.000006   0.000000  -0.000000  -0.000000   0.000000
    46  H    0.000000  -0.000001  -0.000000   0.000000   0.000000  -0.000000
    47  O   -0.001868   0.006488   0.023914  -0.082919  -0.122559   0.414161
    48  H   -0.000748  -0.001917   0.008554   0.020225  -0.043753  -0.025311
              31         32         33         34         35         36
     1  C    0.000000   0.000000   0.000000   0.000000   0.000000  -0.000000
     2  C   -0.000000  -0.000000  -0.000000  -0.000000  -0.000001   0.000000
     3  S   -0.000000  -0.000011  -0.000000  -0.000000   0.000093  -0.000003
     4  C   -0.000000  -0.000001   0.000000   0.000000  -0.000004   0.000001
     5  C    0.000062   0.000699   0.000000  -0.000001  -0.022187   0.005152
     6  C   -0.000026   0.000983  -0.000000  -0.000005   0.003448  -0.000418
     7  C    0.000000   0.000000   0.000000  -0.000000  -0.000000   0.000000
     8  C    0.000000   0.000000   0.000000  -0.000000  -0.000000   0.000000
     9  H   -0.000000  -0.000003   0.000000   0.000000   0.000205  -0.000008
    10  C   -0.000254   0.000034   0.000003  -0.000029   0.063558   0.018814
    11  C    0.000049  -0.002077  -0.000001   0.000017  -0.001701   0.000394
    12  C   -0.000074   0.003205  -0.000039  -0.000084  -0.012924  -0.016016
    13  C   -0.001606  -0.003263   0.000005   0.000014  -0.115038  -0.017051
    14  H   -0.000010   0.000030  -0.000000   0.000000   0.009961  -0.003717
    15  H    0.000000  -0.000087   0.000000   0.000001   0.000157   0.000004
    16  H    0.000041   0.001203   0.000009  -0.000010  -0.001561  -0.000464
    17  C   -0.000000   0.000000  -0.000000  -0.000000  -0.000000  -0.000000
    18  H   -0.000000  -0.000000  -0.000000   0.000000   0.000000  -0.000000
    19  H   -0.000000  -0.000002   0.000000   0.000000   0.000005  -0.000000
    20  H   -0.000000  -0.000000   0.000000   0.000000   0.000000   0.000000
    21  H    0.000000  -0.000000   0.000000   0.000000   0.000000   0.000000
    22  H   -0.000000  -0.000000  -0.000000   0.000000   0.000000  -0.000000
    23  S   -0.000000  -0.000018   0.000000   0.000000   0.000017   0.000021
    24  N   -0.010822  -0.006989  -0.000578  -0.000797   0.124696  -0.029724
    25  C   -0.058458  -0.036583   0.021823   0.014541  -0.116016   0.051308
    26  C    0.440936   0.013372  -0.051706   0.003455   0.036546  -0.060736
    27  C    0.020094   0.398757  -0.004433   0.010530  -0.018938   0.013550
    28  C   -0.082915  -0.000528   0.427879   0.005621  -0.002826  -0.005940
    29  C   -0.004982  -0.042445   0.019821   0.381595  -0.000905   0.002480
    30  C    0.022438   0.011009  -0.085433  -0.090259   0.002327  -0.001947
    31  H    0.550999  -0.000245  -0.010096   0.000028   0.002942   0.005133
    32  H   -0.000245   0.530253   0.000030  -0.007116  -0.001948   0.001055
    33  H   -0.010096   0.000030   0.566552  -0.000326  -0.000268   0.000152
    34  H    0.000028  -0.007116  -0.000326   0.583233  -0.000004  -0.000038
    35  C    0.002942  -0.001948  -0.000268  -0.000004   5.721162   0.257949
    36  C    0.005133   0.001055   0.000152  -0.000038   0.257949   5.667931
    37  C   -0.002893  -0.000495  -0.000025   0.000002   0.282516  -0.134698
    38  C   -0.003662  -0.000050   0.000020  -0.000004   0.138956  -0.289318
    39  C    0.001313   0.000023  -0.000007   0.000000   0.029200  -0.014812
    40  C    0.000419  -0.000006   0.000003   0.000000  -0.179862   0.154694
    41  H    0.000889   0.000131  -0.000024   0.000011  -0.033925   0.402021
    42  H    0.000065  -0.000007   0.000001   0.000000  -0.059992   0.018873
    43  H   -0.000030   0.000000  -0.000000   0.000000   0.014843   0.010369
    44  H    0.000003  -0.000000  -0.000000  -0.000000   0.022026  -0.004486
    45  O   -0.000000   0.000000  -0.000000  -0.000000  -0.002464   0.024866
    46  H    0.000001  -0.000000  -0.000000   0.000000  -0.000858   0.009024
    47  O   -0.000115  -0.000081   0.002427  -0.006644  -0.000011   0.000006
    48  H    0.000035  -0.000052  -0.000787   0.001788  -0.000001  -0.000000
              37         38         39         40         41         42
     1  C    0.000000  -0.000000   0.000000   0.000000   0.000000   0.000000
     2  C    0.000001   0.000000  -0.000000   0.000000  -0.000000   0.000000
     3  S    0.000015   0.000000   0.000001  -0.000000   0.000000   0.000012
     4  C   -0.000005   0.000000   0.000000  -0.000000  -0.000000  -0.000003
     5  C   -0.017751  -0.000054  -0.001551  -0.000243  -0.000149  -0.005236
     6  C    0.000965   0.000033   0.000040  -0.000011   0.000013   0.000701
     7  C   -0.000000   0.000000  -0.000000  -0.000000  -0.000000  -0.000000
     8  C   -0.000000  -0.000000  -0.000000   0.000000   0.000000   0.000000
     9  H   -0.000020   0.000001  -0.000004  -0.000002   0.000001   0.000006
    10  C   -0.062263   0.001868  -0.007579  -0.001906   0.000456   0.006586
    11  C   -0.000780  -0.000070  -0.000148   0.000017   0.000005   0.000331
    12  C    0.032744  -0.000078   0.001653   0.000137  -0.000256  -0.000271
    13  C    0.016578  -0.000412   0.003716   0.001178  -0.002136  -0.005155
    14  H    0.003588   0.002059  -0.002032   0.000500   0.000146   0.001544
    15  H   -0.000068   0.000000  -0.000002   0.000000  -0.000000   0.000006
    16  H    0.000589   0.000024   0.000010  -0.000003  -0.000012  -0.000004
    17  C    0.000000  -0.000000   0.000000   0.000000   0.000000   0.000000
    18  H    0.000000  -0.000000   0.000000   0.000000   0.000000   0.000000
    19  H   -0.000001   0.000000   0.000000  -0.000000   0.000000   0.000000
    20  H   -0.000000   0.000000  -0.000000  -0.000000   0.000000   0.000000
    21  H   -0.000000   0.000000  -0.000000  -0.000000   0.000000   0.000000
    22  H    0.000000  -0.000000  -0.000000  -0.000000   0.000000   0.000000
    23  S    0.000032  -0.000002   0.000001  -0.000000  -0.000001   0.000007
    24  N    0.002725   0.030668   0.012741   0.004770  -0.010470  -0.005707
    25  C   -0.010716  -0.016146  -0.004903   0.003801   0.005746  -0.001310
    26  C    0.012148  -0.000887   0.003505  -0.002309   0.004004   0.000602
    27  C   -0.013290   0.002646   0.000036  -0.000117  -0.005345  -0.000486
    28  C    0.001458   0.000812   0.000005  -0.000188  -0.002603   0.000015
    29  C    0.000539   0.000003  -0.000150   0.000075   0.002699   0.000045
    30  C   -0.000038  -0.000114   0.000050  -0.000025   0.000268  -0.000011
    31  H   -0.002893  -0.003662   0.001313   0.000419   0.000889   0.000065
    32  H   -0.000495  -0.000050   0.000023  -0.000006   0.000131  -0.000007
    33  H   -0.000025   0.000020  -0.000007   0.000003  -0.000024   0.000001
    34  H    0.000002  -0.000004   0.000000   0.000000   0.000011   0.000000
    35  C    0.282516   0.138956   0.029200  -0.179862  -0.033925  -0.059992
    36  C   -0.134698  -0.289318  -0.014812   0.154694   0.402021   0.018873
    37  C    5.287159  -0.085148   0.324891   0.015004   0.013864   0.433124
    38  C   -0.085148   6.316131  -0.180475   0.078651  -0.053275  -0.004814
    39  C    0.324891  -0.180475   5.345004   0.391494  -0.000316  -0.067591
    40  C    0.015004   0.078651   0.391494   5.165844   0.011822   0.021063
    41  H    0.013864  -0.053275  -0.000316   0.011822   0.541390  -0.000263
    42  H    0.433124  -0.004814  -0.067591   0.021063  -0.000263   0.536704
    43  H    0.003358   0.382019   0.005495  -0.090421  -0.007183   0.000023
    44  H   -0.049742   0.019997   0.425168  -0.085085   0.000031  -0.009875
    45  O    0.007133  -0.123477  -0.083217   0.414498  -0.000059  -0.000107
    46  H   -0.001783  -0.044921   0.019669  -0.024006  -0.000047   0.000035
    47  O    0.000000   0.000000  -0.000000   0.000000  -0.000006  -0.000000
    48  H   -0.000000   0.000000   0.000000  -0.000000  -0.000002  -0.000000
              43         44         45         46         47         48
     1  C    0.000000  -0.000000  -0.000000   0.000000   0.000000   0.000000
     2  C   -0.000000  -0.000000   0.000000   0.000000  -0.000000  -0.000000
     3  S    0.000000   0.000000   0.000000   0.000000  -0.000000   0.000000
     4  C   -0.000000   0.000000   0.000000  -0.000000  -0.000000  -0.000000
     5  C   -0.000006   0.000019   0.000001  -0.000000  -0.000000   0.000000
     6  C    0.000000  -0.000001   0.000000  -0.000000   0.000000  -0.000000
     7  C   -0.000000   0.000000   0.000000  -0.000000   0.000000  -0.000000
     8  C   -0.000000  -0.000000  -0.000000   0.000000  -0.000000  -0.000000
     9  H    0.000000   0.000000   0.000000   0.000000   0.000000   0.000000
    10  C   -0.000039   0.000079   0.000015  -0.000001   0.000000  -0.000000
    11  C   -0.000000   0.000001  -0.000000   0.000000   0.000000   0.000000
    12  C    0.000003  -0.000035   0.000000   0.000000   0.000004  -0.000001
    13  C    0.000009  -0.000165  -0.000009  -0.000000   0.000008   0.000000
    14  H    0.000023   0.000004  -0.000009  -0.000001   0.000000  -0.000000
    15  H   -0.000000   0.000000  -0.000000  -0.000000  -0.000000  -0.000000
    16  H   -0.000000   0.000000  -0.000000  -0.000000  -0.000003   0.000001
    17  C    0.000000  -0.000000   0.000000   0.000000  -0.000000   0.000000
    18  H    0.000000   0.000000  -0.000000   0.000000  -0.000000   0.000000
    19  H    0.000000   0.000000   0.000000   0.000000  -0.000000   0.000000
    20  H    0.000000   0.000000  -0.000000  -0.000000  -0.000000   0.000000
    21  H   -0.000000   0.000000  -0.000000  -0.000000   0.000000   0.000000
    22  H    0.000000   0.000000   0.000000   0.000000   0.000000   0.000000
    23  S   -0.000000  -0.000001   0.000000   0.000000   0.000000   0.000000
    24  N   -0.000740  -0.000651  -0.000010  -0.000003  -0.000008  -0.000003
    25  C   -0.000105  -0.000031   0.000017   0.000000  -0.001868  -0.000748
    26  C    0.000093  -0.000016  -0.000006  -0.000001   0.006488  -0.001917
    27  C   -0.000052   0.000004   0.000000  -0.000000   0.023914   0.008554
    28  C    0.000035  -0.000002  -0.000000   0.000000  -0.082919   0.020225
    29  C   -0.000009  -0.000000  -0.000000   0.000000  -0.122559  -0.043753
    30  C   -0.000001   0.000000   0.000000  -0.000000   0.414161  -0.025311
    31  H   -0.000030   0.000003  -0.000000   0.000001  -0.000115   0.000035
    32  H    0.000000  -0.000000   0.000000  -0.000000  -0.000081  -0.000052
    33  H   -0.000000  -0.000000  -0.000000  -0.000000   0.002427  -0.000787
    34  H    0.000000  -0.000000  -0.000000   0.000000  -0.006644   0.001788
    35  C    0.014843   0.022026  -0.002464  -0.000858  -0.000011  -0.000001
    36  C    0.010369  -0.004486   0.024866   0.009024   0.000006  -0.000000
    37  C    0.003358  -0.049742   0.007133  -0.001783   0.000000  -0.000000
    38  C    0.382019   0.019997  -0.123477  -0.044921   0.000000   0.000000
    39  C    0.005495   0.425168  -0.083217   0.019669  -0.000000   0.000000
    40  C   -0.090421  -0.085085   0.414498  -0.024006   0.000000  -0.000000
    41  H   -0.007183   0.000031  -0.000059  -0.000047  -0.000006  -0.000002
    42  H    0.000023  -0.009875  -0.000107   0.000035  -0.000000  -0.000000
    43  H    0.582508  -0.000321  -0.006784   0.001650  -0.000000   0.000000
    44  H   -0.000321   0.565186   0.002586  -0.000797  -0.000000   0.000000
    45  O   -0.006784   0.002586   7.700600   0.304124  -0.000000  -0.000000
    46  H    0.001650  -0.000797   0.304124   0.470356   0.000000  -0.000000
    47  O   -0.000000  -0.000000  -0.000000   0.000000   7.701167   0.304141
    48  H    0.000000   0.000000  -0.000000  -0.000000   0.304141   0.470219
 Mulliken charges:
               1
     1  C   -0.078006
     2  C   -0.150483
     3  S    0.139133
     4  C   -0.145346
     5  C   -0.209628
     6  C   -0.143435
     7  C   -0.091388
     8  C   -0.080937
     9  H    0.089743
    10  C   -0.059784
    11  C   -0.083689
    12  C   -0.146725
    13  C    0.031664
    14  H    0.146132
    15  H    0.090621
    16  H    0.146249
    17  C   -0.090032
    18  H    0.096332
    19  H    0.087216
    20  H    0.102680
    21  H    0.096646
    22  H    0.102715
    23  S    0.138491
    24  N    0.002320
    25  C   -0.143910
    26  C   -0.049009
    27  C   -0.073211
    28  C   -0.204482
    29  C   -0.175811
    30  C    0.124410
    31  H    0.130743
    32  H    0.141218
    33  H    0.114999
    34  H    0.104480
    35  C   -0.139174
    36  C   -0.064421
    37  C   -0.058720
    38  C   -0.170981
    39  C   -0.201229
    40  C    0.120214
    41  H    0.132573
    42  H    0.141086
    43  H    0.105263
    44  H    0.116104
    45  O   -0.237698
    46  H    0.267557
    47  O   -0.238104
    48  H    0.267613
 Sum of Mulliken charges =  -0.00000
 Mulliken charges with hydrogens summed into heavy atoms:
               1
     1  C    0.018326
     2  C   -0.150483
     3  S    0.226349
     4  C   -0.145346
     5  C   -0.209628
     6  C   -0.143435
     7  C    0.011292
     8  C    0.015709
    10  C    0.086348
    11  C    0.006932
    12  C   -0.000475
    13  C    0.031664
    17  C    0.012683
    23  S    0.228234
    24  N    0.002320
    25  C   -0.143910
    26  C    0.081733
    27  C    0.068007
    28  C   -0.089484
    29  C   -0.071331
    30  C    0.124410
    35  C   -0.139174
    36  C    0.068152
    37  C    0.082366
    38  C   -0.065719
    39  C   -0.085125
    40  C    0.120214
    45  O    0.029860
    47  O    0.029508
 Electronic spatial extent (au):  <R**2>=          17769.8355
 Charge=             -0.0000 electrons
 Dipole moment (field-independent basis, Debye):
    X=             -0.9519    Y=             -1.3859    Z=              3.0604  Tot=              3.4919
 Quadrupole moment (field-independent basis, Debye-Ang):
   XX=           -174.8567   YY=           -165.6971   ZZ=           -177.7507
   XY=             -6.8319   XZ=             -5.3762   YZ=              5.1308
 Traceless Quadrupole moment (field-independent basis, Debye-Ang):
   XX=             -2.0885   YY=              7.0710   ZZ=             -4.9825
   XY=             -6.8319   XZ=             -5.3762   YZ=              5.1308
 Octapole moment (field-independent basis, Debye-Ang**2):
  XXX=             62.2454  YYY=            -63.3707  ZZZ=             11.4248  XYY=            -53.2696
  XXY=             27.2306  XXZ=             76.1924  XZZ=            -37.9609  YZZ=              4.7961
  YYZ=             68.7594  XYZ=             21.2159
 Hexadecapole moment (field-independent basis, Debye-Ang**3):
 XXXX=         -17761.4795 YYYY=          -4745.4464 ZZZZ=           -966.2831 XXXY=           -555.5267
 XXXZ=             45.5444 YYYX=             63.2912 YYYZ=             39.1079 ZZZX=            -50.0156
 ZZZY=            -27.4256 XXYY=          -3473.6690 XXZZ=          -3151.0786 YYZZ=           -864.9894
 XXYZ=            171.8848 YYXZ=           -385.3610 ZZXY=             60.6262
 N-N= 2.827246280079D+03 E-N=-1.017893600831D+04  KE= 1.920198435072D+03
 No NMR shielding tensors so no spin-rotation constants.
 Leave Link  601 at Tue Jan 19 00:49:54 2021, MaxMem=  4026531840 cpu:               3.6 elap:               0.5
 (Enter /opt/ohpc/pub/libs/gaussian/g16-A.03/sandybridge/g16/l9999.exe)

 Test job not archived.
 1\1\GINC-CASCADEB025\SP\RLC-wHPBE\TZVP\C24H19N1O2S2\RDU230\19-Jan-2021
 \0\\#P LC-wHPBE/TZVP iop(3/107=0177500000, 3/108=0177500000) scf=(conv
 er=6,fermi,ndamp=35,noincfock,novaracc,vshift=500,xqc)\\H19 C24 S2 N1 
 O2\\0,1\C,0,-6.54463,-1.193879,0.12701\C,0,-5.283469,-0.647909,0.13152
 3\S,0,-3.665919,-1.107322,1.042984\C,0,-4.996815,0.486583,-0.53783\C,0
 ,-1.475687,0.036886,0.221747\C,0,-1.772288,-1.094442,0.892846\C,0,-7.5
 17398,-0.549399,-0.618903\C,0,-5.951198,1.159916,-1.262339\H,0,-2.8434
 06,1.345523,-1.332578\C,0,-0.186077,0.430997,-0.028463\C,0,-0.77363,-1
 .912541,1.366813\C,0,0.53691,-1.552052,1.124661\C,0,0.845585,-0.387156
 ,0.425435\H,0,0.045427,1.33981,-0.567415\H,0,-0.986976,-2.816418,1.923
 251\H,0,1.342687,-2.175375,1.48462\C,0,-7.223748,0.615229,-1.306247\H,
 0,-6.782458,-2.097666,0.673346\H,0,-3.815781,-2.43941,0.928305\H,0,-8.
 517553,-0.958288,-0.663525\H,0,-5.730059,2.077989,-1.791552\H,0,-7.997
 253,1.105431,-1.881471\S,0,-3.166075,0.851646,-0.124057\N,0,2.182887,-
 0.044483,0.184905\C,0,3.146505,-1.044921,-0.067172\C,0,4.392012,-0.989
 098,0.539344\C,0,2.878694,-2.090316,-0.930362\C,0,5.345494,-1.946131,0
 .285899\C,0,3.822608,-3.066997,-1.170354\C,0,5.062274,-2.995295,-0.567
 641\H,0,4.612943,-0.17489,1.215121\H,0,1.913696,-2.145516,-1.414069\H,
 0,6.317156,-1.901598,0.755555\H,0,3.591387,-3.881585,-1.84538\C,0,2.57
 5405,1.310294,0.123192\C,0,3.391681,1.763268,-0.894977\C,0,2.16404,2.2
 11964,1.09371\C,0,3.796835,3.081396,-0.942072\C,0,2.544098,3.531176,1.
 038879\C,0,3.368807,3.972023,0.020733\H,0,3.723839,1.07184,-1.656403\H
 ,0,1.529535,1.868488,1.898614\H,0,4.442764,3.41523,-1.744528\H,0,2.220
 724,4.234697,1.791974\O,0,3.726245,5.28132,0.019257\H,0,4.294203,5.466
 041,-0.728132\O,0,6.032969,-3.920806,-0.776143\H,0,5.721078,-4.593785,
 -1.380389\\Version=EM64L-G16RevA.03\State=1-A\HF=-1926.431794\RMSD=7.0
 23e-07\Dipole=0.3745051,-0.545262,-1.2040705\Quadrupole=-1.5527713,5.2
 571454,-3.7043741,5.0793139,-3.9970488,-3.8146014\PG=C01 [X(C24H19N1O2
 S2)]\\@


 IF YOU WANT TO LEARN FROM THE THEORETICAL PHYSICISTS ABOUT THE
 METHODS WHICH THEY USE, I ADVISE YOU TO FOLLOW THIS PRINCIPLE VERY STRICTLY:
 DON'T LISTEN TO THEIR WORDS; PAY ATTENTION, INSTEAD, TO THEIR ACTIONS.
 -- A.EINSTEIN, 1934
 Job cpu time:       0 days  2 hours 12 minutes 32.0 seconds.
 Elapsed time:       0 days  0 hours 16 minutes 37.1 seconds.
 File lengths (MBytes):  RWF=    192 Int=      0 D2E=      0 Chk=     32 Scr=      8
 Normal termination of Gaussian 16 at Tue Jan 19 00:49:54 2021.
