 Entering Gaussian System, Link 0=g16
 Input=mol_ta_ma_half_tune_n0.gjf
 Output=mol_ta_ma_half_tune_n0.log
 Initial command:
 /opt/ohpc/pub/libs/gaussian/g16-A.03/sandybridge/g16/l1.exe "/mnt/gpfs2_4m/scratch/rdu230/ondemand/projects/init_structures/wtuning/mol_ta_ma_half/tuning_mol_ta_ma_half_ocycle0/Gau-106684.inp" -scrdir="/mnt/gpfs2_4m/scratch/rdu230/ondemand/projects/init_structures/wtuning/mol_ta_ma_half/tuning_mol_ta_ma_half_ocycle0/"
 Entering Link 1 = /opt/ohpc/pub/libs/gaussian/g16-A.03/sandybridge/g16/l1.exe PID=    106685.
  
 Copyright (c) 1988,1990,1992,1993,1995,1998,2003,2009,2016,
            Gaussian, Inc.  All Rights Reserved.
  
 This is part of the Gaussian(R) 16 program.  It is based on
 the Gaussian(R) 09 system (copyright 2009, Gaussian, Inc.),
 the Gaussian(R) 03 system (copyright 2003, Gaussian, Inc.),
 the Gaussian(R) 98 system (copyright 1998, Gaussian, Inc.),
 the Gaussian(R) 94 system (copyright 1995, Gaussian, Inc.),
 the Gaussian 92(TM) system (copyright 1992, Gaussian, Inc.),
 the Gaussian 90(TM) system (copyright 1990, Gaussian, Inc.),
 the Gaussian 88(TM) system (copyright 1988, Gaussian, Inc.),
 the Gaussian 86(TM) system (copyright 1986, Carnegie Mellon
 University), and the Gaussian 82(TM) system (copyright 1983,
 Carnegie Mellon University). Gaussian is a federally registered
 trademark of Gaussian, Inc.
  
 This software contains proprietary and confidential information,
 including trade secrets, belonging to Gaussian, Inc.
  
 This software is provided under written license and may be
 used, copied, transmitted, or stored only in accord with that
 written license.
  
 The following legend is applicable only to US Government
 contracts under FAR:
  
                    RESTRICTED RIGHTS LEGEND
  
 Use, reproduction and disclosure by the US Government is
 subject to restrictions as set forth in subparagraphs (a)
 and (c) of the Commercial Computer Software - Restricted
 Rights clause in FAR 52.227-19.
  
 Gaussian, Inc.
 340 Quinnipiac St., Bldg. 40, Wallingford CT 06492
  
  
 ---------------------------------------------------------------
 Warning -- This program may not be used in any manner that
 competes with the business of Gaussian, Inc. or will provide
 assistance to any competitor of Gaussian, Inc.  The licensee
 of this program is prohibited from giving any competitor of
 Gaussian, Inc. access to this program.  By using this program,
 the user acknowledges that Gaussian, Inc. is engaged in the
 business of creating and licensing software in the field of
 computational chemistry and represents and warrants to the
 licensee that it is not a competitor of Gaussian, Inc. and that
 it will not use this program in any manner prohibited above.
 ---------------------------------------------------------------
  

 Cite this work as:
 Gaussian 16, Revision A.03,
 M. J. Frisch, G. W. Trucks, H. B. Schlegel, G. E. Scuseria, 
 M. A. Robb, J. R. Cheeseman, G. Scalmani, V. Barone, 
 G. A. Petersson, H. Nakatsuji, X. Li, M. Caricato, A. V. Marenich, 
 J. Bloino, B. G. Janesko, R. Gomperts, B. Mennucci, H. P. Hratchian, 
 J. V. Ortiz, A. F. Izmaylov, J. L. Sonnenberg, D. Williams-Young, 
 F. Ding, F. Lipparini, F. Egidi, J. Goings, B. Peng, A. Petrone, 
 T. Henderson, D. Ranasinghe, V. G. Zakrzewski, J. Gao, N. Rega, 
 G. Zheng, W. Liang, M. Hada, M. Ehara, K. Toyota, R. Fukuda, 
 J. Hasegawa, M. Ishida, T. Nakajima, Y. Honda, O. Kitao, H. Nakai, 
 T. Vreven, K. Throssell, J. A. Montgomery, Jr., J. E. Peralta, 
 F. Ogliaro, M. J. Bearpark, J. J. Heyd, E. N. Brothers, K. N. Kudin, 
 V. N. Staroverov, T. A. Keith, R. Kobayashi, J. Normand, 
 K. Raghavachari, A. P. Rendell, J. C. Burant, S. S. Iyengar, 
 J. Tomasi, M. Cossi, J. M. Millam, M. Klene, C. Adamo, R. Cammi, 
 J. W. Ochterski, R. L. Martin, K. Morokuma, O. Farkas, 
 J. B. Foresman, and D. J. Fox, Gaussian, Inc., Wallingford CT, 2016.
 
 ******************************************
 Gaussian 16:  EM64L-G16RevA.03 25-Dec-2016
                18-Jan-2021 
 ******************************************
 %mem=30GB
 %nproc=8
 Will use up to    8 processors via shared memory.
 ----------------------------------------------------------------------
 #P LC-wHPBE/TZVP iop(3/107=0221900000, 3/108=0221900000) scf=(conver=6
 ,fermi,ndamp=35,noincfock,novaracc,vshift=500,xqc)
 ----------------------------------------------------------------------
 1/38=1,172=1/1;
 2/12=2,17=6,18=5,40=1/2;
 3/5=19,7=101,11=2,25=1,30=1,74=-71,107=221900000,108=221900000/1,2,3;
 4//1;
 5/5=100002,6=6,8=3,10=500,13=1,18=-1,22=13,38=1,93=35/2,8;
 6/7=2,8=2,9=2,10=2,28=1/1;
 99/5=1,9=1/99;
 Leave Link    1 at Mon Jan 18 04:29:54 2021, MaxMem=  4026531840 cpu:               1.2 elap:               0.2
 (Enter /opt/ohpc/pub/libs/gaussian/g16-A.03/sandybridge/g16/l101.exe)
 ----------------
 H19 C24 S2 N1 O2
 ----------------
 Symbolic Z-matrix:
 Charge =  0 Multiplicity = 1
 C                    -6.54463  -1.19388   0.12701 
 C                    -5.28347  -0.64791   0.13152 
 S                    -3.66592  -1.10732   1.04298 
 C                    -4.99682   0.48658  -0.53783 
 C                    -1.47569   0.03689   0.22175 
 C                    -1.77229  -1.09444   0.89285 
 C                    -7.5174   -0.5494   -0.6189 
 C                    -5.9512    1.15992  -1.26234 
 H                    -2.84341   1.34552  -1.33258 
 C                    -0.18608   0.431    -0.02846 
 C                    -0.77363  -1.91254   1.36681 
 C                     0.53691  -1.55205   1.12466 
 C                     0.84559  -0.38716   0.42544 
 H                     0.04543   1.33981  -0.56742 
 H                    -0.98698  -2.81642   1.92325 
 H                     1.34269  -2.17537   1.48462 
 C                    -7.22375   0.61523  -1.30625 
 H                    -6.78246  -2.09767   0.67335 
 H                    -3.81578  -2.43941   0.92831 
 H                    -8.51755  -0.95829  -0.66353 
 H                    -5.73006   2.07799  -1.79155 
 H                    -7.99725   1.10543  -1.88147 
 S                    -3.16608   0.85165  -0.12406 
 N                     2.18289  -0.04448   0.18491 
 C                     3.1465   -1.04492  -0.06717 
 C                     4.39201  -0.9891    0.53934 
 C                     2.87869  -2.09032  -0.93036 
 C                     5.34549  -1.94613   0.2859 
 C                     3.82261  -3.067    -1.17035 
 C                     5.06227  -2.9953   -0.56764 
 H                     4.61294  -0.17489   1.21512 
 H                     1.9137   -2.14552  -1.41407 
 H                     6.31716  -1.9016    0.75556 
 H                     3.59139  -3.88159  -1.84538 
 C                     2.5754    1.31029   0.12319 
 C                     3.39168   1.76327  -0.89498 
 C                     2.16404   2.21196   1.09371 
 C                     3.79684   3.0814   -0.94207 
 C                     2.5441    3.53118   1.03888 
 C                     3.36881   3.97202   0.02073 
 H                     3.72384   1.07184  -1.6564 
 H                     1.52954   1.86849   1.89861 
 H                     4.44276   3.41523  -1.74453 
 H                     2.22072   4.2347    1.79197 
 O                     3.72625   5.28132   0.01926 
 H                     4.2942    5.46604  -0.72813 
 O                     6.03297  -3.92081  -0.77614 
 H                     5.72108  -4.59379  -1.38039 
 
 ITRead=  0  0  0  0  0  0  0  0  0  0  0  0  0  0  0  0  0  0  0  0
 ITRead=  0  0  0  0  0  0  0  0  0  0  0  0  0  0  0  0  0  0  0  0
 ITRead=  0  0  0  0  0  0  0  0
 MicOpt= -1 -1 -1 -1 -1 -1 -1 -1 -1 -1 -1 -1 -1 -1 -1 -1 -1 -1 -1 -1
 MicOpt= -1 -1 -1 -1 -1 -1 -1 -1 -1 -1 -1 -1 -1 -1 -1 -1 -1 -1 -1 -1
 MicOpt= -1 -1 -1 -1 -1 -1 -1 -1
 NAtoms=     48 NQM=       48 NQMF=       0 NMMI=      0 NMMIF=      0
                NMic=       0 NMicF=      0.
                    Isotopes and Nuclear Properties:
 (Nuclear quadrupole moments (NQMom) in fm**2, nuclear magnetic moments (NMagM)
  in nuclear magnetons)

  Atom         1           2           3           4           5           6           7           8           9          10
 IAtWgt=          12          12          32          12          12          12          12          12           1          12
 AtmWgt=  12.0000000  12.0000000  31.9720718  12.0000000  12.0000000  12.0000000  12.0000000  12.0000000   1.0078250  12.0000000
 NucSpn=           0           0           0           0           0           0           0           0           1           0
 AtZEff=  -0.0000000  -0.0000000  -0.0000000  -0.0000000  -0.0000000  -0.0000000  -0.0000000  -0.0000000  -0.0000000  -0.0000000
 NQMom=    0.0000000   0.0000000   0.0000000   0.0000000   0.0000000   0.0000000   0.0000000   0.0000000   0.0000000   0.0000000
 NMagM=    0.0000000   0.0000000   0.0000000   0.0000000   0.0000000   0.0000000   0.0000000   0.0000000   2.7928460   0.0000000
 AtZNuc=   6.0000000   6.0000000  16.0000000   6.0000000   6.0000000   6.0000000   6.0000000   6.0000000   1.0000000   6.0000000

  Atom        11          12          13          14          15          16          17          18          19          20
 IAtWgt=          12          12          12           1           1           1          12           1           1           1
 AtmWgt=  12.0000000  12.0000000  12.0000000   1.0078250   1.0078250   1.0078250  12.0000000   1.0078250   1.0078250   1.0078250
 NucSpn=           0           0           0           1           1           1           0           1           1           1
 AtZEff=  -0.0000000  -0.0000000  -0.0000000  -0.0000000  -0.0000000  -0.0000000  -0.0000000  -0.0000000  -0.0000000  -0.0000000
 NQMom=    0.0000000   0.0000000   0.0000000   0.0000000   0.0000000   0.0000000   0.0000000   0.0000000   0.0000000   0.0000000
 NMagM=    0.0000000   0.0000000   0.0000000   2.7928460   2.7928460   2.7928460   0.0000000   2.7928460   2.7928460   2.7928460
 AtZNuc=   6.0000000   6.0000000   6.0000000   1.0000000   1.0000000   1.0000000   6.0000000   1.0000000   1.0000000   1.0000000

  Atom        21          22          23          24          25          26          27          28          29          30
 IAtWgt=           1           1          32          14          12          12          12          12          12          12
 AtmWgt=   1.0078250   1.0078250  31.9720718  14.0030740  12.0000000  12.0000000  12.0000000  12.0000000  12.0000000  12.0000000
 NucSpn=           1           1           0           2           0           0           0           0           0           0
 AtZEff=  -0.0000000  -0.0000000  -0.0000000  -0.0000000  -0.0000000  -0.0000000  -0.0000000  -0.0000000  -0.0000000  -0.0000000
 NQMom=    0.0000000   0.0000000   0.0000000   2.0440000   0.0000000   0.0000000   0.0000000   0.0000000   0.0000000   0.0000000
 NMagM=    2.7928460   2.7928460   0.0000000   0.4037610   0.0000000   0.0000000   0.0000000   0.0000000   0.0000000   0.0000000
 AtZNuc=   1.0000000   1.0000000  16.0000000   7.0000000   6.0000000   6.0000000   6.0000000   6.0000000   6.0000000   6.0000000

  Atom        31          32          33          34          35          36          37          38          39          40
 IAtWgt=           1           1           1           1          12          12          12          12          12          12
 AtmWgt=   1.0078250   1.0078250   1.0078250   1.0078250  12.0000000  12.0000000  12.0000000  12.0000000  12.0000000  12.0000000
 NucSpn=           1           1           1           1           0           0           0           0           0           0
 AtZEff=  -0.0000000  -0.0000000  -0.0000000  -0.0000000  -0.0000000  -0.0000000  -0.0000000  -0.0000000  -0.0000000  -0.0000000
 NQMom=    0.0000000   0.0000000   0.0000000   0.0000000   0.0000000   0.0000000   0.0000000   0.0000000   0.0000000   0.0000000
 NMagM=    2.7928460   2.7928460   2.7928460   2.7928460   0.0000000   0.0000000   0.0000000   0.0000000   0.0000000   0.0000000
 AtZNuc=   1.0000000   1.0000000   1.0000000   1.0000000   6.0000000   6.0000000   6.0000000   6.0000000   6.0000000   6.0000000

  Atom        41          42          43          44          45          46          47          48
 IAtWgt=           1           1           1           1          16           1          16           1
 AtmWgt=   1.0078250   1.0078250   1.0078250   1.0078250  15.9949146   1.0078250  15.9949146   1.0078250
 NucSpn=           1           1           1           1           0           1           0           1
 AtZEff=  -0.0000000  -0.0000000  -0.0000000  -0.0000000  -0.0000000  -0.0000000  -0.0000000  -0.0000000
 NQMom=    0.0000000   0.0000000   0.0000000   0.0000000   0.0000000   0.0000000   0.0000000   0.0000000
 NMagM=    2.7928460   2.7928460   2.7928460   2.7928460   0.0000000   2.7928460   0.0000000   2.7928460
 AtZNuc=   1.0000000   1.0000000   1.0000000   1.0000000   8.0000000   1.0000000   8.0000000   1.0000000
 Leave Link  101 at Mon Jan 18 04:29:54 2021, MaxMem=  4026531840 cpu:               0.8 elap:               0.1
 (Enter /opt/ohpc/pub/libs/gaussian/g16-A.03/sandybridge/g16/l202.exe)
                          Input orientation:                          
 ---------------------------------------------------------------------
 Center     Atomic      Atomic             Coordinates (Angstroms)
 Number     Number       Type             X           Y           Z
 ---------------------------------------------------------------------
      1          6           0       -6.544630   -1.193879    0.127010
      2          6           0       -5.283469   -0.647909    0.131523
      3         16           0       -3.665919   -1.107322    1.042984
      4          6           0       -4.996815    0.486583   -0.537830
      5          6           0       -1.475687    0.036886    0.221747
      6          6           0       -1.772288   -1.094442    0.892846
      7          6           0       -7.517398   -0.549399   -0.618903
      8          6           0       -5.951198    1.159916   -1.262339
      9          1           0       -2.843406    1.345523   -1.332578
     10          6           0       -0.186077    0.430997   -0.028463
     11          6           0       -0.773630   -1.912541    1.366813
     12          6           0        0.536910   -1.552052    1.124661
     13          6           0        0.845585   -0.387156    0.425435
     14          1           0        0.045427    1.339810   -0.567415
     15          1           0       -0.986976   -2.816418    1.923251
     16          1           0        1.342687   -2.175375    1.484620
     17          6           0       -7.223748    0.615229   -1.306247
     18          1           0       -6.782458   -2.097666    0.673346
     19          1           0       -3.815781   -2.439410    0.928305
     20          1           0       -8.517553   -0.958288   -0.663525
     21          1           0       -5.730059    2.077989   -1.791552
     22          1           0       -7.997253    1.105431   -1.881471
     23         16           0       -3.166075    0.851646   -0.124057
     24          7           0        2.182887   -0.044483    0.184905
     25          6           0        3.146505   -1.044921   -0.067172
     26          6           0        4.392012   -0.989098    0.539344
     27          6           0        2.878694   -2.090316   -0.930362
     28          6           0        5.345494   -1.946131    0.285899
     29          6           0        3.822608   -3.066997   -1.170354
     30          6           0        5.062274   -2.995295   -0.567641
     31          1           0        4.612943   -0.174890    1.215121
     32          1           0        1.913696   -2.145516   -1.414069
     33          1           0        6.317156   -1.901598    0.755555
     34          1           0        3.591387   -3.881585   -1.845380
     35          6           0        2.575405    1.310294    0.123192
     36          6           0        3.391681    1.763268   -0.894977
     37          6           0        2.164040    2.211964    1.093710
     38          6           0        3.796835    3.081396   -0.942072
     39          6           0        2.544098    3.531176    1.038879
     40          6           0        3.368807    3.972023    0.020733
     41          1           0        3.723839    1.071840   -1.656403
     42          1           0        1.529535    1.868488    1.898614
     43          1           0        4.442764    3.415230   -1.744528
     44          1           0        2.220724    4.234697    1.791974
     45          8           0        3.726245    5.281320    0.019257
     46          1           0        4.294203    5.466041   -0.728132
     47          8           0        6.032969   -3.920806   -0.776143
     48          1           0        5.721078   -4.593785   -1.380389
 ---------------------------------------------------------------------
                    Distance matrix (angstroms):
                    1          2          3          4          5
     1  C    0.000000
     2  C    1.374275   0.000000
     3  S    3.022164   1.912666   0.000000
     4  C    2.379432   1.348064   2.609749   0.000000
     5  C    5.217082   3.869921   2.603989   3.630086   0.000000
     6  C    4.834422   3.620414   1.899617   3.865753   1.348425
     7  C    1.384925   2.358661   4.231671   2.726384   6.128025
     8  C    2.796927   2.378433   3.959467   1.374459   4.847051
     9  H    4.719960   3.474373   3.512303   2.450831   2.449309
    10  C    6.564723   5.212777   3.952686   4.837948   1.371504
    11  C    5.946262   4.843953   3.019698   5.217159   2.367346
    12  C    7.160433   5.973325   4.227083   6.127154   2.718552
    13  C    7.440103   6.141635   4.610171   5.985394   2.368460
    14  H    7.094410   5.730329   4.728206   5.114008   2.152713
    15  H    6.061900   5.135423   3.297365   5.748525   3.357871
    16  H    8.063263   6.933251   5.140225   7.166981   3.798971
    17  C    2.405888   2.725323   4.598284   2.359289   5.975739
    18  H    1.082532   2.154608   3.290931   3.366573   5.737776
    19  H    3.104841   2.449172   1.345388   3.479343   3.479555
    20  H    2.138428   3.344807   5.145166   3.807761   7.166726
    21  H    3.879372   3.365736   4.737243   2.154539   5.130220
    22  H    3.380967   3.806701   5.675312   3.345291   6.935138
    23  S    3.957504   2.607172   2.334392   1.912090   1.908095
    24  N    8.803069   7.490891   6.006202   7.235503   3.659664
    25  C    9.694225   8.441656   6.902569   8.299439   4.755885
    26  C   10.946328   9.690081   8.074521   9.564937   5.965183
    27  C    9.524740   8.356377   6.905963   8.295669   4.981263
    28  C   11.914956  10.709065   9.081979  10.656453   7.103871
    29  C   10.614676   9.511441   8.050915   9.529441   6.296345
    30  C   11.766387  10.631719   9.074134  10.644700   7.249979
    31  H   11.256721   9.966790   8.332984   9.790701   6.172767
    32  H    8.650076   7.512048   6.184421   7.446536   4.350482
    33  H   12.896568  11.684847  10.018746  11.635385   8.048048
    34  H   10.670189   9.650278   8.289009   9.723569   6.730726
    35  C    9.457586   8.099168   6.756109   7.645519   4.247661
    36  C   10.417267   9.062323   7.861660   8.492605   5.283819
    37  C    9.400809   8.035550   6.708849   7.544316   4.328845
    38  C   11.241299   9.874829   8.785130   9.177404   6.198629
    39  C   10.284096   8.919577   7.751128   8.283775   5.388547
    40  C   11.179180   9.809074   8.736825   9.079863   6.244584
    41  H   10.665622   9.342688   8.163575   8.811557   5.624380
    42  H    8.815260   7.474750   6.048164   7.102054   3.898462
    43  H   12.061068  10.706459   9.694041   9.956844   7.092779
    44  H   10.443801   9.105485   7.984405   8.459859   5.809534
    45  O   12.142104  10.786255   9.823790   9.969535   7.389532
    46  H   12.750141  11.395227  10.474230  10.542971   7.979325
    47  O   12.901466  11.815138  10.261254  11.880152   8.546287
    48  H   12.817145  11.787954  10.302615  11.890890   8.706514
                    6          7          8          9         10
     6  C    0.000000
     7  C    5.965630   0.000000
     8  C    5.214426   2.405982   0.000000
     9  H    3.471777   5.093747   3.114122   0.000000
    10  C    2.385758   7.420112   5.940572   3.098140   0.000000
    11  C    1.375227   7.160980   6.569600   4.710166   2.790015
    12  C    2.365489   8.301639   7.426176   5.085322   2.405180
    13  C    2.751724   8.429499   7.172048   4.438631   1.392740
    14  H    3.370761   7.795389   6.039436   2.988455   1.081667
    15  H    2.154913   7.365347   7.113559   5.600760   3.872510
    16  H    3.349878   9.250390   8.477659   6.152780   3.379307
    17  C    6.121879   1.383846   1.384917   4.440880   7.155102
    18  H    5.114337   2.146433   3.879396   5.603161   7.099219
    19  H    2.446643   4.434858   4.723778   4.514734   4.725399
    20  H    6.923830   1.081430   3.381057   6.160448   8.470355
    21  H    5.738838   3.387160   1.082510   3.013292   6.046222
    22  H    7.161457   2.136071   2.138372   5.188551   8.056238
    23  S    2.600768   4.598023   3.024504   1.344824   3.011058
    24  N    4.152951   9.746619   8.349157   5.431251   2.425613
    25  C    5.011847  10.689657   9.437051   6.572253   3.644988
    26  C    6.175326  11.973676  10.716637   7.829803   4.826797
    27  C    5.093867  10.514284   9.414946   6.686494   4.069799
    28  C    7.194205  12.970101  11.817776   8.972878   6.028917
    29  C    6.280974  11.629193  10.649063   7.995773   5.441455
    30  C    7.242755  12.815349  11.791732   9.051387   6.290896
    31  H    6.459149  12.273918  10.932547   8.024934   4.994416
    32  H    4.473599   9.598198   8.532612   5.901187   3.601023
    33  H    8.130772  13.968266  12.804580   9.940824   6.953253
    34  H    6.635892  11.662453  10.808219   8.306153   6.014049
    35  C    5.027679  10.289501   8.639749   5.611062   2.902059
    36  C    6.166798  11.154938   9.369545   6.264369   3.914862
    37  C    5.144642  10.212170   8.515566   5.631351   3.155022
    38  C    7.198589  11.886925   9.940765   6.874485   4.870614
    39  C    6.328417  10.983307   9.115291   6.279020   4.266636
    40  C    7.270523  11.805162   9.819201   6.879066   5.017817
    41  H    6.434195  11.404834   9.683459   6.580917   4.283493
    42  H    4.548907   9.696962   8.151998   5.462299   2.953529
    43  H    8.119098  12.650328  10.646755   7.585622   5.768596
    44  H    6.719546  11.114447   9.250049   6.614799   4.855390
    45  O    8.464477  12.681642  10.596290   7.776778   6.231707
    46  H    9.081290  13.255616  11.126380   8.263745   6.775995
    47  O    8.467343  13.964367  13.025758  10.336047   7.627172
    48  H    8.576919  13.863411  13.013879  10.422478   7.872142
                   11         12         13         14         15
    11  C    0.000000
    12  C    1.380618   0.000000
    13  C    2.415543   1.393262   0.000000
    14  H    3.871677   3.386376   2.146722   0.000000
    15  H    1.082651   2.135087   3.391614   4.954140   0.000000
    16  H    2.135827   1.080453   2.136986   4.272032   2.455741
    17  C    7.425557   8.416308   8.313702   7.342465   7.816853
    18  H    6.051544   7.353538   7.821403   7.744401   5.972142
    19  H    3.118423   4.446558   5.117906   5.606122   3.022282
    20  H    8.062333   9.248430   9.443536   8.866517   8.176408
    21  H    7.103928   7.807458   7.364174   5.949761   7.762204
    22  H    8.475862   9.430323   9.259882   8.152691   8.888239
    23  S    3.948065   4.587936   4.234382   3.278508   4.732297
    24  N    3.691550   2.421806   1.401305   2.655370   4.555601
    25  C    4.263395   2.913354   2.443266   3.943839   4.917891
    26  C    5.312373   3.939711   3.598952   5.053863   5.847034
    27  C    4.318343   3.161772   2.978669   4.463731   4.859397
    28  C    6.213951   4.897071   4.764352   6.294145   6.598371
    29  C    5.375443   4.284619   4.311700   5.835287   5.724096
    30  C    6.242775   5.042396   5.056585   6.630376   6.544461
    31  H    5.661944   4.303348   3.855081   5.131662   6.232031
    32  H    3.874184   2.948371   2.759795   4.044101   4.472327
    33  H    7.117092   5.802557   5.686880   7.182727   7.453238
    34  H    5.766168   4.855687   4.990698   6.439720   6.024829
    35  C    4.811371   3.653960   2.442328   2.622708   5.741126
    36  C    5.998090   4.818714   3.584748   3.388809   6.934592
    37  C    5.071098   4.100771   2.990040   2.829931   5.991800
    38  C    7.152587   6.030534   4.755082   4.152897   8.116596
    39  C    6.383488   5.465837   4.314462   3.691290   7.317277
    40  C    7.321189   6.305054   5.053006   4.280107   8.287059
    41  H    6.186565   4.977514   3.840191   3.845571   7.079848
    42  H    4.459099   3.644777   2.779564   2.926325   5.318062
    43  H    8.079378   6.939873   5.666266   5.002953   9.042572
    44  H    6.850945   6.063580   5.011982   4.321921   7.747567
    45  O    8.591648   7.621598   6.371405   5.424768   9.561015
    46  H    9.193215   8.173354   6.890834   5.924838  10.174469
    47  O    7.413176   6.279388   6.390573   7.972974   7.601712
    48  H    7.544363   6.511760   6.687837   8.251151   7.685770
                   16         17         18         19         20
    16  H    0.000000
    17  C    9.431872   0.000000
    18  H    8.165916   3.387230   0.000000
    19  H    5.195093   5.092964   2.997160   0.000000
    20  H   10.164653   2.136113   2.469000   5.180184   0.000000
    21  H    8.879648   2.146228   4.961790   5.609722   4.273353
    22  H   10.456038   1.081430   4.273482   6.159988   2.452150
    23  S    5.663888   4.232987   4.734186   3.515769   5.674963
    24  N    2.633609   9.546912   9.210404   6.501718  10.772850
    25  C    2.634339  10.575138  10.012040   7.170007  11.679614
    26  C    3.405757  11.870381  11.230123   8.344014  12.965520
    27  C    2.863336  10.465209   9.793354   6.956472  11.455441
    28  C    4.184728  12.925995  12.135085   9.197009  13.930589
    29  C    3.740840  11.644709  10.807694   7.946271  12.529290
    30  C    4.326589  12.826837  11.943344   9.020351  13.732090
    31  H    3.843064  12.128019  11.569172   8.732337  13.287323
    32  H    2.954546   9.546006   8.943304   6.196773  10.525388
    33  H    5.035060  13.926289  13.101339  10.148670  14.932254
    34  H    4.365399  11.725150  10.823262   8.039859  12.512748
    35  C    3.939920   9.927226   9.974290   7.453573  11.349850
    36  C    5.037238  10.685245  10.994524   8.540162  12.218441
    37  C    4.480644   9.820383   9.939288   7.577658  11.279840
    38  C    6.288507  11.299020  11.889226   9.587989  12.963055
    39  C    5.848658  10.460075  10.899639   8.724000  12.058756
    40  C    6.636161  11.190673  11.845472   9.672046  12.886494
    41  H    5.106889  10.962699  11.218546   8.709504  12.448249
    42  H    4.069291   9.405411   9.290903   6.933389  10.747055
    43  H    7.161895  12.005815  12.737494  10.470168  13.721007
    44  H    6.477225  10.578165  11.063789   9.040410  12.178143
    45  O    7.964354  11.976298  12.857298  10.831352  13.758978
    46  H    8.485220  12.511107  13.485779  11.446038  14.332385
    47  O    5.491477  14.021311  13.025361  10.104333  14.849474
    48  H    5.764312  13.953775  12.914598  10.046048  14.712897
                   21         22         23         24         25
    21  H    0.000000
    22  H    2.468628   0.000000
    23  S    3.295219   5.147154   0.000000
    24  N    8.427692  10.451194   5.432301   0.000000
    25  C    9.566579  11.493435   6.591576   1.411729   0.000000
    26  C   10.830347  12.796143   7.807248   2.428612   1.386458
    27  C    9.603491  11.375572   6.770857   2.431748   1.381908
    28  C   11.965668  13.857793   8.968970   3.691686   2.402580
    29  C   10.867852  12.554838   8.080358   3.696079   2.400608
    30  C   11.987936  13.751122   9.094034   4.191001   2.779316
    31  H   11.004237  13.047802   7.959918   2.642636   2.133464
    32  H    8.741137  10.440978   6.037482   2.653963   2.131961
    33  H   12.940644  14.862652   9.913916   4.568008   3.385824
    34  H   11.063850  12.616188   8.427913   4.563911   3.377367
    35  C    8.557823  10.762980   5.765074   1.411843   2.430932
    36  C    9.171098  11.450491   6.665548   2.428022   2.937907
    37  C    8.405920  10.645562   5.634141   2.432660   3.594466
    38  C    9.617180  11.995308   7.356837   3.694053   4.267888
    39  C    8.864805  11.204140   6.413921   3.693925   4.746252
    40  C    9.468955  11.875313   7.243093   4.191143   5.022636
    41  H    9.508248  11.723301   7.061691   2.647853   2.709178
    42  H    8.146344  10.277694   5.212861   2.650118   3.868702
    43  H   10.260446  12.653377   8.190990   4.560633   4.938295
    44  H    8.983763  11.300157   6.643328   4.571158   5.673435
    45  O   10.147021  12.589330   8.194304   5.547393   6.353337
    46  H   10.634641  13.092937   8.792798   5.971362   6.644299
    47  O   13.243316  14.944294  10.383830   5.547308   4.135823
    48  H   13.259342  14.863538  10.498218   5.972026   4.576833
                   26         27         28         29         30
    26  C    0.000000
    27  C    2.379674   0.000000
    28  C    1.374509   2.754121   0.000000
    29  C    2.750446   1.379303   2.386670   0.000000
    30  C    2.387361   2.391354   1.381843   1.380281   0.000000
    31  H    1.080935   3.358508   2.130112   3.831371   3.366723
    32  H    3.360830   1.080852   3.834955   2.133652   3.369289
    33  H    2.141397   3.834182   1.080133   3.360067   2.126441
    34  H    3.833326   2.133971   3.371235   1.082902   2.140476
    35  C    2.959805   3.572969   4.278337   4.731749   5.019947
    36  C    3.260898   3.887739   4.355628   4.857262   5.053905
    37  C    3.939287   4.808036   5.297543   5.978651   6.186711
    38  C    4.372385   5.252592   5.402063   6.152683   6.218336
    39  C    4.908890   5.965822   6.198039   7.074686   7.177530
    40  C    5.092016   6.156033   6.245170   7.153490   7.194271
    41  H    3.084676   3.352706   3.938331   4.168449   4.417963
    42  H    4.266988   5.049303   5.631493   6.247860   6.497618
    43  H    4.961527   5.781022   5.803598   6.537089   6.547036
    44  H    5.794101   6.917357   7.087671   8.040905   8.118804
    45  O    6.327075   7.480718   7.411418   8.433200   8.404271
    46  H    6.579125   7.690455   7.554718   8.557494   8.497641
    47  O    3.608068   3.650196   2.345186   2.402101   1.357311
    48  H    4.294829   3.814319   3.150817   2.445278   1.910432
                   31         32         33         34         35
    31  H    0.000000
    32  H    4.252287   0.000000
    33  H    2.469223   4.915000   0.000000
    34  H    4.914248   2.452471   4.256175   0.000000
    35  C    2.747661   3.839746   4.971603   5.644741   0.000000
    36  C    3.114555   4.210996   4.971308   5.727784   1.381362
    37  C    3.421833   5.033812   5.855264   6.914254   1.387132
    38  C    3.990352   5.575805   5.836453   7.024335   2.400725
    39  C    4.248071   6.216043   6.620519   8.022767   2.402453
    40  C    4.491250   6.449829   6.613029   8.075338   2.779350
    41  H    3.254304   3.699557   4.624302   4.958798   2.131366
    42  H    3.761643   5.218590   6.200117   7.164640   2.134841
    43  H    4.655904   6.117784   6.167043   7.347008   3.377301
    44  H    5.049745   7.147034   7.450439   8.999061   3.385671
    45  O    5.655665   7.778024   7.671327   9.351678   4.135732
    46  H    5.974774   8.004569   7.783044   9.440355   4.577035
    47  O    4.473644   4.530675   2.550306   2.665732   6.334663
    48  H    5.243212   4.526733   3.487899   2.293257   6.856687
                   36         37         38         39         40
    36  C    0.000000
    37  C    2.379770   0.000000
    38  C    1.379793   2.750698   0.000000
    39  C    2.753851   1.373962   2.386591   0.000000
    40  C    2.391160   2.387583   1.379644   1.382430   0.000000
    41  H    1.080820   3.360949   2.133990   3.834667   3.368960
    42  H    3.358989   1.080945   3.831617   2.129088   3.366633
    43  H    2.134360   3.833540   1.082869   3.371310   2.139988
    44  H    3.833902   2.140615   3.359946   1.080123   2.127061
    45  O    3.650267   3.607753   2.401833   2.345230   1.357211
    46  H    3.814828   4.294848   2.445338   3.151015   1.910300
    47  O    6.268909   7.488380   7.352459   8.426064   8.368364
    48  H    6.787771   8.067955   7.924849   9.053234   8.992741
                   41         42         43         44         45
    41  H    0.000000
    42  H    4.252971   0.000000
    43  H    2.452773   4.914448   0.000000
    44  H    4.914705   2.467399   4.256270   0.000000
    45  O    4.530735   4.472688   2.665826   2.550400   0.000000
    46  H    4.527251   5.242668   2.293678   3.488045   0.956707
    47  O    5.570768   7.807123   7.568616   9.361659   9.520124
    48  H    6.013689   8.371491   8.118559  10.012915  10.171336
                   46         47         48
    46  H    0.000000
    47  O    9.546649   0.000000
    48  H   10.181430   0.956708   0.000000
 Stoichiometry    C24H19NO2S2
 Framework group  C1[X(C24H19NO2S2)]
 Deg. of freedom   138
 Full point group                 C1      NOp   1
 Largest Abelian subgroup         C1      NOp   1
 Largest concise Abelian subgroup C1      NOp   1
                         Standard orientation:                         
 ---------------------------------------------------------------------
 Center     Atomic      Atomic             Coordinates (Angstroms)
 Number     Number       Type             X           Y           Z
 ---------------------------------------------------------------------
      1          6           0        6.544630   -1.193879   -0.127010
      2          6           0        5.283469   -0.647909   -0.131523
      3         16           0        3.665919   -1.107322   -1.042984
      4          6           0        4.996815    0.486583    0.537830
      5          6           0        1.475687    0.036886   -0.221747
      6          6           0        1.772288   -1.094442   -0.892846
      7          6           0        7.517398   -0.549399    0.618903
      8          6           0        5.951198    1.159916    1.262339
      9          1           0        2.843406    1.345523    1.332578
     10          6           0        0.186077    0.430997    0.028463
     11          6           0        0.773630   -1.912541   -1.366813
     12          6           0       -0.536910   -1.552052   -1.124661
     13          6           0       -0.845585   -0.387156   -0.425435
     14          1           0       -0.045427    1.339810    0.567415
     15          1           0        0.986976   -2.816418   -1.923251
     16          1           0       -1.342687   -2.175375   -1.484620
     17          6           0        7.223748    0.615229    1.306247
     18          1           0        6.782458   -2.097666   -0.673346
     19          1           0        3.815781   -2.439410   -0.928305
     20          1           0        8.517553   -0.958288    0.663525
     21          1           0        5.730059    2.077989    1.791552
     22          1           0        7.997253    1.105431    1.881471
     23         16           0        3.166075    0.851646    0.124057
     24          7           0       -2.182887   -0.044483   -0.184905
     25          6           0       -3.146505   -1.044921    0.067172
     26          6           0       -4.392012   -0.989098   -0.539344
     27          6           0       -2.878694   -2.090316    0.930362
     28          6           0       -5.345494   -1.946131   -0.285899
     29          6           0       -3.822608   -3.066997    1.170354
     30          6           0       -5.062274   -2.995295    0.567641
     31          1           0       -4.612943   -0.174890   -1.215121
     32          1           0       -1.913696   -2.145516    1.414069
     33          1           0       -6.317156   -1.901598   -0.755555
     34          1           0       -3.591387   -3.881585    1.845380
     35          6           0       -2.575405    1.310294   -0.123192
     36          6           0       -3.391681    1.763268    0.894977
     37          6           0       -2.164040    2.211964   -1.093710
     38          6           0       -3.796835    3.081396    0.942072
     39          6           0       -2.544098    3.531176   -1.038879
     40          6           0       -3.368807    3.972023   -0.020733
     41          1           0       -3.723839    1.071840    1.656403
     42          1           0       -1.529535    1.868488   -1.898614
     43          1           0       -4.442764    3.415230    1.744528
     44          1           0       -2.220724    4.234697   -1.791974
     45          8           0       -3.726245    5.281320   -0.019257
     46          1           0       -4.294203    5.466041    0.728132
     47          8           0       -6.032969   -3.920806    0.776143
     48          1           0       -5.721078   -4.593785    1.380389
 ---------------------------------------------------------------------
 Rotational constants (GHZ):           0.2280536           0.0702108           0.0568934
 Leave Link  202 at Mon Jan 18 04:29:54 2021, MaxMem=  4026531840 cpu:               0.1 elap:               0.0
 (Enter /opt/ohpc/pub/libs/gaussian/g16-A.03/sandybridge/g16/l301.exe)
 Standard basis: TZVP (5D, 7F)
 Ernie: Thresh=  0.10000D-02 Tol=  0.10000D-05 Strict=F.
 There are   700 symmetry adapted cartesian basis functions of A   symmetry.
 There are   671 symmetry adapted basis functions of A   symmetry.
   671 basis functions,  1191 primitive gaussians,   700 cartesian basis functions
   109 alpha electrons      109 beta electrons
       nuclear repulsion energy      2827.2462800785 Hartrees.
 IExCor=33909 DFT=T Ex+Corr=LC-wHPBE ExCW=0 ScaHFX=  1.000000
 ScaDFX=  1.000000  1.000000  1.000000  1.000000 ScalE2=  1.000000  1.000000
 IRadAn=      5 IRanWt=     -1 IRanGd=            0 ICorTp=0 IEmpDi=  4
 HFx  wShort=  0.000000 wLong=  0.221900 cFull=  0.000000 cShort=  0.000000 cLong=  1.000000
 DFx  wShort=  0.000000 wLong=  0.221900 cFull=  0.000000 cShort=  1.000000 cLong=  0.000000
 NAtoms=   48 NActive=   48 NUniq=   48 SFac= 1.00D+00 NAtFMM=   60 NAOKFM=F Big=F
 Integral buffers will be    131072 words long.
 Raffenetti 2 integral format.
 Two-electron integral symmetry is turned on.
 Leave Link  301 at Mon Jan 18 04:29:54 2021, MaxMem=  4026531840 cpu:               0.5 elap:               0.1
 (Enter /opt/ohpc/pub/libs/gaussian/g16-A.03/sandybridge/g16/l302.exe)
 NPDir=0 NMtPBC=     1 NCelOv=     1 NCel=       1 NClECP=     1 NCelD=      1
         NCelK=      1 NCelE2=     1 NClLst=     1 CellRange=     0.0.
 One-electron integrals computed using PRISM.
 One-electron integral symmetry used in STVInt
 NBasis=   671 RedAO= T EigKep=  6.34D-06  NBF=   671
 NBsUse=   671 1.00D-06 EigRej= -1.00D+00 NBFU=   671
 Precomputing XC quadrature grid using
 IXCGrd= 4 IRadAn=           5 IRanWt=          -1 IRanGd=           0 AccXCQ= 0.00D+00.
 Generated NRdTot=       0 NPtTot=           0 NUsed=           0 NTot=          32
 NSgBfM=   657   657   657   657   657 MxSgAt=    48 MxSgA2=    48.
 Leave Link  302 at Mon Jan 18 04:29:56 2021, MaxMem=  4026531840 cpu:              10.3 elap:               1.3
 (Enter /opt/ohpc/pub/libs/gaussian/g16-A.03/sandybridge/g16/l303.exe)
 DipDrv:  MaxL=1.
 Leave Link  303 at Mon Jan 18 04:29:56 2021, MaxMem=  4026531840 cpu:               0.7 elap:               0.2
 (Enter /opt/ohpc/pub/libs/gaussian/g16-A.03/sandybridge/g16/l401.exe)
 ExpMin= 9.52D-02 ExpMax= 6.07D+04 ExpMxC= 2.07D+03 IAcc=3 IRadAn=         5 AccDes= 0.00D+00
 Harris functional with IExCor=33909 and IRadAn=       5 diagonalized for initial guess.
 HarFok:  IExCor=33909 AccDes= 0.00D+00 IRadAn=         5 IDoV= 1 UseB2=F ITyADJ=14
 ICtDFT=  3500011 ScaDFX=  1.000000  1.000000  1.000000  1.000000
 FoFCou: FMM=F IPFlag=           0 FMFlag=      100000 FMFlg1=           0
         NFxFlg=           0 DoJE=T BraDBF=F KetDBF=T FulRan=T
         wScrn=  0.000000 ICntrl=       500 IOpCl=  0 I1Cent=   200000004 NGrid=           0
         NMat0=    1 NMatS0=      1 NMatT0=    0 NMatD0=    1 NMtDS0=    0 NMtDT0=    0
 Petite list used in FoFCou.
 Harris En= -1900.81727370620    
 JPrj=0 DoOrth=F DoCkMO=F.
 Leave Link  401 at Mon Jan 18 04:30:03 2021, MaxMem=  4026531840 cpu:              56.2 elap:               7.1
 (Enter /opt/ohpc/pub/libs/gaussian/g16-A.03/sandybridge/g16/l502.exe)
 Integral symmetry usage will be decided dynamically.
 Closed shell SCF:
 Using DIIS extrapolation, IDIIS=    10.
 NGot=  4026531840 LenX=  4025539370 LenY=  4025048670
 Requested convergence on RMS density matrix=1.00D-06 within  32 cycles.
 Requested convergence on MAX density matrix=1.00D-04.
 Requested convergence on             energy=1.00D-04.
 Virtual orbitals will be shifted by   0.500 hartree.
 No special actions if energy rises.
 Dynamic level shift is on during FON iterations.

 Cycle   1  Pass 1  IDiag  1:
 FoFJK:  IHMeth= 1 ICntrl=       0 DoSepK=T KAlg= 0 I1Cent=           0 FoldK=F
 IRaf=         1 NMat=       1 IRICut=       1 DoRegI=T DoRafI=F ISym2E= 0 IDoP0=0 IntGTp=1.
 FoFCou: FMM=F IPFlag=           0 FMFlag=      100000 FMFlg1=           0
         NFxFlg=           0 DoJE=T BraDBF=F KetDBF=F FulRan=T
         wScrn=  0.000000 ICntrl=       500 IOpCl=  0 I1Cent=           0 NGrid=           0
         NMat0=    1 NMatS0=      1 NMatT0=    0 NMatD0=    1 NMtDS0=    0 NMtDT0=    0
 Symmetry not used in FoFCou.
 E= -1925.90341671063    
 DIIS: error= 2.02D-02 at cycle   1 NSaved=   1.
 NSaved= 1 IEnMin= 1 EnMin= -1925.90341671063     IErMin= 1 ErrMin= 2.02D-02
 ErrMax= 2.02D-02  0.00D+00 EMaxC= 1.00D+00 BMatC= 6.22D-01 BMatP= 6.22D-01
 IDIUse=1 WtCom= 1.00D+00 WtEn= 0.00D+00
 Coeff-Com:  0.100D+01
 Coeff:      0.100D+01
 Gap=     0.388 Goal=   None    Shift=    0.500
 T= 1260. Gap= 0.675 NK=0 IS=  110 IE=  671 IFin=  109
          NO(<0.9)=   0  NV(>0.1)=   0    109.00e < EF      0.00e >EF  Err=0.0D+00
 GapD=    0.388 DampG=1.000 DampE=0.500 DampFc=0.5000 IDamp=-1.
 Damping current iteration by 5.00D-01
 RMSDP=3.80D-03 MaxDP=2.29D-01              OVMax= 1.03D-01

 Cycle   2  Pass 1  IDiag  1:
 E= -1926.27362010031     Delta-E=       -0.370203389683 Rises=F Damp=T
 DIIS: error= 8.58D-03 at cycle   2 NSaved=   2.
 NSaved= 2 IEnMin= 2 EnMin= -1926.27362010031     IErMin= 2 ErrMin= 8.58D-03
 ErrMax= 8.58D-03  0.00D+00 EMaxC= 1.00D+00 BMatC= 9.19D-02 BMatP= 6.22D-01
 IDIUse=1 WtCom= 1.00D+00 WtEn= 0.00D+00
 Coeff-Com: -0.509D+00 0.151D+01
 Coeff:     -0.509D+00 0.151D+01
 Gap=     0.288 Goal=   None    Shift=    0.500
 T= 1132. Gap= 0.760 NK=0 IS=  110 IE=  671 IFin=  109
          NO(<0.9)=   0  NV(>0.1)=   0    109.00e < EF      0.00e >EF  Err=0.0D+00
 GapD=    0.288 DampG=1.000 DampE=1.000 DampFc=1.0000 IDamp=-1.
 RMSDP=1.58D-03 MaxDP=7.71D-02 DE=-3.70D-01 OVMax= 1.93D-02

 Cycle   3  Pass 1  IDiag  1:
 E= -1926.48967315308     Delta-E=       -0.216053052771 Rises=F Damp=F
 DIIS: error= 2.46D-03 at cycle   3 NSaved=   3.
 NSaved= 3 IEnMin= 3 EnMin= -1926.48967315308     IErMin= 3 ErrMin= 2.46D-03
 ErrMax= 2.46D-03  0.00D+00 EMaxC= 1.00D+00 BMatC= 7.18D-03 BMatP= 9.19D-02
 IDIUse=1 WtCom= 1.00D+00 WtEn= 0.00D+00
 Coeff-Com:  0.596D-01 0.480D-01 0.892D+00
 Coeff:      0.596D-01 0.480D-01 0.892D+00
 Gap=     0.276 Goal=   None    Shift=    0.500
 T=  862. Gap= 0.772 NK=0 IS=  110 IE=  671 IFin=  109
          NO(<0.9)=   0  NV(>0.1)=   0    109.00e < EF      0.00e >EF  Err=0.0D+00
 GapD=    0.276 DampG=1.000 DampE=1.000 DampFc=1.0000 IDamp=-1.
 RMSDP=7.12D-04 MaxDP=4.46D-02 DE=-2.16D-01 OVMax= 1.05D-02

 Cycle   4  Pass 1  IDiag  1:
 E= -1926.49674154884     Delta-E=       -0.007068395758 Rises=F Damp=F
 DIIS: error= 1.16D-03 at cycle   4 NSaved=   4.
 NSaved= 4 IEnMin= 4 EnMin= -1926.49674154884     IErMin= 4 ErrMin= 1.16D-03
 ErrMax= 1.16D-03  0.00D+00 EMaxC= 1.00D+00 BMatC= 1.03D-03 BMatP= 7.18D-03
 IDIUse=1 WtCom= 1.00D+00 WtEn= 0.00D+00
 Coeff-Com:  0.692D-01-0.103D+00 0.518D-01 0.982D+00
 Coeff:      0.692D-01-0.103D+00 0.518D-01 0.982D+00
 Gap=     0.272 Goal=   None    Shift=    0.500
 T=  297. Gap= 0.771 NK=0 IS=  110 IE=  671 IFin=  109
          NO(<0.9)=   0  NV(>0.1)=   0    109.00e < EF      0.00e >EF  Err=0.0D+00
 GapD=    0.272 DampG=1.000 DampE=1.000 DampFc=1.0000 IDamp=-1.
 RMSDP=3.67D-04 MaxDP=2.66D-02 DE=-7.07D-03 OVMax= 8.11D-03

 Cycle   5  Pass 1  IDiag  1:
 E= -1926.49813613162     Delta-E=       -0.001394582780 Rises=F Damp=F
 DIIS: error= 6.17D-04 at cycle   5 NSaved=   5.
 NSaved= 5 IEnMin= 5 EnMin= -1926.49813613162     IErMin= 5 ErrMin= 6.17D-04
 ErrMax= 6.17D-04  0.00D+00 EMaxC= 1.00D+00 BMatC= 1.78D-04 BMatP= 1.03D-03
 IDIUse=1 WtCom= 1.00D+00 WtEn= 0.00D+00
 Coeff-Com: -0.291D-03-0.970D-02-0.128D+00-0.542D-01 0.119D+01
 Coeff:     -0.291D-03-0.970D-02-0.128D+00-0.542D-01 0.119D+01
 Gap=     0.271 Goal=   None    Shift=    0.500
 RMSDP=2.28D-04 MaxDP=1.73D-02 DE=-1.39D-03 OVMax= 6.94D-03

 Cycle   6  Pass 1  IDiag  1:
 E= -1926.49863162551     Delta-E=       -0.000495493892 Rises=F Damp=F
 DIIS: error= 5.28D-04 at cycle   6 NSaved=   6.
 NSaved= 6 IEnMin= 6 EnMin= -1926.49863162551     IErMin= 6 ErrMin= 5.28D-04
 ErrMax= 5.28D-04  0.00D+00 EMaxC= 1.00D+00 BMatC= 5.76D-05 BMatP= 1.78D-04
 IDIUse=1 WtCom= 1.00D+00 WtEn= 0.00D+00
 Coeff-Com: -0.171D-01 0.217D-01-0.488D-01-0.208D+00-0.191D+00 0.144D+01
 Coeff:     -0.171D-01 0.217D-01-0.488D-01-0.208D+00-0.191D+00 0.144D+01
 Gap=     0.272 Goal=   None    Shift=    0.500
 RMSDP=1.45D-04 MaxDP=1.19D-02 DE=-4.95D-04 OVMax= 6.02D-03

 Cycle   7  Pass 1  IDiag  1:
 E= -1926.49887232259     Delta-E=       -0.000240697073 Rises=F Damp=F
 DIIS: error= 3.31D-04 at cycle   7 NSaved=   7.
 NSaved= 7 IEnMin= 7 EnMin= -1926.49887232259     IErMin= 7 ErrMin= 3.31D-04
 ErrMax= 3.31D-04  0.00D+00 EMaxC= 1.00D+00 BMatC= 2.54D-05 BMatP= 5.76D-05
 IDIUse=1 WtCom= 1.00D+00 WtEn= 0.00D+00
 Coeff-Com: -0.593D-02 0.711D-02 0.250D-01-0.784D-01-0.487D+00 0.696D-01
 Coeff-Com:  0.147D+01
 Coeff:     -0.593D-02 0.711D-02 0.250D-01-0.784D-01-0.487D+00 0.696D-01
 Coeff:      0.147D+01
 Gap=     0.272 Goal=   None    Shift=    0.500
 RMSDP=9.29D-05 MaxDP=8.32D-03 DE=-2.41D-04 OVMax= 5.07D-03

 Cycle   8  Pass 1  IDiag  1:
 E= -1926.49899387325     Delta-E=       -0.000121550665 Rises=F Damp=F
 DIIS: error= 2.39D-04 at cycle   8 NSaved=   8.
 NSaved= 8 IEnMin= 8 EnMin= -1926.49899387325     IErMin= 8 ErrMin= 2.39D-04
 ErrMax= 2.39D-04  0.00D+00 EMaxC= 1.00D+00 BMatC= 1.09D-05 BMatP= 2.54D-05
 IDIUse=1 WtCom= 1.00D+00 WtEn= 0.00D+00
 Coeff-Com:  0.424D-02-0.690D-02 0.323D-01 0.434D-01-0.112D+00-0.695D+00
 Coeff-Com:  0.152D+00 0.158D+01
 Coeff:      0.424D-02-0.690D-02 0.323D-01 0.434D-01-0.112D+00-0.695D+00
 Coeff:      0.152D+00 0.158D+01
 Gap=     0.272 Goal=   None    Shift=    0.500
 RMSDP=5.77D-05 MaxDP=5.63D-03 DE=-1.22D-04 OVMax= 4.07D-03

 Cycle   9  Pass 1  IDiag  1:
 E= -1926.49905301022     Delta-E=       -0.000059136971 Rises=F Damp=F
 DIIS: error= 1.76D-04 at cycle   9 NSaved=   9.
 NSaved= 9 IEnMin= 9 EnMin= -1926.49905301022     IErMin= 9 ErrMin= 1.76D-04
 ErrMax= 1.76D-04  0.00D+00 EMaxC= 1.00D+00 BMatC= 4.79D-06 BMatP= 1.09D-05
 IDIUse=1 WtCom= 1.00D+00 WtEn= 0.00D+00
 Coeff-Com:  0.258D-02-0.358D-02-0.200D-02 0.491D-01 0.186D+00-0.433D+00
 Coeff-Com: -0.476D+00-0.174D+00 0.185D+01
 Coeff:      0.258D-02-0.358D-02-0.200D-02 0.491D-01 0.186D+00-0.433D+00
 Coeff:     -0.476D+00-0.174D+00 0.185D+01
 Gap=     0.272 Goal=   None    Shift=    0.500
 RMSDP=3.84D-05 MaxDP=3.74D-03 DE=-5.91D-05 OVMax= 3.18D-03

 Cycle  10  Pass 1  IDiag  1:
 E= -1926.49908114548     Delta-E=       -0.000028135260 Rises=F Damp=F
 DIIS: error= 1.23D-04 at cycle  10 NSaved=  10.
 NSaved=10 IEnMin=10 EnMin= -1926.49908114548     IErMin=10 ErrMin= 1.23D-04
 ErrMax= 1.23D-04  0.00D+00 EMaxC= 1.00D+00 BMatC= 2.11D-06 BMatP= 4.79D-06
 IDIUse=1 WtCom= 1.00D+00 WtEn= 0.00D+00
 Coeff-Com: -0.253D-03 0.539D-03-0.107D-01 0.121D-01 0.104D+00 0.337D-02
 Coeff-Com: -0.210D+00-0.672D+00 0.349D-02 0.177D+01
 Coeff:     -0.253D-03 0.539D-03-0.107D-01 0.121D-01 0.104D+00 0.337D-02
 Coeff:     -0.210D+00-0.672D+00 0.349D-02 0.177D+01
 Gap=     0.272 Goal=   None    Shift=    0.500
 RMSDP=2.52D-05 MaxDP=2.41D-03 DE=-2.81D-05 OVMax= 2.33D-03

 Cycle  11  Pass 1  IDiag  1:
 E= -1926.49909393464     Delta-E=       -0.000012789159 Rises=F Damp=F
 DIIS: error= 8.47D-05 at cycle  11 NSaved=  11.
 NSaved=11 IEnMin=11 EnMin= -1926.49909393464     IErMin=11 ErrMin= 8.47D-05
 ErrMax= 8.47D-05  0.00D+00 EMaxC= 1.00D+00 BMatC= 9.10D-07 BMatP= 2.11D-06
 IDIUse=1 WtCom= 1.00D+00 WtEn= 0.00D+00
 Coeff-Com: -0.760D-03 0.971D-03-0.154D-03-0.122D-01-0.502D-01 0.160D+00
 Coeff-Com:  0.150D+00-0.252D+00-0.885D+00-0.121D+00 0.201D+01
 Coeff:     -0.760D-03 0.971D-03-0.154D-03-0.122D-01-0.502D-01 0.160D+00
 Coeff:      0.150D+00-0.252D+00-0.885D+00-0.121D+00 0.201D+01
 Gap=     0.272 Goal=   None    Shift=    0.500
 RMSDP=1.73D-05 MaxDP=1.65D-03 DE=-1.28D-05 OVMax= 1.71D-03

 Cycle  12  Pass 1  IDiag  1:
 E= -1926.49909976519     Delta-E=       -0.000005830546 Rises=F Damp=F
 DIIS: error= 5.85D-05 at cycle  12 NSaved=  12.
 NSaved=12 IEnMin=12 EnMin= -1926.49909976519     IErMin=12 ErrMin= 5.85D-05
 ErrMax= 5.85D-05  0.00D+00 EMaxC= 1.00D+00 BMatC= 4.26D-07 BMatP= 9.10D-07
 IDIUse=1 WtCom= 1.00D+00 WtEn= 0.00D+00
 Coeff-Com: -0.375D-04-0.360D-04 0.485D-02-0.599D-02-0.281D-01 0.337D-02
 Coeff-Com:  0.939D-01 0.179D+00-0.197D+00-0.104D+01-0.498D-01 0.204D+01
 Coeff:     -0.375D-04-0.360D-04 0.485D-02-0.599D-02-0.281D-01 0.337D-02
 Coeff:      0.939D-01 0.179D+00-0.197D+00-0.104D+01-0.498D-01 0.204D+01
 Gap=     0.272 Goal=   None    Shift=    0.500
 RMSDP=1.07D-05 MaxDP=1.02D-03 DE=-5.83D-06 OVMax= 1.20D-03

 Cycle  13  Pass 1  IDiag  1:
 E= -1926.49910237351     Delta-E=       -0.000002608324 Rises=F Damp=F
 DIIS: error= 3.90D-05 at cycle  13 NSaved=  13.
 NSaved=13 IEnMin=13 EnMin= -1926.49910237351     IErMin=13 ErrMin= 3.90D-05
 ErrMax= 3.90D-05  0.00D+00 EMaxC= 1.00D+00 BMatC= 1.90D-07 BMatP= 4.26D-07
 IDIUse=1 WtCom= 1.00D+00 WtEn= 0.00D+00
 Coeff-Com:  0.767D-04-0.104D-03 0.220D-02 0.136D-02 0.236D-02-0.482D-01
 Coeff-Com:  0.140D-01 0.147D+00 0.169D+00-0.587D+00-0.491D+00-0.113D+00
 Coeff-Com:  0.190D+01
 Coeff:      0.767D-04-0.104D-03 0.220D-02 0.136D-02 0.236D-02-0.482D-01
 Coeff:      0.140D-01 0.147D+00 0.169D+00-0.587D+00-0.491D+00-0.113D+00
 Coeff:      0.190D+01
 Gap=     0.272 Goal=   None    Shift=    0.500
 RMSDP=6.66D-06 MaxDP=6.21D-04 DE=-2.61D-06 OVMax= 8.18D-04

 Cycle  14  Pass 1  IDiag  1:
 E= -1926.49910350244     Delta-E=       -0.000001128933 Rises=F Damp=F
 DIIS: error= 2.51D-05 at cycle  14 NSaved=  14.
 NSaved=14 IEnMin=14 EnMin= -1926.49910350244     IErMin=14 ErrMin= 2.51D-05
 ErrMax= 2.51D-05  0.00D+00 EMaxC= 1.00D+00 BMatC= 7.93D-08 BMatP= 1.90D-07
 IDIUse=1 WtCom= 1.00D+00 WtEn= 0.00D+00
 Coeff-Com:  0.348D-04-0.560D-04-0.816D-03 0.312D-02 0.702D-02-0.168D-01
 Coeff-Com: -0.146D-01-0.140D-01 0.123D+00 0.107D+00-0.107D+00-0.121D+01
 Coeff-Com:  0.282D+00 0.184D+01
 Coeff:      0.348D-04-0.560D-04-0.816D-03 0.312D-02 0.702D-02-0.168D-01
 Coeff:     -0.146D-01-0.140D-01 0.123D+00 0.107D+00-0.107D+00-0.121D+01
 Coeff:      0.282D+00 0.184D+01
 Gap=     0.272 Goal=   None    Shift=    0.500
 RMSDP=3.97D-06 MaxDP=3.39D-04 DE=-1.13D-06 OVMax= 5.40D-04

 Cycle  15  Pass 1  IDiag  1:
 E= -1926.49910397333     Delta-E=       -0.000000470887 Rises=F Damp=F
 DIIS: error= 1.61D-05 at cycle  15 NSaved=  15.
 NSaved=15 IEnMin=15 EnMin= -1926.49910397333     IErMin=15 ErrMin= 1.61D-05
 ErrMax= 1.61D-05  0.00D+00 EMaxC= 1.00D+00 BMatC= 3.27D-08 BMatP= 7.93D-08
 IDIUse=1 WtCom= 1.00D+00 WtEn= 0.00D+00
 Coeff-Com:  0.326D-04-0.895D-04-0.840D-03 0.849D-03 0.257D-02 0.707D-02
 Coeff-Com: -0.117D-01-0.436D-01 0.603D-02 0.215D+00 0.820D-01-0.637D+00
 Coeff-Com: -0.427D+00 0.899D-01 0.172D+01
 Coeff:      0.326D-04-0.895D-04-0.840D-03 0.849D-03 0.257D-02 0.707D-02
 Coeff:     -0.117D-01-0.436D-01 0.603D-02 0.215D+00 0.820D-01-0.637D+00
 Coeff:     -0.427D+00 0.899D-01 0.172D+01
 Gap=     0.272 Goal=   None    Shift=    0.500
 RMSDP=2.35D-06 MaxDP=1.77D-04 DE=-4.71D-07 OVMax= 3.49D-04

 Cycle  16  Pass 1  IDiag  1:
 E= -1926.49910416603     Delta-E=       -0.000000192699 Rises=F Damp=F
 DIIS: error= 1.03D-05 at cycle  16 NSaved=  16.
 NSaved=16 IEnMin=16 EnMin= -1926.49910416603     IErMin=16 ErrMin= 1.03D-05
 ErrMax= 1.03D-05  0.00D+00 EMaxC= 1.00D+00 BMatC= 1.34D-08 BMatP= 3.27D-08
 IDIUse=1 WtCom= 1.00D+00 WtEn= 0.00D+00
 Coeff-Com:  0.717D-05-0.390D-04 0.436D-04-0.863D-03-0.832D-03 0.826D-02
 Coeff-Com: -0.609D-03-0.720D-02-0.456D-01 0.461D-01 0.782D-01 0.106D+00
 Coeff-Com: -0.316D+00-0.629D+00-0.139D+00 0.190D+01
 Coeff:      0.717D-05-0.390D-04 0.436D-04-0.863D-03-0.832D-03 0.826D-02
 Coeff:     -0.609D-03-0.720D-02-0.456D-01 0.461D-01 0.782D-01 0.106D+00
 Coeff:     -0.316D+00-0.629D+00-0.139D+00 0.190D+01
 Gap=     0.272 Goal=   None    Shift=    0.500
 RMSDP=1.47D-06 MaxDP=9.32D-05 DE=-1.93D-07 OVMax= 2.21D-04

 Cycle  17  Pass 1  IDiag  1:
 E= -1926.49910424318     Delta-E=       -0.000000077153 Rises=F Damp=F
 DIIS: error= 6.48D-06 at cycle  17 NSaved=  17.
 NSaved=17 IEnMin=17 EnMin= -1926.49910424318     IErMin=17 ErrMin= 6.48D-06
 ErrMax= 6.48D-06  0.00D+00 EMaxC= 1.00D+00 BMatC= 5.73D-09 BMatP= 1.34D-08
 IDIUse=1 WtCom= 1.00D+00 WtEn= 0.00D+00
 Coeff-Com: -0.198D-04 0.331D-04 0.268D-03-0.551D-03-0.152D-02 0.179D-02
 Coeff-Com:  0.411D-02 0.113D-01-0.262D-01-0.406D-01 0.240D-01 0.211D+00
 Coeff-Com: -0.586D-01-0.301D+00-0.781D+00 0.313D+00 0.164D+01
 Coeff:     -0.198D-04 0.331D-04 0.268D-03-0.551D-03-0.152D-02 0.179D-02
 Coeff:      0.411D-02 0.113D-01-0.262D-01-0.406D-01 0.240D-01 0.211D+00
 Coeff:     -0.586D-01-0.301D+00-0.781D+00 0.313D+00 0.164D+01
 Gap=     0.272 Goal=   None    Shift=    0.500
 RMSDP=9.24D-07 MaxDP=5.73D-05 DE=-7.72D-08 OVMax= 1.41D-04

 SCF Done:  E(RLC-wHPBE) =  -1926.49910424     A.U. after   17 cycles
            NFock= 17  Conv=0.92D-06     -V/T= 2.0034
 KE= 1.920008419419D+03 PE=-1.017877095243D+04 EE= 3.505017148691D+03
 Leave Link  502 at Mon Jan 18 04:44:41 2021, MaxMem=  4026531840 cpu:            7008.4 elap:             878.3
 (Enter /opt/ohpc/pub/libs/gaussian/g16-A.03/sandybridge/g16/l508.exe)
 QCSCF skips out because SCF is already converged.
 Leave Link  508 at Mon Jan 18 04:44:41 2021, MaxMem=  4026531840 cpu:               0.1 elap:               0.0
 (Enter /opt/ohpc/pub/libs/gaussian/g16-A.03/sandybridge/g16/l601.exe)
 Copying SCF densities to generalized density rwf, IOpCl= 0 IROHF=0.

 **********************************************************************

            Population analysis using the SCF density.

 **********************************************************************

 Orbital symmetries:
       Occupied  (A) (A) (A) (A) (A) (A) (A) (A) (A) (A) (A) (A)
                 (A) (A) (A) (A) (A) (A) (A) (A) (A) (A) (A) (A)
                 (A) (A) (A) (A) (A) (A) (A) (A) (A) (A) (A) (A)
                 (A) (A) (A) (A) (A) (A) (A) (A) (A) (A) (A) (A)
                 (A) (A) (A) (A) (A) (A) (A) (A) (A) (A) (A) (A)
                 (A) (A) (A) (A) (A) (A) (A) (A) (A) (A) (A) (A)
                 (A) (A) (A) (A) (A) (A) (A) (A) (A) (A) (A) (A)
                 (A) (A) (A) (A) (A) (A) (A) (A) (A) (A) (A) (A)
                 (A) (A) (A) (A) (A) (A) (A) (A) (A) (A) (A) (A)
                 (A)
       Virtual   (A) (A) (A) (A) (A) (A) (A) (A) (A) (A) (A) (A)
                 (A) (A) (A) (A) (A) (A) (A) (A) (A) (A) (A) (A)
                 (A) (A) (A) (A) (A) (A) (A) (A) (A) (A) (A) (A)
                 (A) (A) (A) (A) (A) (A) (A) (A) (A) (A) (A) (A)
                 (A) (A) (A) (A) (A) (A) (A) (A) (A) (A) (A) (A)
                 (A) (A) (A) (A) (A) (A) (A) (A) (A) (A) (A) (A)
                 (A) (A) (A) (A) (A) (A) (A) (A) (A) (A) (A) (A)
                 (A) (A) (A) (A) (A) (A) (A) (A) (A) (A) (A) (A)
                 (A) (A) (A) (A) (A) (A) (A) (A) (A) (A) (A) (A)
                 (A) (A) (A) (A) (A) (A) (A) (A) (A) (A) (A) (A)
                 (A) (A) (A) (A) (A) (A) (A) (A) (A) (A) (A) (A)
                 (A) (A) (A) (A) (A) (A) (A) (A) (A) (A) (A) (A)
                 (A) (A) (A) (A) (A) (A) (A) (A) (A) (A) (A) (A)
                 (A) (A) (A) (A) (A) (A) (A) (A) (A) (A) (A) (A)
                 (A) (A) (A) (A) (A) (A) (A) (A) (A) (A) (A) (A)
                 (A) (A) (A) (A) (A) (A) (A) (A) (A) (A) (A) (A)
                 (A) (A) (A) (A) (A) (A) (A) (A) (A) (A) (A) (A)
                 (A) (A) (A) (A) (A) (A) (A) (A) (A) (A) (A) (A)
                 (A) (A) (A) (A) (A) (A) (A) (A) (A) (A) (A) (A)
                 (A) (A) (A) (A) (A) (A) (A) (A) (A) (A) (A) (A)
                 (A) (A) (A) (A) (A) (A) (A) (A) (A) (A) (A) (A)
                 (A) (A) (A) (A) (A) (A) (A) (A) (A) (A) (A) (A)
                 (A) (A) (A) (A) (A) (A) (A) (A) (A) (A) (A) (A)
                 (A) (A) (A) (A) (A) (A) (A) (A) (A) (A) (A) (A)
                 (A) (A) (A) (A) (A) (A) (A) (A) (A) (A) (A) (A)
                 (A) (A) (A) (A) (A) (A) (A) (A) (A) (A) (A) (A)
                 (A) (A) (A) (A) (A) (A) (A) (A) (A) (A) (A) (A)
                 (A) (A) (A) (A) (A) (A) (A) (A) (A) (A) (A) (A)
                 (A) (A) (A) (A) (A) (A) (A) (A) (A) (A) (A) (A)
                 (A) (A) (A) (A) (A) (A) (A) (A) (A) (A) (A) (A)
                 (A) (A) (A) (A) (A) (A) (A) (A) (A) (A) (A) (A)
                 (A) (A) (A) (A) (A) (A) (A) (A) (A) (A) (A) (A)
                 (A) (A) (A) (A) (A) (A) (A) (A) (A) (A) (A) (A)
                 (A) (A) (A) (A) (A) (A) (A) (A) (A) (A) (A) (A)
                 (A) (A) (A) (A) (A) (A) (A) (A) (A) (A) (A) (A)
                 (A) (A) (A) (A) (A) (A) (A) (A) (A) (A) (A) (A)
                 (A) (A) (A) (A) (A) (A) (A) (A) (A) (A) (A) (A)
                 (A) (A) (A) (A) (A) (A) (A) (A) (A) (A) (A) (A)
                 (A) (A) (A) (A) (A) (A) (A) (A) (A) (A) (A) (A)
                 (A) (A) (A) (A) (A) (A) (A) (A) (A) (A) (A) (A)
                 (A) (A) (A) (A) (A) (A) (A) (A) (A) (A) (A) (A)
                 (A) (A) (A) (A) (A) (A) (A) (A) (A) (A) (A) (A)
                 (A) (A) (A) (A) (A) (A) (A) (A) (A) (A) (A) (A)
                 (A) (A) (A) (A) (A) (A) (A) (A) (A) (A) (A) (A)
                 (A) (A) (A) (A) (A) (A) (A) (A) (A) (A) (A) (A)
                 (A) (A) (A) (A) (A) (A) (A) (A) (A) (A) (A) (A)
                 (A) (A) (A) (A) (A) (A) (A) (A) (A) (A)
 The electronic state is 1-A.
 Alpha  occ. eigenvalues --  -88.25729 -88.25644 -18.90606 -18.90497 -14.13645
 Alpha  occ. eigenvalues --  -10.06991 -10.06886 -10.05025 -10.04445 -10.04378
 Alpha  occ. eigenvalues --  -10.01489 -10.01475 -10.01469 -10.01465 -10.01449
 Alpha  occ. eigenvalues --  -10.01439 -10.01407 -10.01336 -10.01326 -10.01230
 Alpha  occ. eigenvalues --  -10.01153 -10.01068 -10.00984 -10.00929 -10.00921
 Alpha  occ. eigenvalues --  -10.00888 -10.00803 -10.00709 -10.00469  -7.84215
 Alpha  occ. eigenvalues --   -7.84142  -5.86262  -5.86193  -5.86083  -5.86005
 Alpha  occ. eigenvalues --   -5.85319  -5.85243  -1.11025  -1.10919  -1.02069
 Alpha  occ. eigenvalues --   -0.93934  -0.92136  -0.92095  -0.90515  -0.87563
 Alpha  occ. eigenvalues --   -0.82840  -0.82205  -0.81963  -0.81326  -0.81196
 Alpha  occ. eigenvalues --   -0.80652  -0.78766  -0.77644  -0.75476  -0.70775
 Alpha  occ. eigenvalues --   -0.70086  -0.68637  -0.68235  -0.67164  -0.66622
 Alpha  occ. eigenvalues --   -0.65058  -0.63430  -0.62287  -0.62176  -0.60654
 Alpha  occ. eigenvalues --   -0.60151  -0.58662  -0.56896  -0.55332  -0.54448
 Alpha  occ. eigenvalues --   -0.53167  -0.52701  -0.51514  -0.51406  -0.51135
 Alpha  occ. eigenvalues --   -0.50834  -0.50241  -0.49705  -0.49562  -0.49304
 Alpha  occ. eigenvalues --   -0.49055  -0.48904  -0.48442  -0.47256  -0.47007
 Alpha  occ. eigenvalues --   -0.46464  -0.45931  -0.45276  -0.44485  -0.43551
 Alpha  occ. eigenvalues --   -0.43063  -0.42793  -0.42352  -0.41610  -0.41330
 Alpha  occ. eigenvalues --   -0.40966  -0.40726  -0.39583  -0.36816  -0.34775
 Alpha  occ. eigenvalues --   -0.34189  -0.33576  -0.33389  -0.32696  -0.30971
 Alpha  occ. eigenvalues --   -0.30730  -0.30036  -0.25816  -0.24312
 Alpha virt. eigenvalues --    0.02905   0.03863   0.04134   0.04969   0.05136
 Alpha virt. eigenvalues --    0.05291   0.05411   0.07219   0.08744   0.09281
 Alpha virt. eigenvalues --    0.09400   0.09919   0.10793   0.11829   0.12409
 Alpha virt. eigenvalues --    0.12772   0.13466   0.14517   0.14767   0.15015
 Alpha virt. eigenvalues --    0.15324   0.16170   0.16723   0.17294   0.17861
 Alpha virt. eigenvalues --    0.18194   0.18439   0.18801   0.18971   0.19637
 Alpha virt. eigenvalues --    0.20155   0.20615   0.21050   0.21774   0.22354
 Alpha virt. eigenvalues --    0.22499   0.22859   0.23296   0.23562   0.24053
 Alpha virt. eigenvalues --    0.25418   0.25562   0.26310   0.26719   0.27091
 Alpha virt. eigenvalues --    0.27678   0.27800   0.27900   0.28039   0.28294
 Alpha virt. eigenvalues --    0.28548   0.29206   0.29364   0.29547   0.29902
 Alpha virt. eigenvalues --    0.30134   0.30469   0.30802   0.30903   0.31563
 Alpha virt. eigenvalues --    0.31643   0.32018   0.32306   0.32691   0.32895
 Alpha virt. eigenvalues --    0.33252   0.33773   0.34556   0.34738   0.34863
 Alpha virt. eigenvalues --    0.35414   0.36195   0.36265   0.36553   0.36590
 Alpha virt. eigenvalues --    0.37269   0.37479   0.37669   0.38631   0.39611
 Alpha virt. eigenvalues --    0.39907   0.40161   0.40439   0.40729   0.40928
 Alpha virt. eigenvalues --    0.41055   0.41553   0.41967   0.42617   0.42720
 Alpha virt. eigenvalues --    0.42937   0.43333   0.43823   0.44626   0.44759
 Alpha virt. eigenvalues --    0.44968   0.45093   0.45291   0.45389   0.45539
 Alpha virt. eigenvalues --    0.46119   0.46270   0.46440   0.46683   0.47245
 Alpha virt. eigenvalues --    0.47518   0.47688   0.47898   0.48200   0.48446
 Alpha virt. eigenvalues --    0.48704   0.49027   0.49183   0.49597   0.49971
 Alpha virt. eigenvalues --    0.50593   0.50763   0.51350   0.51609   0.52043
 Alpha virt. eigenvalues --    0.52281   0.52796   0.53492   0.53951   0.54284
 Alpha virt. eigenvalues --    0.54507   0.54793   0.55135   0.55479   0.55647
 Alpha virt. eigenvalues --    0.56171   0.56228   0.56683   0.57245   0.57503
 Alpha virt. eigenvalues --    0.58271   0.58407   0.59163   0.59681   0.60227
 Alpha virt. eigenvalues --    0.60725   0.61223   0.61697   0.61909   0.62478
 Alpha virt. eigenvalues --    0.62750   0.63448   0.63627   0.63908   0.64214
 Alpha virt. eigenvalues --    0.65225   0.65343   0.65747   0.66184   0.67163
 Alpha virt. eigenvalues --    0.67676   0.68514   0.69418   0.71169   0.71597
 Alpha virt. eigenvalues --    0.71944   0.73500   0.73699   0.74008   0.74580
 Alpha virt. eigenvalues --    0.74878   0.75384   0.75768   0.76327   0.76721
 Alpha virt. eigenvalues --    0.77260   0.77646   0.78363   0.78828   0.79412
 Alpha virt. eigenvalues --    0.79773   0.80430   0.81579   0.82155   0.82753
 Alpha virt. eigenvalues --    0.83357   0.83700   0.83861   0.84273   0.84946
 Alpha virt. eigenvalues --    0.86130   0.86661   0.87577   0.88314   0.88693
 Alpha virt. eigenvalues --    0.89854   0.90308   0.91402   0.92229   0.92565
 Alpha virt. eigenvalues --    0.93520   0.93625   0.94449   0.96727   0.97753
 Alpha virt. eigenvalues --    0.98208   0.98956   1.01492   1.02758   1.04795
 Alpha virt. eigenvalues --    1.06863   1.09000   1.19526   1.20595   1.21485
 Alpha virt. eigenvalues --    1.24868   1.25906   1.27043   1.27410   1.28378
 Alpha virt. eigenvalues --    1.28852   1.29242   1.29315   1.29609   1.29855
 Alpha virt. eigenvalues --    1.30525   1.30805   1.31235   1.31677   1.32172
 Alpha virt. eigenvalues --    1.32368   1.32827   1.34184   1.34370   1.34917
 Alpha virt. eigenvalues --    1.35131   1.35763   1.36829   1.37358   1.37577
 Alpha virt. eigenvalues --    1.38052   1.38572   1.39025   1.39352   1.40725
 Alpha virt. eigenvalues --    1.40772   1.41077   1.43230   1.43999   1.44412
 Alpha virt. eigenvalues --    1.45187   1.45520   1.45784   1.46613   1.46905
 Alpha virt. eigenvalues --    1.47147   1.47405   1.47862   1.48136   1.48341
 Alpha virt. eigenvalues --    1.48398   1.48985   1.49467   1.49542   1.49914
 Alpha virt. eigenvalues --    1.50015   1.50229   1.50713   1.51145   1.51936
 Alpha virt. eigenvalues --    1.52184   1.52979   1.53210   1.53401   1.54147
 Alpha virt. eigenvalues --    1.54448   1.54916   1.54967   1.55105   1.55990
 Alpha virt. eigenvalues --    1.56081   1.56526   1.57662   1.57908   1.58114
 Alpha virt. eigenvalues --    1.58179   1.58690   1.58894   1.59112   1.59555
 Alpha virt. eigenvalues --    1.59845   1.60026   1.60260   1.60788   1.61110
 Alpha virt. eigenvalues --    1.61323   1.61748   1.62053   1.62614   1.62857
 Alpha virt. eigenvalues --    1.63008   1.63548   1.63591   1.64545   1.64650
 Alpha virt. eigenvalues --    1.65488   1.66200   1.66781   1.67566   1.67886
 Alpha virt. eigenvalues --    1.69473   1.70552   1.71836   1.72226   1.72500
 Alpha virt. eigenvalues --    1.73197   1.74461   1.75142   1.77606   1.78077
 Alpha virt. eigenvalues --    1.79938   1.80738   1.81097   1.81406   1.81588
 Alpha virt. eigenvalues --    1.81764   1.82153   1.82850   1.82885   1.83404
 Alpha virt. eigenvalues --    1.83867   1.84581   1.84683   1.85809   1.86324
 Alpha virt. eigenvalues --    1.86974   1.87051   1.87503   1.88140   1.88889
 Alpha virt. eigenvalues --    1.89748   1.91088   1.91917   1.92502   1.92805
 Alpha virt. eigenvalues --    1.93232   1.93735   1.94062   1.94736   1.95274
 Alpha virt. eigenvalues --    1.95468   1.95621   1.96218   1.96417   1.97103
 Alpha virt. eigenvalues --    1.97717   1.97831   1.98045   1.98444   1.99170
 Alpha virt. eigenvalues --    1.99600   2.00257   2.02331   2.03010   2.03147
 Alpha virt. eigenvalues --    2.04175   2.04927   2.05510   2.05838   2.06678
 Alpha virt. eigenvalues --    2.07025   2.07281   2.07822   2.08603   2.10696
 Alpha virt. eigenvalues --    2.12547   2.13282   2.14150   2.14869   2.15196
 Alpha virt. eigenvalues --    2.16954   2.18505   2.19578   2.19916   2.22618
 Alpha virt. eigenvalues --    2.23382   2.24128   2.24679   2.26072   2.26821
 Alpha virt. eigenvalues --    2.27542   2.28255   2.29797   2.30321   2.30488
 Alpha virt. eigenvalues --    2.31100   2.32174   2.33201   2.35101   2.35198
 Alpha virt. eigenvalues --    2.36378   2.36728   2.36923   2.37050   2.37241
 Alpha virt. eigenvalues --    2.37560   2.38267   2.38550   2.39294   2.39620
 Alpha virt. eigenvalues --    2.39853   2.40228   2.40734   2.40975   2.41597
 Alpha virt. eigenvalues --    2.41678   2.42155   2.42262   2.42449   2.42950
 Alpha virt. eigenvalues --    2.43343   2.43858   2.44077   2.44292   2.46769
 Alpha virt. eigenvalues --    2.49343   2.50287   2.50963   2.52727   2.53429
 Alpha virt. eigenvalues --    2.53834   2.56243   2.56950   2.57174   2.57744
 Alpha virt. eigenvalues --    2.58751   2.61899   2.61983   2.63031   2.63906
 Alpha virt. eigenvalues --    2.64510   2.64974   2.65317   2.65449   2.66912
 Alpha virt. eigenvalues --    2.66994   2.67422   2.67623   2.68038   2.69237
 Alpha virt. eigenvalues --    2.70126   2.70366   2.70697   2.71051   2.72380
 Alpha virt. eigenvalues --    2.73288   2.74478   2.75398   2.76350   2.77427
 Alpha virt. eigenvalues --    2.77962   2.78481   2.79577   2.81557   2.82903
 Alpha virt. eigenvalues --    2.83367   2.84246   2.84445   2.85024   2.85702
 Alpha virt. eigenvalues --    2.87665   2.89270   2.89879   2.91295   2.91926
 Alpha virt. eigenvalues --    2.92476   2.97402   2.97568   2.98494   2.99295
 Alpha virt. eigenvalues --    3.00886   3.02004   3.03968   3.04048   3.04129
 Alpha virt. eigenvalues --    3.04603   3.05834   3.06335   3.08131   3.08452
 Alpha virt. eigenvalues --    3.08963   3.11280   3.12263   3.14305   3.15142
 Alpha virt. eigenvalues --    3.15692   3.16223   3.16653   3.17441   3.17968
 Alpha virt. eigenvalues --    3.18232   3.18908   3.21020   3.22026   3.23368
 Alpha virt. eigenvalues --    3.23734   3.24763   3.25685   3.26928   3.27640
 Alpha virt. eigenvalues --    3.28255   3.28489   3.30974   3.32607   3.32775
 Alpha virt. eigenvalues --    3.35530   3.36966   3.37594   3.40197   3.41551
 Alpha virt. eigenvalues --    3.43381   3.44815   3.47542   3.50696   3.58327
 Alpha virt. eigenvalues --    3.58804   3.59579   3.60750   3.63095   3.64384
 Alpha virt. eigenvalues --    3.74967   3.76550   3.89625   3.91507   4.11605
 Alpha virt. eigenvalues --    4.12607   4.37511   4.37647  19.00877  19.22541
 Alpha virt. eigenvalues --   21.08783  21.19752  21.27168  21.28923  21.64755
 Alpha virt. eigenvalues --   21.72622  21.74471  21.75769  21.76858  21.80104
 Alpha virt. eigenvalues --   21.87103  21.88670  21.93738  21.96289  21.98159
 Alpha virt. eigenvalues --   22.00225  22.01884  22.03836  22.07181  22.08455
 Alpha virt. eigenvalues --   22.14633  22.15789  22.20637  22.23202  32.09787
 Alpha virt. eigenvalues --   43.26460  43.26699
          Condensed to atoms (all electrons):
               1          2          3          4          5          6
     1  C    5.481293  -0.163918  -0.005623   0.327170   0.000961  -0.006418
     2  C   -0.163918   6.411827   0.070252  -0.089455  -0.021073   0.043605
     3  S   -0.005623   0.070252  15.487190  -0.200130  -0.208376   0.080936
     4  C    0.327170  -0.089455  -0.200130   6.427525   0.038180  -0.018083
     5  C    0.000961  -0.021073  -0.208376   0.038180   6.847186  -0.016084
     6  C   -0.006418   0.043605   0.080936  -0.018083  -0.016084   6.544981
     7  C    0.134561   0.301874   0.006027  -0.353488  -0.000488   0.001200
     8  C   -0.290025   0.334704   0.022753  -0.177406  -0.005966   0.001667
     9  H    0.001313   0.005813   0.022876  -0.115378  -0.115675   0.005433
    10  C    0.000526   0.000638   0.046549  -0.007237  -0.671327   0.254021
    11  C    0.000143  -0.008728  -0.019726  -0.000187   0.291846  -0.241073
    12  C   -0.000017   0.001474   0.007040  -0.000078  -0.300953   0.303686
    13  C   -0.000025  -0.000786  -0.005097   0.000574   0.369778  -0.382722
    14  H    0.000011  -0.000009   0.000317  -0.000913  -0.082316   0.024077
    15  H    0.000047  -0.001089  -0.006813  -0.000040   0.030178  -0.142146
    16  H    0.000000   0.000001  -0.000027  -0.000001  -0.005422   0.022581
    17  C    0.159254  -0.352387  -0.002130   0.304500   0.000988  -0.000527
    18  H    0.461186  -0.114089  -0.006316   0.032282  -0.000001  -0.001074
    19  H    0.011613  -0.116400   0.356755   0.007324   0.006848  -0.122764
    20  H   -0.075220   0.027596  -0.000089  -0.008259  -0.000001  -0.000003
    21  H   -0.003615   0.031823   0.000281  -0.113463  -0.000930  -0.000016
    22  H    0.024538  -0.008317   0.000044   0.027834  -0.000002  -0.000002
    23  S    0.021947  -0.194396   0.201130   0.072697   0.079052  -0.204108
    24  N    0.000000  -0.000002   0.000023  -0.000006   0.019628   0.006419
    25  C   -0.000000  -0.000000  -0.000081   0.000000  -0.002104   0.001517
    26  C   -0.000000   0.000000   0.000002  -0.000000  -0.000712   0.000638
    27  C    0.000000  -0.000001   0.000005  -0.000001   0.004041  -0.003992
    28  C   -0.000000   0.000000   0.000000   0.000000  -0.000115   0.000044
    29  C    0.000000  -0.000000   0.000000  -0.000000   0.000122  -0.000370
    30  C    0.000000  -0.000000   0.000000  -0.000000   0.000034  -0.000005
    31  H    0.000000  -0.000000  -0.000000  -0.000000   0.000054  -0.000023
    32  H    0.000000  -0.000000  -0.000011  -0.000000   0.000726   0.000895
    33  H    0.000000  -0.000000  -0.000000   0.000000   0.000000  -0.000000
    34  H    0.000000  -0.000000  -0.000000   0.000000  -0.000001  -0.000005
    35  C    0.000000  -0.000001   0.000084  -0.000004  -0.020638   0.002811
    36  C   -0.000000   0.000000  -0.000003   0.000001   0.005317  -0.000385
    37  C    0.000000   0.000001   0.000015  -0.000005  -0.017674   0.000989
    38  C   -0.000000   0.000000  -0.000000   0.000000  -0.000068   0.000032
    39  C    0.000000  -0.000000   0.000001   0.000000  -0.001385   0.000029
    40  C    0.000000   0.000000  -0.000000  -0.000000  -0.000234  -0.000009
    41  H    0.000000  -0.000000   0.000000  -0.000000  -0.000135   0.000011
    42  H    0.000000   0.000000   0.000012  -0.000003  -0.005086   0.000668
    43  H    0.000000  -0.000000   0.000000  -0.000000  -0.000006   0.000000
    44  H   -0.000000  -0.000000   0.000000   0.000000   0.000015  -0.000001
    45  O   -0.000000   0.000000   0.000000   0.000000   0.000001   0.000000
    46  H    0.000000   0.000000   0.000000  -0.000000   0.000000  -0.000000
    47  O    0.000000  -0.000000  -0.000000  -0.000000  -0.000000   0.000000
    48  H    0.000000  -0.000000   0.000000  -0.000000   0.000000  -0.000000
               7          8          9         10         11         12
     1  C    0.134561  -0.290025   0.001313   0.000526   0.000143  -0.000017
     2  C    0.301874   0.334704   0.005813   0.000638  -0.008728   0.001474
     3  S    0.006027   0.022753   0.022876   0.046549  -0.019726   0.007040
     4  C   -0.353488  -0.177406  -0.115378  -0.007237  -0.000187  -0.000078
     5  C   -0.000488  -0.005966  -0.115675  -0.671327   0.291846  -0.300953
     6  C    0.001200   0.001667   0.005433   0.254021  -0.241073   0.303686
     7  C    5.238535   0.160743  -0.000381  -0.000067   0.000011   0.000002
     8  C    0.160743   5.488310   0.011336  -0.000469   0.000563  -0.000062
     9  H   -0.000381   0.011336   0.712544   0.016231   0.002120  -0.001494
    10  C   -0.000067  -0.000469   0.016231   6.381371  -0.269357  -0.083849
    11  C    0.000011   0.000563   0.002120  -0.269357   5.652644   0.001525
    12  C    0.000002  -0.000062  -0.001494  -0.083849   0.001525   5.785501
    13  C    0.000001   0.000035  -0.001659  -0.063782   0.196263   0.163683
    14  H   -0.000001   0.000018   0.005202   0.428617  -0.001387   0.008658
    15  H    0.000000   0.000012   0.000057  -0.000806   0.476051  -0.084388
    16  H   -0.000000   0.000000  -0.000001   0.018868  -0.056806   0.413023
    17  C    0.310799   0.134552  -0.002081   0.000032  -0.000057   0.000002
    18  H   -0.076610  -0.003961   0.000054   0.000014   0.000046  -0.000002
    19  H   -0.002310   0.001177   0.000664   0.001467   0.017964  -0.004911
    20  H    0.434985   0.024413   0.000004   0.000000   0.000000  -0.000000
    21  H    0.015967   0.461059   0.006624   0.000039   0.000013  -0.000002
    22  H   -0.073303  -0.075254   0.000049   0.000000   0.000000  -0.000000
    23  S   -0.001770  -0.005596   0.356839  -0.002460   0.028511  -0.005550
    24  N   -0.000000   0.000000   0.000114  -0.006008   0.019300  -0.015777
    25  C    0.000000   0.000000  -0.000027  -0.010367  -0.002106   0.034822
    26  C   -0.000000  -0.000000  -0.000000  -0.012122   0.000692   0.031627
    27  C   -0.000000   0.000000   0.000020   0.023788  -0.001283  -0.103181
    28  C    0.000000  -0.000000  -0.000000  -0.000219  -0.000207   0.001982
    29  C    0.000000   0.000000   0.000001   0.001241   0.000819  -0.005103
    30  C   -0.000000   0.000000   0.000000   0.000069  -0.000158  -0.001726
    31  H    0.000000   0.000000  -0.000000  -0.000244   0.000042  -0.000032
    32  H    0.000000   0.000000  -0.000003  -0.000263  -0.001955   0.002306
    33  H    0.000000   0.000000   0.000000   0.000002  -0.000001  -0.000035
    34  H   -0.000000  -0.000000   0.000000  -0.000030   0.000017  -0.000062
    35  C   -0.000000  -0.000000   0.000209   0.061621  -0.001378  -0.015886
    36  C    0.000000   0.000000  -0.000010   0.019558   0.000320  -0.015958
    37  C   -0.000000  -0.000000  -0.000023  -0.066573  -0.000706   0.033157
    38  C    0.000000  -0.000000   0.000001   0.002073  -0.000065  -0.000116
    39  C   -0.000000  -0.000000  -0.000005  -0.007325  -0.000132   0.001603
    40  C   -0.000000   0.000000  -0.000002  -0.001974   0.000016   0.000147
    41  H   -0.000000   0.000000   0.000001   0.000459   0.000004  -0.000268
    42  H   -0.000000   0.000000   0.000007   0.005628   0.000294  -0.000418
    43  H   -0.000000  -0.000000   0.000000  -0.000037  -0.000000   0.000003
    44  H    0.000000  -0.000000   0.000000   0.000088   0.000001  -0.000034
    45  O    0.000000  -0.000000   0.000000   0.000014  -0.000000  -0.000000
    46  H   -0.000000   0.000000   0.000000  -0.000000   0.000000   0.000000
    47  O    0.000000  -0.000000   0.000000   0.000000   0.000000   0.000003
    48  H   -0.000000  -0.000000   0.000000  -0.000000   0.000000  -0.000001
              13         14         15         16         17         18
     1  C   -0.000025   0.000011   0.000047   0.000000   0.159254   0.461186
     2  C   -0.000786  -0.000009  -0.001089   0.000001  -0.352387  -0.114089
     3  S   -0.005097   0.000317  -0.006813  -0.000027  -0.002130  -0.006316
     4  C    0.000574  -0.000913  -0.000040  -0.000001   0.304500   0.032282
     5  C    0.369778  -0.082316   0.030178  -0.005422   0.000988  -0.000001
     6  C   -0.382722   0.024077  -0.142146   0.022581  -0.000527  -0.001074
     7  C    0.000001  -0.000001   0.000000  -0.000000   0.310799  -0.076610
     8  C    0.000035   0.000018   0.000012   0.000000   0.134552  -0.003961
     9  H   -0.001659   0.005202   0.000057  -0.000001  -0.002081   0.000054
    10  C   -0.063782   0.428617  -0.000806   0.018868   0.000032   0.000014
    11  C    0.196263  -0.001387   0.476051  -0.056806  -0.000057   0.000046
    12  C    0.163683   0.008658  -0.084388   0.413023   0.000002  -0.000002
    13  C    5.801337  -0.052179   0.028327  -0.053678   0.000000  -0.000000
    14  H   -0.052179   0.520935   0.000007  -0.000173   0.000002   0.000000
    15  H    0.028327   0.000007   0.605734  -0.008014  -0.000001   0.000004
    16  H   -0.053678  -0.000173  -0.008014   0.521505   0.000000   0.000000
    17  C    0.000000   0.000002  -0.000001   0.000000   5.234650   0.016333
    18  H   -0.000000   0.000000   0.000004   0.000000   0.016333   0.591561
    19  H    0.000978   0.000027   0.006734  -0.000001  -0.000318   0.007002
    20  H   -0.000000  -0.000000   0.000000  -0.000000  -0.072949  -0.007745
    21  H    0.000000  -0.000001   0.000000  -0.000000  -0.075981   0.000047
    22  H   -0.000000   0.000000   0.000000   0.000000   0.434925  -0.000076
    23  S    0.007419  -0.006594   0.000274   0.000003   0.005361   0.000282
    24  N    0.134714  -0.006155  -0.000290  -0.006955  -0.000000   0.000000
    25  C   -0.074287  -0.001411  -0.000173   0.003703  -0.000000  -0.000000
    26  C   -0.023465  -0.000421  -0.000094  -0.001703   0.000000  -0.000000
    27  C    0.040949   0.000674   0.000371   0.002762  -0.000000   0.000000
    28  C   -0.001161   0.000011  -0.000002   0.001185  -0.000000   0.000000
    29  C   -0.005860   0.000007   0.000095  -0.004177  -0.000000   0.000000
    30  C    0.001788  -0.000004  -0.000006   0.000539   0.000000   0.000000
    31  H   -0.001434  -0.000010   0.000000   0.000039  -0.000000  -0.000000
    32  H   -0.003008   0.000017  -0.000079   0.001207   0.000000  -0.000000
    33  H    0.000002  -0.000000   0.000000   0.000008  -0.000000  -0.000000
    34  H    0.000017   0.000000   0.000001  -0.000008  -0.000000   0.000000
    35  C   -0.103141   0.008850   0.000156  -0.001468  -0.000000   0.000000
[...]
    19  H   -0.000006  -0.000000   0.000007   0.000000   0.000000   0.000000
    20  H   -0.000000  -0.000000   0.000000   0.000000   0.000000  -0.000000
    21  H   -0.000000  -0.000000   0.000000  -0.000000   0.000000  -0.000000
    22  H   -0.000000  -0.000000   0.000000   0.000000   0.000000  -0.000000
    23  S   -0.000028  -0.000000   0.000018   0.000000   0.000002  -0.000000
    24  N    0.097932   0.001433  -0.018413   0.017509   0.029112   0.003857
    25  C    5.651044   0.328006   0.294184   0.024353   0.093259  -0.163135
    26  C    0.328006   5.229096  -0.147552   0.305413  -0.061130   0.004232
    27  C    0.294184  -0.147552   5.643849  -0.013926  -0.209529   0.129960
    28  C    0.024353   0.305413  -0.013926   5.389271  -0.192158   0.395942
    29  C    0.093259  -0.061130  -0.209529  -0.192158   6.200953   0.136150
    30  C   -0.163135   0.004232   0.129960   0.395942   0.136150   5.114667
    31  H   -0.051381   0.435210   0.018303  -0.076297  -0.004389   0.019959
    32  H   -0.031396   0.012128   0.396649  -0.000411  -0.039013   0.009710
    33  H    0.019580  -0.046965  -0.004058   0.423664   0.018184  -0.077407
    34  H    0.013313   0.003336   0.012464   0.004880   0.381563  -0.085117
    35  C   -0.099361   0.034884  -0.020984  -0.002598  -0.000978   0.002077
    36  C    0.049816  -0.064023   0.014810  -0.005859   0.002522  -0.001891
    37  C   -0.013383   0.013264  -0.013166   0.001420   0.000447  -0.000004
    38  C   -0.015704  -0.000782   0.002538   0.000859   0.000009  -0.000111
    39  C   -0.004976   0.003635  -0.000053   0.000018  -0.000139   0.000047
    40  C    0.003689  -0.002377  -0.000062  -0.000191   0.000070  -0.000024
    41  H    0.005422   0.003581  -0.005490  -0.002572   0.002542   0.000260
    42  H   -0.001316   0.000627  -0.000475   0.000015   0.000041  -0.000009
    43  H   -0.000088   0.000099  -0.000054   0.000033  -0.000008  -0.000001
    44  H   -0.000030  -0.000014   0.000003  -0.000002  -0.000000   0.000000
    45  O    0.000017  -0.000007   0.000000  -0.000000  -0.000000   0.000000
    46  H    0.000001  -0.000001  -0.000000   0.000000   0.000000  -0.000000
    47  O   -0.001856   0.006074   0.023403  -0.082237  -0.120180   0.413596
    48  H   -0.000669  -0.001965   0.008191   0.020366  -0.043223  -0.025144
              31         32         33         34         35         36
     1  C    0.000000   0.000000   0.000000   0.000000   0.000000  -0.000000
     2  C   -0.000000  -0.000000  -0.000000  -0.000000  -0.000001   0.000000
     3  S   -0.000000  -0.000011  -0.000000  -0.000000   0.000084  -0.000003
     4  C   -0.000000  -0.000000   0.000000   0.000000  -0.000004   0.000001
     5  C    0.000054   0.000726   0.000000  -0.000001  -0.020638   0.005317
     6  C   -0.000023   0.000895  -0.000000  -0.000005   0.002811  -0.000385
     7  C    0.000000   0.000000   0.000000  -0.000000  -0.000000   0.000000
     8  C    0.000000   0.000000   0.000000  -0.000000  -0.000000   0.000000
     9  H   -0.000000  -0.000003   0.000000   0.000000   0.000209  -0.000010
    10  C   -0.000244  -0.000263   0.000002  -0.000030   0.061621   0.019558
    11  C    0.000042  -0.001955  -0.000001   0.000017  -0.001378   0.000320
    12  C   -0.000032   0.002306  -0.000035  -0.000062  -0.015886  -0.015958
    13  C   -0.001434  -0.003008   0.000002   0.000017  -0.103141  -0.017963
    14  H   -0.000010   0.000017  -0.000000   0.000000   0.008850  -0.003933
    15  H    0.000000  -0.000079   0.000000   0.000001   0.000156   0.000003
    16  H    0.000039   0.001207   0.000008  -0.000008  -0.001468  -0.000461
    17  C   -0.000000   0.000000  -0.000000  -0.000000  -0.000000  -0.000000
    18  H   -0.000000  -0.000000  -0.000000   0.000000   0.000000  -0.000000
    19  H   -0.000000  -0.000002   0.000000   0.000000   0.000005  -0.000000
    20  H   -0.000000  -0.000000   0.000000   0.000000   0.000000   0.000000
    21  H    0.000000  -0.000000   0.000000   0.000000   0.000000   0.000000
    22  H   -0.000000  -0.000000  -0.000000   0.000000   0.000000  -0.000000
    23  S   -0.000000  -0.000016   0.000000   0.000000   0.000035   0.000020
    24  N   -0.010163  -0.006340  -0.000542  -0.000745   0.119067  -0.024076
    25  C   -0.051381  -0.031396   0.019580   0.013313  -0.099361   0.049816
    26  C    0.435210   0.012128  -0.046965   0.003336   0.034884  -0.064023
    27  C    0.018303   0.396649  -0.004058   0.012464  -0.020984   0.014810
    28  C   -0.076297  -0.000411   0.423664   0.004880  -0.002598  -0.005859
    29  C   -0.004389  -0.039013   0.018184   0.381563  -0.000978   0.002522
    30  C    0.019959   0.009710  -0.077407  -0.085117   0.002077  -0.001891
    31  H    0.539234  -0.000208  -0.009026   0.000023   0.002679   0.004808
    32  H   -0.000208   0.519269   0.000024  -0.006343  -0.001968   0.001078
    33  H   -0.009026   0.000024   0.554890  -0.000276  -0.000242   0.000148
    34  H    0.000023  -0.006343  -0.000276   0.572775   0.000001  -0.000037
    35  C    0.002679  -0.001968  -0.000242   0.000001   5.671970   0.275481
    36  C    0.004808   0.001078   0.000148  -0.000037   0.275481   5.634479
    37  C   -0.003076  -0.000491  -0.000026   0.000002   0.313108  -0.142727
    38  C   -0.003646  -0.000047   0.000019  -0.000003   0.122564  -0.255523
    39  C    0.001164   0.000020  -0.000007   0.000000   0.011142  -0.008719
    40  C    0.000455  -0.000004   0.000003   0.000000  -0.165198   0.142136
    41  H    0.000889   0.000116  -0.000021   0.000011  -0.028956   0.400156
    42  H    0.000058  -0.000007   0.000001   0.000000  -0.052573   0.017052
    43  H   -0.000028   0.000000  -0.000000   0.000000   0.013604   0.012563
    44  H    0.000002  -0.000000  -0.000000  -0.000000   0.019813  -0.004163
    45  O    0.000000   0.000000  -0.000000  -0.000000  -0.002462   0.024411
    46  H    0.000001  -0.000000  -0.000000   0.000000  -0.000791   0.008683
    47  O   -0.000105  -0.000062   0.002412  -0.006466  -0.000011   0.000006
    48  H    0.000030  -0.000042  -0.000677   0.001216  -0.000001  -0.000000
              37         38         39         40         41         42
     1  C    0.000000  -0.000000   0.000000   0.000000   0.000000   0.000000
     2  C    0.000001   0.000000  -0.000000   0.000000  -0.000000   0.000000
     3  S    0.000015  -0.000000   0.000001  -0.000000   0.000000   0.000012
     4  C   -0.000005   0.000000   0.000000  -0.000000  -0.000000  -0.000003
     5  C   -0.017674  -0.000068  -0.001385  -0.000234  -0.000135  -0.005086
     6  C    0.000989   0.000032   0.000029  -0.000009   0.000011   0.000668
     7  C   -0.000000   0.000000  -0.000000  -0.000000  -0.000000  -0.000000
     8  C   -0.000000  -0.000000  -0.000000   0.000000   0.000000   0.000000
     9  H   -0.000023   0.000001  -0.000005  -0.000002   0.000001   0.000007
    10  C   -0.066573   0.002073  -0.007325  -0.001974   0.000459   0.005628
    11  C   -0.000706  -0.000065  -0.000132   0.000016   0.000004   0.000294
    12  C    0.033157  -0.000116   0.001603   0.000147  -0.000268  -0.000418
    13  C    0.017997  -0.000768   0.003598   0.001159  -0.001994  -0.004798
    14  H    0.002907   0.001906  -0.002050   0.000513   0.000131   0.001478
    15  H   -0.000068   0.000000  -0.000002  -0.000000  -0.000000   0.000005
    16  H    0.000580   0.000021   0.000011  -0.000003  -0.000013  -0.000012
    17  C    0.000000  -0.000000   0.000000   0.000000   0.000000   0.000000
    18  H    0.000000  -0.000000   0.000000   0.000000   0.000000   0.000000
    19  H   -0.000001   0.000000   0.000000  -0.000000   0.000000   0.000000
    20  H   -0.000000   0.000000  -0.000000  -0.000000   0.000000   0.000000
    21  H   -0.000000   0.000000  -0.000000  -0.000000  -0.000000   0.000000
    22  H    0.000000  -0.000000  -0.000000  -0.000000   0.000000   0.000000
    23  S    0.000019  -0.000002   0.000002  -0.000000  -0.000001   0.000012
    24  N    0.004043   0.029909   0.012696   0.004430  -0.009898  -0.005111
    25  C   -0.013383  -0.015704  -0.004976   0.003689   0.005422  -0.001316
    26  C    0.013264  -0.000782   0.003635  -0.002377   0.003581   0.000627
    27  C   -0.013166   0.002538  -0.000053  -0.000062  -0.005490  -0.000475
    28  C    0.001420   0.000859   0.000018  -0.000191  -0.002572   0.000015
    29  C    0.000447   0.000009  -0.000139   0.000070   0.002542   0.000041
    30  C   -0.000004  -0.000111   0.000047  -0.000024   0.000260  -0.000009
    31  H   -0.003076  -0.003646   0.001164   0.000455   0.000889   0.000058
    32  H   -0.000491  -0.000047   0.000020  -0.000004   0.000116  -0.000007
    33  H   -0.000026   0.000019  -0.000007   0.000003  -0.000021   0.000001
    34  H    0.000002  -0.000003   0.000000   0.000000   0.000011   0.000000
    35  C    0.313108   0.122564   0.011142  -0.165198  -0.028956  -0.052573
    36  C   -0.142727  -0.255523  -0.008719   0.142136   0.400156   0.017052
    37  C    5.254126  -0.075156   0.348383  -0.001165   0.012698   0.427201
    38  C   -0.075156   6.271794  -0.190236   0.106061  -0.049959  -0.004240
    39  C    0.348383  -0.190236   5.319880   0.416868  -0.000217  -0.061170
    40  C   -0.001165   0.106061   0.416868   5.121267   0.010566   0.018574
    41  H    0.012698  -0.049959  -0.000217   0.010566   0.530554  -0.000225
    42  H    0.427201  -0.004240  -0.061170   0.018574  -0.000225   0.525042
    43  H    0.003296   0.381715   0.004700  -0.085285  -0.006412   0.000019
    44  H   -0.045264   0.018433   0.421238  -0.077182   0.000024  -0.008801
    45  O    0.006705  -0.121108  -0.082541   0.413911  -0.000040  -0.000097
    46  H   -0.001812  -0.044445   0.019777  -0.023778  -0.000036   0.000030
    47  O    0.000000   0.000000  -0.000000   0.000000  -0.000005  -0.000000
    48  H   -0.000000   0.000000   0.000000  -0.000000  -0.000002  -0.000000
              43         44         45         46         47         48
     1  C    0.000000  -0.000000  -0.000000   0.000000   0.000000   0.000000
     2  C   -0.000000  -0.000000   0.000000   0.000000  -0.000000  -0.000000
     3  S    0.000000   0.000000   0.000000   0.000000  -0.000000   0.000000
     4  C   -0.000000   0.000000   0.000000  -0.000000  -0.000000  -0.000000
     5  C   -0.000006   0.000015   0.000001   0.000000  -0.000000   0.000000
     6  C    0.000000  -0.000001   0.000000  -0.000000   0.000000  -0.000000
     7  C   -0.000000   0.000000   0.000000  -0.000000   0.000000  -0.000000
     8  C   -0.000000  -0.000000  -0.000000   0.000000  -0.000000  -0.000000
     9  H    0.000000   0.000000   0.000000   0.000000   0.000000   0.000000
    10  C   -0.000037   0.000088   0.000014  -0.000000   0.000000  -0.000000
    11  C   -0.000000   0.000001  -0.000000   0.000000   0.000000   0.000000
    12  C    0.000003  -0.000034  -0.000000   0.000000   0.000003  -0.000001
    13  C    0.000009  -0.000154  -0.000009  -0.000001   0.000008   0.000000
    14  H    0.000021   0.000008  -0.000008  -0.000001   0.000000  -0.000000
    15  H   -0.000000   0.000000  -0.000000  -0.000000  -0.000000  -0.000000
    16  H   -0.000000   0.000000  -0.000000  -0.000000  -0.000002   0.000001
    17  C    0.000000  -0.000000  -0.000000   0.000000  -0.000000   0.000000
    18  H    0.000000   0.000000  -0.000000   0.000000  -0.000000   0.000000
    19  H    0.000000   0.000000   0.000000   0.000000  -0.000000   0.000000
    20  H    0.000000   0.000000  -0.000000  -0.000000  -0.000000   0.000000
    21  H    0.000000   0.000000  -0.000000  -0.000000  -0.000000   0.000000
    22  H    0.000000   0.000000   0.000000   0.000000   0.000000   0.000000
    23  S   -0.000000  -0.000001   0.000000   0.000000   0.000000   0.000000
    24  N   -0.000696  -0.000610  -0.000010  -0.000003  -0.000008  -0.000003
    25  C   -0.000088  -0.000030   0.000017   0.000001  -0.001856  -0.000669
    26  C    0.000099  -0.000014  -0.000007  -0.000001   0.006074  -0.001965
    27  C   -0.000054   0.000003   0.000000  -0.000000   0.023403   0.008191
    28  C    0.000033  -0.000002  -0.000000   0.000000  -0.082237   0.020366
    29  C   -0.000008  -0.000000  -0.000000   0.000000  -0.120180  -0.043223
    30  C   -0.000001   0.000000   0.000000  -0.000000   0.413596  -0.025144
    31  H   -0.000028   0.000002   0.000000   0.000001  -0.000105   0.000030
    32  H    0.000000  -0.000000   0.000000  -0.000000  -0.000062  -0.000042
    33  H   -0.000000  -0.000000  -0.000000  -0.000000   0.002412  -0.000677
    34  H    0.000000  -0.000000  -0.000000   0.000000  -0.006466   0.001216
    35  C    0.013604   0.019813  -0.002462  -0.000791  -0.000011  -0.000001
    36  C    0.012563  -0.004163   0.024411   0.008683   0.000006  -0.000000
    37  C    0.003296  -0.045264   0.006705  -0.001812   0.000000  -0.000000
    38  C    0.381715   0.018433  -0.121108  -0.044445   0.000000   0.000000
    39  C    0.004700   0.421238  -0.082541   0.019777  -0.000000   0.000000
    40  C   -0.085285  -0.077182   0.413911  -0.023778   0.000000  -0.000000
    41  H   -0.006412   0.000024  -0.000040  -0.000036  -0.000005  -0.000002
    42  H    0.000019  -0.008801  -0.000097   0.000030  -0.000000  -0.000000
    43  H    0.572042  -0.000270  -0.006607   0.001072  -0.000000   0.000000
    44  H   -0.000270   0.553637   0.002577  -0.000689  -0.000000   0.000000
    45  O   -0.006607   0.002577   7.696953   0.306969  -0.000000  -0.000000
    46  H    0.001072  -0.000689   0.306969   0.467192   0.000000  -0.000000
    47  O   -0.000000  -0.000000  -0.000000   0.000000   7.697510   0.306977
    48  H    0.000000   0.000000  -0.000000  -0.000000   0.306977   0.467062
 Mulliken charges:
               1
     1  C   -0.079703
     2  C   -0.158954
     3  S    0.152132
     4  C   -0.153949
     5  C   -0.218184
     6  C   -0.156430
     7  C   -0.096288
     8  C   -0.082604
     9  H    0.089227
    10  C   -0.058399
    11  C   -0.083895
    12  C   -0.150340
    13  C    0.029334
    14  H    0.153171
    15  H    0.095955
    16  H    0.152891
    17  C   -0.094968
    18  H    0.101063
    19  H    0.086669
    20  H    0.107263
    21  H    0.101390
    22  H    0.107299
    23  S    0.151207
    24  N   -0.011809
    25  C   -0.146774
    26  C   -0.050644
    27  C   -0.074771
    28  C   -0.209011
    29  C   -0.180882
    30  C    0.121856
    31  H    0.137113
    32  H    0.147527
    33  H    0.120344
    34  H    0.109474
    35  C   -0.141522
    36  C   -0.067638
    37  C   -0.059039
    38  C   -0.175955
    39  C   -0.205852
    40  C    0.117624
    41  H    0.138821
    42  H    0.147576
    43  H    0.110315
    44  H    0.121375
    45  O   -0.238671
    46  H    0.267833
    47  O   -0.239058
    48  H    0.267883
 Sum of Mulliken charges =  -0.00000
 Mulliken charges with hydrogens summed into heavy atoms:
               1
     1  C    0.021360
     2  C   -0.158954
     3  S    0.238801
     4  C   -0.153949
     5  C   -0.218184
     6  C   -0.156430
     7  C    0.010975
     8  C    0.018786
    10  C    0.094772
    11  C    0.012060
    12  C    0.002550
    13  C    0.029334
    17  C    0.012331
    23  S    0.240434
    24  N   -0.011809
    25  C   -0.146774
    26  C    0.086468
    27  C    0.072757
    28  C   -0.088667
    29  C   -0.071408
    30  C    0.121856
    35  C   -0.141522
    36  C    0.071182
    37  C    0.088537
    38  C   -0.065641
    39  C   -0.084478
    40  C    0.117624
    45  O    0.029162
    47  O    0.028825
 Electronic spatial extent (au):  <R**2>=          17769.5546
 Charge=             -0.0000 electrons
 Dipole moment (field-independent basis, Debye):
    X=             -0.8738    Y=             -1.4188    Z=              3.0798  Tot=              3.5017
 Quadrupole moment (field-independent basis, Debye-Ang):
   XX=           -174.7756   YY=           -165.7038   ZZ=           -177.4474
   XY=             -6.9664   XZ=             -5.3413   YZ=              5.2512
 Traceless Quadrupole moment (field-independent basis, Debye-Ang):
   XX=             -2.1333   YY=              6.9385   ZZ=             -4.8052
   XY=             -6.9664   XZ=             -5.3413   YZ=              5.2512
 Octapole moment (field-independent basis, Debye-Ang**2):
  XXX=             66.5539  YYY=            -65.1512  ZZZ=             11.5456  XYY=            -50.9438
  XXY=             27.9998  XXZ=             76.5727  XZZ=            -38.0943  YZZ=              4.8280
  YYZ=             69.0037  XYZ=             21.3397
 Hexadecapole moment (field-independent basis, Debye-Ang**3):
 XXXX=         -17736.6191 YYYY=          -4750.5234 ZZZZ=           -963.7121 XXXY=           -568.2014
 XXXZ=             50.3763 YYYX=             65.4384 YYYZ=             40.1363 ZZZX=            -49.7771
 ZZZY=            -27.1812 XXYY=          -3476.3186 XXZZ=          -3145.7026 YYZZ=           -862.1488
 XXYZ=            176.0136 YYXZ=           -386.8917 ZZXY=             60.6250
 N-N= 2.827246280079D+03 E-N=-1.017877089929D+04  KE= 1.920008419419D+03
 No NMR shielding tensors so no spin-rotation constants.
 Leave Link  601 at Mon Jan 18 04:44:42 2021, MaxMem=  4026531840 cpu:               4.0 elap:               0.7
 (Enter /opt/ohpc/pub/libs/gaussian/g16-A.03/sandybridge/g16/l9999.exe)

 Test job not archived.
 1\1\GINC-CASCADEB025\SP\RLC-wHPBE\TZVP\C24H19N1O2S2\RDU230\18-Jan-2021
 \0\\#P LC-wHPBE/TZVP iop(3/107=0221900000, 3/108=0221900000) scf=(conv
 er=6,fermi,ndamp=35,noincfock,novaracc,vshift=500,xqc)\\H19 C24 S2 N1 
 O2\\0,1\C,0,-6.54463,-1.193879,0.12701\C,0,-5.283469,-0.647909,0.13152
 3\S,0,-3.665919,-1.107322,1.042984\C,0,-4.996815,0.486583,-0.53783\C,0
 ,-1.475687,0.036886,0.221747\C,0,-1.772288,-1.094442,0.892846\C,0,-7.5
 17398,-0.549399,-0.618903\C,0,-5.951198,1.159916,-1.262339\H,0,-2.8434
 06,1.345523,-1.332578\C,0,-0.186077,0.430997,-0.028463\C,0,-0.77363,-1
 .912541,1.366813\C,0,0.53691,-1.552052,1.124661\C,0,0.845585,-0.387156
 ,0.425435\H,0,0.045427,1.33981,-0.567415\H,0,-0.986976,-2.816418,1.923
 251\H,0,1.342687,-2.175375,1.48462\C,0,-7.223748,0.615229,-1.306247\H,
 0,-6.782458,-2.097666,0.673346\H,0,-3.815781,-2.43941,0.928305\H,0,-8.
 517553,-0.958288,-0.663525\H,0,-5.730059,2.077989,-1.791552\H,0,-7.997
 253,1.105431,-1.881471\S,0,-3.166075,0.851646,-0.124057\N,0,2.182887,-
 0.044483,0.184905\C,0,3.146505,-1.044921,-0.067172\C,0,4.392012,-0.989
 098,0.539344\C,0,2.878694,-2.090316,-0.930362\C,0,5.345494,-1.946131,0
 .285899\C,0,3.822608,-3.066997,-1.170354\C,0,5.062274,-2.995295,-0.567
 641\H,0,4.612943,-0.17489,1.215121\H,0,1.913696,-2.145516,-1.414069\H,
 0,6.317156,-1.901598,0.755555\H,0,3.591387,-3.881585,-1.84538\C,0,2.57
 5405,1.310294,0.123192\C,0,3.391681,1.763268,-0.894977\C,0,2.16404,2.2
 11964,1.09371\C,0,3.796835,3.081396,-0.942072\C,0,2.544098,3.531176,1.
 038879\C,0,3.368807,3.972023,0.020733\H,0,3.723839,1.07184,-1.656403\H
 ,0,1.529535,1.868488,1.898614\H,0,4.442764,3.41523,-1.744528\H,0,2.220
 724,4.234697,1.791974\O,0,3.726245,5.28132,0.019257\H,0,4.294203,5.466
 041,-0.728132\O,0,6.032969,-3.920806,-0.776143\H,0,5.721078,-4.593785,
 -1.380389\\Version=EM64L-G16RevA.03\State=1-A\HF=-1926.4991042\RMSD=9.
 238e-07\Dipole=0.3437909,-0.5582151,-1.2116714\Quadrupole=-1.5860661,5
 .1585921,-3.5725261,5.1793182,-3.971105,-3.9041449\PG=C01 [X(C24H19N1O
 2S2)]\\@


 IF YOU BELIEVE CERTAIN WORDS, YOU BELIEVE THEIR HIDDEN ARGUMENTS.
 WHEN YOU BELIEVE SOMETHING IS RIGHT OR WRONG, TRUE OR FALSE, 
 YOU BELIEVE THE ASSUMPTIONS IN THE WORDS WHICH EXPRESS THE ARGUMENTS.
 SUCH ASSUMPTIONS ARE OFTEN FULL OF HOLES, BUT REMAIN MOST PRECIOUS 
 TO THE CONVINCED.

                 -- THE OPEN-ENDED PROOF FROM THE PANOPLIA PROPHETICA
                    CHILDREN OF DUNE BY FRANK HERBERT
 Job cpu time:       0 days  1 hours 58 minutes  3.0 seconds.
 Elapsed time:       0 days  0 hours 14 minutes 48.2 seconds.
 File lengths (MBytes):  RWF=    192 Int=      0 D2E=      0 Chk=     32 Scr=      8
 Normal termination of Gaussian 16 at Mon Jan 18 04:44:42 2021.
