 Entering Gaussian System, Link 0=g16
 Input=mol_ta_ma_half_tune_n8.gjf
 Output=mol_ta_ma_half_tune_n8.log
 Initial command:
 /opt/ohpc/pub/libs/gaussian/g16-A.03/sandybridge/g16/l1.exe "/mnt/gpfs2_4m/scratch/rdu230/ondemand/projects/init_structures/wtuning/mol_ta_ma_half/tuning_mol_ta_ma_half_ocycle0/Gau-439032.inp" -scrdir="/mnt/gpfs2_4m/scratch/rdu230/ondemand/projects/init_structures/wtuning/mol_ta_ma_half/tuning_mol_ta_ma_half_ocycle0/"
 Entering Link 1 = /opt/ohpc/pub/libs/gaussian/g16-A.03/sandybridge/g16/l1.exe PID=    439033.
  
 Copyright (c) 1988,1990,1992,1993,1995,1998,2003,2009,2016,
            Gaussian, Inc.  All Rights Reserved.
  
 This is part of the Gaussian(R) 16 program.  It is based on
 the Gaussian(R) 09 system (copyright 2009, Gaussian, Inc.),
 the Gaussian(R) 03 system (copyright 2003, Gaussian, Inc.),
 the Gaussian(R) 98 system (copyright 1998, Gaussian, Inc.),
 the Gaussian(R) 94 system (copyright 1995, Gaussian, Inc.),
 the Gaussian 92(TM) system (copyright 1992, Gaussian, Inc.),
 the Gaussian 90(TM) system (copyright 1990, Gaussian, Inc.),
 the Gaussian 88(TM) system (copyright 1988, Gaussian, Inc.),
 the Gaussian 86(TM) system (copyright 1986, Carnegie Mellon
 University), and the Gaussian 82(TM) system (copyright 1983,
 Carnegie Mellon University). Gaussian is a federally registered
 trademark of Gaussian, Inc.
  
 This software contains proprietary and confidential information,
 including trade secrets, belonging to Gaussian, Inc.
  
 This software is provided under written license and may be
 used, copied, transmitted, or stored only in accord with that
 written license.
  
 The following legend is applicable only to US Government
 contracts under FAR:
  
                    RESTRICTED RIGHTS LEGEND
  
 Use, reproduction and disclosure by the US Government is
 subject to restrictions as set forth in subparagraphs (a)
 and (c) of the Commercial Computer Software - Restricted
 Rights clause in FAR 52.227-19.
  
 Gaussian, Inc.
 340 Quinnipiac St., Bldg. 40, Wallingford CT 06492
  
  
 ---------------------------------------------------------------
 Warning -- This program may not be used in any manner that
 competes with the business of Gaussian, Inc. or will provide
 assistance to any competitor of Gaussian, Inc.  The licensee
 of this program is prohibited from giving any competitor of
 Gaussian, Inc. access to this program.  By using this program,
 the user acknowledges that Gaussian, Inc. is engaged in the
 business of creating and licensing software in the field of
 computational chemistry and represents and warrants to the
 licensee that it is not a competitor of Gaussian, Inc. and that
 it will not use this program in any manner prohibited above.
 ---------------------------------------------------------------
  

 Cite this work as:
 Gaussian 16, Revision A.03,
 M. J. Frisch, G. W. Trucks, H. B. Schlegel, G. E. Scuseria, 
 M. A. Robb, J. R. Cheeseman, G. Scalmani, V. Barone, 
 G. A. Petersson, H. Nakatsuji, X. Li, M. Caricato, A. V. Marenich, 
 J. Bloino, B. G. Janesko, R. Gomperts, B. Mennucci, H. P. Hratchian, 
 J. V. Ortiz, A. F. Izmaylov, J. L. Sonnenberg, D. Williams-Young, 
 F. Ding, F. Lipparini, F. Egidi, J. Goings, B. Peng, A. Petrone, 
 T. Henderson, D. Ranasinghe, V. G. Zakrzewski, J. Gao, N. Rega, 
 G. Zheng, W. Liang, M. Hada, M. Ehara, K. Toyota, R. Fukuda, 
 J. Hasegawa, M. Ishida, T. Nakajima, Y. Honda, O. Kitao, H. Nakai, 
 T. Vreven, K. Throssell, J. A. Montgomery, Jr., J. E. Peralta, 
 F. Ogliaro, M. J. Bearpark, J. J. Heyd, E. N. Brothers, K. N. Kudin, 
 V. N. Staroverov, T. A. Keith, R. Kobayashi, J. Normand, 
 K. Raghavachari, A. P. Rendell, J. C. Burant, S. S. Iyengar, 
 J. Tomasi, M. Cossi, J. M. Millam, M. Klene, C. Adamo, R. Cammi, 
 J. W. Ochterski, R. L. Martin, K. Morokuma, O. Farkas, 
 J. B. Foresman, and D. J. Fox, Gaussian, Inc., Wallingford CT, 2016.
 
 ******************************************
 Gaussian 16:  EM64L-G16RevA.03 25-Dec-2016
                18-Jan-2021 
 ******************************************
 %mem=30GB
 %nproc=8
 Will use up to    8 processors via shared memory.
 ----------------------------------------------------------------------
 #P LC-wHPBE/TZVP iop(3/107=0176500000, 3/108=0176500000) scf=(conver=6
 ,fermi,ndamp=35,noincfock,novaracc,vshift=500,xqc)
 ----------------------------------------------------------------------
 1/38=1,172=1/1;
 2/12=2,17=6,18=5,40=1/2;
 3/5=19,7=101,11=2,25=1,30=1,74=-71,107=176500000,108=176500000/1,2,3;
 4//1;
 5/5=100002,6=6,8=3,10=500,13=1,18=-1,22=13,38=1,93=35/2,8;
 6/7=2,8=2,9=2,10=2,28=1/1;
 99/5=1,9=1/99;
 Leave Link    1 at Mon Jan 18 21:36:42 2021, MaxMem=  4026531840 cpu:               1.8 elap:               0.3
 (Enter /opt/ohpc/pub/libs/gaussian/g16-A.03/sandybridge/g16/l101.exe)
 ----------------
 H19 C24 S2 N1 O2
 ----------------
 Symbolic Z-matrix:
 Charge =  0 Multiplicity = 1
 C                    -6.54463  -1.19388   0.12701 
 C                    -5.28347  -0.64791   0.13152 
 S                    -3.66592  -1.10732   1.04298 
 C                    -4.99682   0.48658  -0.53783 
 C                    -1.47569   0.03689   0.22175 
 C                    -1.77229  -1.09444   0.89285 
 C                    -7.5174   -0.5494   -0.6189 
 C                    -5.9512    1.15992  -1.26234 
 H                    -2.84341   1.34552  -1.33258 
 C                    -0.18608   0.431    -0.02846 
 C                    -0.77363  -1.91254   1.36681 
 C                     0.53691  -1.55205   1.12466 
 C                     0.84559  -0.38716   0.42544 
 H                     0.04543   1.33981  -0.56742 
 H                    -0.98698  -2.81642   1.92325 
 H                     1.34269  -2.17537   1.48462 
 C                    -7.22375   0.61523  -1.30625 
 H                    -6.78246  -2.09767   0.67335 
 H                    -3.81578  -2.43941   0.92831 
 H                    -8.51755  -0.95829  -0.66353 
 H                    -5.73006   2.07799  -1.79155 
 H                    -7.99725   1.10543  -1.88147 
 S                    -3.16608   0.85165  -0.12406 
 N                     2.18289  -0.04448   0.18491 
 C                     3.1465   -1.04492  -0.06717 
 C                     4.39201  -0.9891    0.53934 
 C                     2.87869  -2.09032  -0.93036 
 C                     5.34549  -1.94613   0.2859 
 C                     3.82261  -3.067    -1.17035 
 C                     5.06227  -2.9953   -0.56764 
 H                     4.61294  -0.17489   1.21512 
 H                     1.9137   -2.14552  -1.41407 
 H                     6.31716  -1.9016    0.75556 
 H                     3.59139  -3.88159  -1.84538 
 C                     2.5754    1.31029   0.12319 
 C                     3.39168   1.76327  -0.89498 
 C                     2.16404   2.21196   1.09371 
 C                     3.79684   3.0814   -0.94207 
 C                     2.5441    3.53118   1.03888 
 C                     3.36881   3.97202   0.02073 
 H                     3.72384   1.07184  -1.6564 
 H                     1.52954   1.86849   1.89861 
 H                     4.44276   3.41523  -1.74453 
 H                     2.22072   4.2347    1.79197 
 O                     3.72625   5.28132   0.01926 
 H                     4.2942    5.46604  -0.72813 
 O                     6.03297  -3.92081  -0.77614 
 H                     5.72108  -4.59379  -1.38039 
 
 ITRead=  0  0  0  0  0  0  0  0  0  0  0  0  0  0  0  0  0  0  0  0
 ITRead=  0  0  0  0  0  0  0  0  0  0  0  0  0  0  0  0  0  0  0  0
 ITRead=  0  0  0  0  0  0  0  0
 MicOpt= -1 -1 -1 -1 -1 -1 -1 -1 -1 -1 -1 -1 -1 -1 -1 -1 -1 -1 -1 -1
 MicOpt= -1 -1 -1 -1 -1 -1 -1 -1 -1 -1 -1 -1 -1 -1 -1 -1 -1 -1 -1 -1
 MicOpt= -1 -1 -1 -1 -1 -1 -1 -1
 NAtoms=     48 NQM=       48 NQMF=       0 NMMI=      0 NMMIF=      0
                NMic=       0 NMicF=      0.
                    Isotopes and Nuclear Properties:
 (Nuclear quadrupole moments (NQMom) in fm**2, nuclear magnetic moments (NMagM)
  in nuclear magnetons)

  Atom         1           2           3           4           5           6           7           8           9          10
 IAtWgt=          12          12          32          12          12          12          12          12           1          12
 AtmWgt=  12.0000000  12.0000000  31.9720718  12.0000000  12.0000000  12.0000000  12.0000000  12.0000000   1.0078250  12.0000000
 NucSpn=           0           0           0           0           0           0           0           0           1           0
 AtZEff=  -0.0000000  -0.0000000  -0.0000000  -0.0000000  -0.0000000  -0.0000000  -0.0000000  -0.0000000  -0.0000000  -0.0000000
 NQMom=    0.0000000   0.0000000   0.0000000   0.0000000   0.0000000   0.0000000   0.0000000   0.0000000   0.0000000   0.0000000
 NMagM=    0.0000000   0.0000000   0.0000000   0.0000000   0.0000000   0.0000000   0.0000000   0.0000000   2.7928460   0.0000000
 AtZNuc=   6.0000000   6.0000000  16.0000000   6.0000000   6.0000000   6.0000000   6.0000000   6.0000000   1.0000000   6.0000000

  Atom        11          12          13          14          15          16          17          18          19          20
 IAtWgt=          12          12          12           1           1           1          12           1           1           1
 AtmWgt=  12.0000000  12.0000000  12.0000000   1.0078250   1.0078250   1.0078250  12.0000000   1.0078250   1.0078250   1.0078250
 NucSpn=           0           0           0           1           1           1           0           1           1           1
 AtZEff=  -0.0000000  -0.0000000  -0.0000000  -0.0000000  -0.0000000  -0.0000000  -0.0000000  -0.0000000  -0.0000000  -0.0000000
 NQMom=    0.0000000   0.0000000   0.0000000   0.0000000   0.0000000   0.0000000   0.0000000   0.0000000   0.0000000   0.0000000
 NMagM=    0.0000000   0.0000000   0.0000000   2.7928460   2.7928460   2.7928460   0.0000000   2.7928460   2.7928460   2.7928460
 AtZNuc=   6.0000000   6.0000000   6.0000000   1.0000000   1.0000000   1.0000000   6.0000000   1.0000000   1.0000000   1.0000000

  Atom        21          22          23          24          25          26          27          28          29          30
 IAtWgt=           1           1          32          14          12          12          12          12          12          12
 AtmWgt=   1.0078250   1.0078250  31.9720718  14.0030740  12.0000000  12.0000000  12.0000000  12.0000000  12.0000000  12.0000000
 NucSpn=           1           1           0           2           0           0           0           0           0           0
 AtZEff=  -0.0000000  -0.0000000  -0.0000000  -0.0000000  -0.0000000  -0.0000000  -0.0000000  -0.0000000  -0.0000000  -0.0000000
 NQMom=    0.0000000   0.0000000   0.0000000   2.0440000   0.0000000   0.0000000   0.0000000   0.0000000   0.0000000   0.0000000
 NMagM=    2.7928460   2.7928460   0.0000000   0.4037610   0.0000000   0.0000000   0.0000000   0.0000000   0.0000000   0.0000000
 AtZNuc=   1.0000000   1.0000000  16.0000000   7.0000000   6.0000000   6.0000000   6.0000000   6.0000000   6.0000000   6.0000000

  Atom        31          32          33          34          35          36          37          38          39          40
 IAtWgt=           1           1           1           1          12          12          12          12          12          12
 AtmWgt=   1.0078250   1.0078250   1.0078250   1.0078250  12.0000000  12.0000000  12.0000000  12.0000000  12.0000000  12.0000000
 NucSpn=           1           1           1           1           0           0           0           0           0           0
 AtZEff=  -0.0000000  -0.0000000  -0.0000000  -0.0000000  -0.0000000  -0.0000000  -0.0000000  -0.0000000  -0.0000000  -0.0000000
 NQMom=    0.0000000   0.0000000   0.0000000   0.0000000   0.0000000   0.0000000   0.0000000   0.0000000   0.0000000   0.0000000
 NMagM=    2.7928460   2.7928460   2.7928460   2.7928460   0.0000000   0.0000000   0.0000000   0.0000000   0.0000000   0.0000000
 AtZNuc=   1.0000000   1.0000000   1.0000000   1.0000000   6.0000000   6.0000000   6.0000000   6.0000000   6.0000000   6.0000000

  Atom        41          42          43          44          45          46          47          48
 IAtWgt=           1           1           1           1          16           1          16           1
 AtmWgt=   1.0078250   1.0078250   1.0078250   1.0078250  15.9949146   1.0078250  15.9949146   1.0078250
 NucSpn=           1           1           1           1           0           1           0           1
 AtZEff=  -0.0000000  -0.0000000  -0.0000000  -0.0000000  -0.0000000  -0.0000000  -0.0000000  -0.0000000
 NQMom=    0.0000000   0.0000000   0.0000000   0.0000000   0.0000000   0.0000000   0.0000000   0.0000000
 NMagM=    2.7928460   2.7928460   2.7928460   2.7928460   0.0000000   2.7928460   0.0000000   2.7928460
 AtZNuc=   1.0000000   1.0000000   1.0000000   1.0000000   8.0000000   1.0000000   8.0000000   1.0000000
 Leave Link  101 at Mon Jan 18 21:36:43 2021, MaxMem=  4026531840 cpu:               0.7 elap:               0.1
 (Enter /opt/ohpc/pub/libs/gaussian/g16-A.03/sandybridge/g16/l202.exe)
                          Input orientation:                          
 ---------------------------------------------------------------------
 Center     Atomic      Atomic             Coordinates (Angstroms)
 Number     Number       Type             X           Y           Z
 ---------------------------------------------------------------------
      1          6           0       -6.544630   -1.193879    0.127010
      2          6           0       -5.283469   -0.647909    0.131523
      3         16           0       -3.665919   -1.107322    1.042984
      4          6           0       -4.996815    0.486583   -0.537830
      5          6           0       -1.475687    0.036886    0.221747
      6          6           0       -1.772288   -1.094442    0.892846
      7          6           0       -7.517398   -0.549399   -0.618903
      8          6           0       -5.951198    1.159916   -1.262339
      9          1           0       -2.843406    1.345523   -1.332578
     10          6           0       -0.186077    0.430997   -0.028463
     11          6           0       -0.773630   -1.912541    1.366813
     12          6           0        0.536910   -1.552052    1.124661
     13          6           0        0.845585   -0.387156    0.425435
     14          1           0        0.045427    1.339810   -0.567415
     15          1           0       -0.986976   -2.816418    1.923251
     16          1           0        1.342687   -2.175375    1.484620
     17          6           0       -7.223748    0.615229   -1.306247
     18          1           0       -6.782458   -2.097666    0.673346
     19          1           0       -3.815781   -2.439410    0.928305
     20          1           0       -8.517553   -0.958288   -0.663525
     21          1           0       -5.730059    2.077989   -1.791552
     22          1           0       -7.997253    1.105431   -1.881471
     23         16           0       -3.166075    0.851646   -0.124057
     24          7           0        2.182887   -0.044483    0.184905
     25          6           0        3.146505   -1.044921   -0.067172
     26          6           0        4.392012   -0.989098    0.539344
     27          6           0        2.878694   -2.090316   -0.930362
     28          6           0        5.345494   -1.946131    0.285899
     29          6           0        3.822608   -3.066997   -1.170354
     30          6           0        5.062274   -2.995295   -0.567641
     31          1           0        4.612943   -0.174890    1.215121
     32          1           0        1.913696   -2.145516   -1.414069
     33          1           0        6.317156   -1.901598    0.755555
     34          1           0        3.591387   -3.881585   -1.845380
     35          6           0        2.575405    1.310294    0.123192
     36          6           0        3.391681    1.763268   -0.894977
     37          6           0        2.164040    2.211964    1.093710
     38          6           0        3.796835    3.081396   -0.942072
     39          6           0        2.544098    3.531176    1.038879
     40          6           0        3.368807    3.972023    0.020733
     41          1           0        3.723839    1.071840   -1.656403
     42          1           0        1.529535    1.868488    1.898614
     43          1           0        4.442764    3.415230   -1.744528
     44          1           0        2.220724    4.234697    1.791974
     45          8           0        3.726245    5.281320    0.019257
     46          1           0        4.294203    5.466041   -0.728132
     47          8           0        6.032969   -3.920806   -0.776143
     48          1           0        5.721078   -4.593785   -1.380389
 ---------------------------------------------------------------------
                    Distance matrix (angstroms):
                    1          2          3          4          5
     1  C    0.000000
     2  C    1.374275   0.000000
     3  S    3.022164   1.912666   0.000000
     4  C    2.379432   1.348064   2.609749   0.000000
     5  C    5.217082   3.869921   2.603989   3.630086   0.000000
     6  C    4.834422   3.620414   1.899617   3.865753   1.348425
     7  C    1.384925   2.358661   4.231671   2.726384   6.128025
     8  C    2.796927   2.378433   3.959467   1.374459   4.847051
     9  H    4.719960   3.474373   3.512303   2.450831   2.449309
    10  C    6.564723   5.212777   3.952686   4.837948   1.371504
    11  C    5.946262   4.843953   3.019698   5.217159   2.367346
    12  C    7.160433   5.973325   4.227083   6.127154   2.718552
    13  C    7.440103   6.141635   4.610171   5.985394   2.368460
    14  H    7.094410   5.730329   4.728206   5.114008   2.152713
    15  H    6.061900   5.135423   3.297365   5.748525   3.357871
    16  H    8.063263   6.933251   5.140225   7.166981   3.798971
    17  C    2.405888   2.725323   4.598284   2.359289   5.975739
    18  H    1.082532   2.154608   3.290931   3.366573   5.737776
    19  H    3.104841   2.449172   1.345388   3.479343   3.479555
    20  H    2.138428   3.344807   5.145166   3.807761   7.166726
    21  H    3.879372   3.365736   4.737243   2.154539   5.130220
    22  H    3.380967   3.806701   5.675312   3.345291   6.935138
    23  S    3.957504   2.607172   2.334392   1.912090   1.908095
    24  N    8.803069   7.490891   6.006202   7.235503   3.659664
    25  C    9.694225   8.441656   6.902569   8.299439   4.755885
    26  C   10.946328   9.690081   8.074521   9.564937   5.965183
    27  C    9.524740   8.356377   6.905963   8.295669   4.981263
    28  C   11.914956  10.709065   9.081979  10.656453   7.103871
    29  C   10.614676   9.511441   8.050915   9.529441   6.296345
    30  C   11.766387  10.631719   9.074134  10.644700   7.249979
    31  H   11.256721   9.966790   8.332984   9.790701   6.172767
    32  H    8.650076   7.512048   6.184421   7.446536   4.350482
    33  H   12.896568  11.684847  10.018746  11.635385   8.048048
    34  H   10.670189   9.650278   8.289009   9.723569   6.730726
    35  C    9.457586   8.099168   6.756109   7.645519   4.247661
    36  C   10.417267   9.062323   7.861660   8.492605   5.283819
    37  C    9.400809   8.035550   6.708849   7.544316   4.328845
    38  C   11.241299   9.874829   8.785130   9.177404   6.198629
    39  C   10.284096   8.919577   7.751128   8.283775   5.388547
    40  C   11.179180   9.809074   8.736825   9.079863   6.244584
    41  H   10.665622   9.342688   8.163575   8.811557   5.624380
    42  H    8.815260   7.474750   6.048164   7.102054   3.898462
    43  H   12.061068  10.706459   9.694041   9.956844   7.092779
    44  H   10.443801   9.105485   7.984405   8.459859   5.809534
    45  O   12.142104  10.786255   9.823790   9.969535   7.389532
    46  H   12.750141  11.395227  10.474230  10.542971   7.979325
    47  O   12.901466  11.815138  10.261254  11.880152   8.546287
    48  H   12.817145  11.787954  10.302615  11.890890   8.706514
                    6          7          8          9         10
     6  C    0.000000
     7  C    5.965630   0.000000
     8  C    5.214426   2.405982   0.000000
     9  H    3.471777   5.093747   3.114122   0.000000
    10  C    2.385758   7.420112   5.940572   3.098140   0.000000
    11  C    1.375227   7.160980   6.569600   4.710166   2.790015
    12  C    2.365489   8.301639   7.426176   5.085322   2.405180
    13  C    2.751724   8.429499   7.172048   4.438631   1.392740
    14  H    3.370761   7.795389   6.039436   2.988455   1.081667
    15  H    2.154913   7.365347   7.113559   5.600760   3.872510
    16  H    3.349878   9.250390   8.477659   6.152780   3.379307
    17  C    6.121879   1.383846   1.384917   4.440880   7.155102
    18  H    5.114337   2.146433   3.879396   5.603161   7.099219
    19  H    2.446643   4.434858   4.723778   4.514734   4.725399
    20  H    6.923830   1.081430   3.381057   6.160448   8.470355
    21  H    5.738838   3.387160   1.082510   3.013292   6.046222
    22  H    7.161457   2.136071   2.138372   5.188551   8.056238
    23  S    2.600768   4.598023   3.024504   1.344824   3.011058
    24  N    4.152951   9.746619   8.349157   5.431251   2.425613
    25  C    5.011847  10.689657   9.437051   6.572253   3.644988
    26  C    6.175326  11.973676  10.716637   7.829803   4.826797
    27  C    5.093867  10.514284   9.414946   6.686494   4.069799
    28  C    7.194205  12.970101  11.817776   8.972878   6.028917
    29  C    6.280974  11.629193  10.649063   7.995773   5.441455
    30  C    7.242755  12.815349  11.791732   9.051387   6.290896
    31  H    6.459149  12.273918  10.932547   8.024934   4.994416
    32  H    4.473599   9.598198   8.532612   5.901187   3.601023
    33  H    8.130772  13.968266  12.804580   9.940824   6.953253
    34  H    6.635892  11.662453  10.808219   8.306153   6.014049
    35  C    5.027679  10.289501   8.639749   5.611062   2.902059
    36  C    6.166798  11.154938   9.369545   6.264369   3.914862
    37  C    5.144642  10.212170   8.515566   5.631351   3.155022
    38  C    7.198589  11.886925   9.940765   6.874485   4.870614
    39  C    6.328417  10.983307   9.115291   6.279020   4.266636
    40  C    7.270523  11.805162   9.819201   6.879066   5.017817
    41  H    6.434195  11.404834   9.683459   6.580917   4.283493
    42  H    4.548907   9.696962   8.151998   5.462299   2.953529
    43  H    8.119098  12.650328  10.646755   7.585622   5.768596
    44  H    6.719546  11.114447   9.250049   6.614799   4.855390
    45  O    8.464477  12.681642  10.596290   7.776778   6.231707
    46  H    9.081290  13.255616  11.126380   8.263745   6.775995
    47  O    8.467343  13.964367  13.025758  10.336047   7.627172
    48  H    8.576919  13.863411  13.013879  10.422478   7.872142
                   11         12         13         14         15
    11  C    0.000000
    12  C    1.380618   0.000000
    13  C    2.415543   1.393262   0.000000
    14  H    3.871677   3.386376   2.146722   0.000000
    15  H    1.082651   2.135087   3.391614   4.954140   0.000000
    16  H    2.135827   1.080453   2.136986   4.272032   2.455741
    17  C    7.425557   8.416308   8.313702   7.342465   7.816853
    18  H    6.051544   7.353538   7.821403   7.744401   5.972142
    19  H    3.118423   4.446558   5.117906   5.606122   3.022282
    20  H    8.062333   9.248430   9.443536   8.866517   8.176408
    21  H    7.103928   7.807458   7.364174   5.949761   7.762204
    22  H    8.475862   9.430323   9.259882   8.152691   8.888239
    23  S    3.948065   4.587936   4.234382   3.278508   4.732297
    24  N    3.691550   2.421806   1.401305   2.655370   4.555601
    25  C    4.263395   2.913354   2.443266   3.943839   4.917891
    26  C    5.312373   3.939711   3.598952   5.053863   5.847034
    27  C    4.318343   3.161772   2.978669   4.463731   4.859397
    28  C    6.213951   4.897071   4.764352   6.294145   6.598371
    29  C    5.375443   4.284619   4.311700   5.835287   5.724096
    30  C    6.242775   5.042396   5.056585   6.630376   6.544461
    31  H    5.661944   4.303348   3.855081   5.131662   6.232031
    32  H    3.874184   2.948371   2.759795   4.044101   4.472327
    33  H    7.117092   5.802557   5.686880   7.182727   7.453238
    34  H    5.766168   4.855687   4.990698   6.439720   6.024829
    35  C    4.811371   3.653960   2.442328   2.622708   5.741126
    36  C    5.998090   4.818714   3.584748   3.388809   6.934592
    37  C    5.071098   4.100771   2.990040   2.829931   5.991800
    38  C    7.152587   6.030534   4.755082   4.152897   8.116596
    39  C    6.383488   5.465837   4.314462   3.691290   7.317277
    40  C    7.321189   6.305054   5.053006   4.280107   8.287059
    41  H    6.186565   4.977514   3.840191   3.845571   7.079848
    42  H    4.459099   3.644777   2.779564   2.926325   5.318062
    43  H    8.079378   6.939873   5.666266   5.002953   9.042572
    44  H    6.850945   6.063580   5.011982   4.321921   7.747567
    45  O    8.591648   7.621598   6.371405   5.424768   9.561015
    46  H    9.193215   8.173354   6.890834   5.924838  10.174469
    47  O    7.413176   6.279388   6.390573   7.972974   7.601712
    48  H    7.544363   6.511760   6.687837   8.251151   7.685770
                   16         17         18         19         20
    16  H    0.000000
    17  C    9.431872   0.000000
    18  H    8.165916   3.387230   0.000000
    19  H    5.195093   5.092964   2.997160   0.000000
    20  H   10.164653   2.136113   2.469000   5.180184   0.000000
    21  H    8.879648   2.146228   4.961790   5.609722   4.273353
    22  H   10.456038   1.081430   4.273482   6.159988   2.452150
    23  S    5.663888   4.232987   4.734186   3.515769   5.674963
    24  N    2.633609   9.546912   9.210404   6.501718  10.772850
    25  C    2.634339  10.575138  10.012040   7.170007  11.679614
    26  C    3.405757  11.870381  11.230123   8.344014  12.965520
    27  C    2.863336  10.465209   9.793354   6.956472  11.455441
    28  C    4.184728  12.925995  12.135085   9.197009  13.930589
    29  C    3.740840  11.644709  10.807694   7.946271  12.529290
    30  C    4.326589  12.826837  11.943344   9.020351  13.732090
    31  H    3.843064  12.128019  11.569172   8.732337  13.287323
    32  H    2.954546   9.546006   8.943304   6.196773  10.525388
    33  H    5.035060  13.926289  13.101339  10.148670  14.932254
    34  H    4.365399  11.725150  10.823262   8.039859  12.512748
    35  C    3.939920   9.927226   9.974290   7.453573  11.349850
    36  C    5.037238  10.685245  10.994524   8.540162  12.218441
    37  C    4.480644   9.820383   9.939288   7.577658  11.279840
    38  C    6.288507  11.299020  11.889226   9.587989  12.963055
    39  C    5.848658  10.460075  10.899639   8.724000  12.058756
    40  C    6.636161  11.190673  11.845472   9.672046  12.886494
    41  H    5.106889  10.962699  11.218546   8.709504  12.448249
    42  H    4.069291   9.405411   9.290903   6.933389  10.747055
    43  H    7.161895  12.005815  12.737494  10.470168  13.721007
    44  H    6.477225  10.578165  11.063789   9.040410  12.178143
    45  O    7.964354  11.976298  12.857298  10.831352  13.758978
    46  H    8.485220  12.511107  13.485779  11.446038  14.332385
    47  O    5.491477  14.021311  13.025361  10.104333  14.849474
    48  H    5.764312  13.953775  12.914598  10.046048  14.712897
                   21         22         23         24         25
    21  H    0.000000
    22  H    2.468628   0.000000
    23  S    3.295219   5.147154   0.000000
    24  N    8.427692  10.451194   5.432301   0.000000
    25  C    9.566579  11.493435   6.591576   1.411729   0.000000
    26  C   10.830347  12.796143   7.807248   2.428612   1.386458
    27  C    9.603491  11.375572   6.770857   2.431748   1.381908
    28  C   11.965668  13.857793   8.968970   3.691686   2.402580
    29  C   10.867852  12.554838   8.080358   3.696079   2.400608
    30  C   11.987936  13.751122   9.094034   4.191001   2.779316
    31  H   11.004237  13.047802   7.959918   2.642636   2.133464
    32  H    8.741137  10.440978   6.037482   2.653963   2.131961
    33  H   12.940644  14.862652   9.913916   4.568008   3.385824
    34  H   11.063850  12.616188   8.427913   4.563911   3.377367
    35  C    8.557823  10.762980   5.765074   1.411843   2.430932
    36  C    9.171098  11.450491   6.665548   2.428022   2.937907
    37  C    8.405920  10.645562   5.634141   2.432660   3.594466
    38  C    9.617180  11.995308   7.356837   3.694053   4.267888
    39  C    8.864805  11.204140   6.413921   3.693925   4.746252
    40  C    9.468955  11.875313   7.243093   4.191143   5.022636
    41  H    9.508248  11.723301   7.061691   2.647853   2.709178
    42  H    8.146344  10.277694   5.212861   2.650118   3.868702
    43  H   10.260446  12.653377   8.190990   4.560633   4.938295
    44  H    8.983763  11.300157   6.643328   4.571158   5.673435
    45  O   10.147021  12.589330   8.194304   5.547393   6.353337
    46  H   10.634641  13.092937   8.792798   5.971362   6.644299
    47  O   13.243316  14.944294  10.383830   5.547308   4.135823
    48  H   13.259342  14.863538  10.498218   5.972026   4.576833
                   26         27         28         29         30
    26  C    0.000000
    27  C    2.379674   0.000000
    28  C    1.374509   2.754121   0.000000
    29  C    2.750446   1.379303   2.386670   0.000000
    30  C    2.387361   2.391354   1.381843   1.380281   0.000000
    31  H    1.080935   3.358508   2.130112   3.831371   3.366723
    32  H    3.360830   1.080852   3.834955   2.133652   3.369289
    33  H    2.141397   3.834182   1.080133   3.360067   2.126441
    34  H    3.833326   2.133971   3.371235   1.082902   2.140476
    35  C    2.959805   3.572969   4.278337   4.731749   5.019947
    36  C    3.260898   3.887739   4.355628   4.857262   5.053905
    37  C    3.939287   4.808036   5.297543   5.978651   6.186711
    38  C    4.372385   5.252592   5.402063   6.152683   6.218336
    39  C    4.908890   5.965822   6.198039   7.074686   7.177530
    40  C    5.092016   6.156033   6.245170   7.153490   7.194271
    41  H    3.084676   3.352706   3.938331   4.168449   4.417963
    42  H    4.266988   5.049303   5.631493   6.247860   6.497618
    43  H    4.961527   5.781022   5.803598   6.537089   6.547036
    44  H    5.794101   6.917357   7.087671   8.040905   8.118804
    45  O    6.327075   7.480718   7.411418   8.433200   8.404271
    46  H    6.579125   7.690455   7.554718   8.557494   8.497641
    47  O    3.608068   3.650196   2.345186   2.402101   1.357311
    48  H    4.294829   3.814319   3.150817   2.445278   1.910432
                   31         32         33         34         35
    31  H    0.000000
    32  H    4.252287   0.000000
    33  H    2.469223   4.915000   0.000000
    34  H    4.914248   2.452471   4.256175   0.000000
    35  C    2.747661   3.839746   4.971603   5.644741   0.000000
    36  C    3.114555   4.210996   4.971308   5.727784   1.381362
    37  C    3.421833   5.033812   5.855264   6.914254   1.387132
    38  C    3.990352   5.575805   5.836453   7.024335   2.400725
    39  C    4.248071   6.216043   6.620519   8.022767   2.402453
    40  C    4.491250   6.449829   6.613029   8.075338   2.779350
    41  H    3.254304   3.699557   4.624302   4.958798   2.131366
    42  H    3.761643   5.218590   6.200117   7.164640   2.134841
    43  H    4.655904   6.117784   6.167043   7.347008   3.377301
    44  H    5.049745   7.147034   7.450439   8.999061   3.385671
    45  O    5.655665   7.778024   7.671327   9.351678   4.135732
    46  H    5.974774   8.004569   7.783044   9.440355   4.577035
    47  O    4.473644   4.530675   2.550306   2.665732   6.334663
    48  H    5.243212   4.526733   3.487899   2.293257   6.856687
                   36         37         38         39         40
    36  C    0.000000
    37  C    2.379770   0.000000
    38  C    1.379793   2.750698   0.000000
    39  C    2.753851   1.373962   2.386591   0.000000
    40  C    2.391160   2.387583   1.379644   1.382430   0.000000
    41  H    1.080820   3.360949   2.133990   3.834667   3.368960
    42  H    3.358989   1.080945   3.831617   2.129088   3.366633
    43  H    2.134360   3.833540   1.082869   3.371310   2.139988
    44  H    3.833902   2.140615   3.359946   1.080123   2.127061
    45  O    3.650267   3.607753   2.401833   2.345230   1.357211
    46  H    3.814828   4.294848   2.445338   3.151015   1.910300
    47  O    6.268909   7.488380   7.352459   8.426064   8.368364
    48  H    6.787771   8.067955   7.924849   9.053234   8.992741
                   41         42         43         44         45
    41  H    0.000000
    42  H    4.252971   0.000000
    43  H    2.452773   4.914448   0.000000
    44  H    4.914705   2.467399   4.256270   0.000000
    45  O    4.530735   4.472688   2.665826   2.550400   0.000000
    46  H    4.527251   5.242668   2.293678   3.488045   0.956707
    47  O    5.570768   7.807123   7.568616   9.361659   9.520124
    48  H    6.013689   8.371491   8.118559  10.012915  10.171336
                   46         47         48
    46  H    0.000000
    47  O    9.546649   0.000000
    48  H   10.181430   0.956708   0.000000
 Stoichiometry    C24H19NO2S2
 Framework group  C1[X(C24H19NO2S2)]
 Deg. of freedom   138
 Full point group                 C1      NOp   1
 Largest Abelian subgroup         C1      NOp   1
 Largest concise Abelian subgroup C1      NOp   1
                         Standard orientation:                         
 ---------------------------------------------------------------------
 Center     Atomic      Atomic             Coordinates (Angstroms)
 Number     Number       Type             X           Y           Z
 ---------------------------------------------------------------------
      1          6           0        6.544630   -1.193879   -0.127010
      2          6           0        5.283469   -0.647909   -0.131523
      3         16           0        3.665919   -1.107322   -1.042984
      4          6           0        4.996815    0.486583    0.537830
      5          6           0        1.475687    0.036886   -0.221747
      6          6           0        1.772288   -1.094442   -0.892846
      7          6           0        7.517398   -0.549399    0.618903
      8          6           0        5.951198    1.159916    1.262339
      9          1           0        2.843406    1.345523    1.332578
     10          6           0        0.186077    0.430997    0.028463
     11          6           0        0.773630   -1.912541   -1.366813
     12          6           0       -0.536910   -1.552052   -1.124661
     13          6           0       -0.845585   -0.387156   -0.425435
     14          1           0       -0.045427    1.339810    0.567415
     15          1           0        0.986976   -2.816418   -1.923251
     16          1           0       -1.342687   -2.175375   -1.484620
     17          6           0        7.223748    0.615229    1.306247
     18          1           0        6.782458   -2.097666   -0.673346
     19          1           0        3.815781   -2.439410   -0.928305
     20          1           0        8.517553   -0.958288    0.663525
     21          1           0        5.730059    2.077989    1.791552
     22          1           0        7.997253    1.105431    1.881471
     23         16           0        3.166075    0.851646    0.124057
     24          7           0       -2.182887   -0.044483   -0.184905
     25          6           0       -3.146505   -1.044921    0.067172
     26          6           0       -4.392012   -0.989098   -0.539344
     27          6           0       -2.878694   -2.090316    0.930362
     28          6           0       -5.345494   -1.946131   -0.285899
     29          6           0       -3.822608   -3.066997    1.170354
     30          6           0       -5.062274   -2.995295    0.567641
     31          1           0       -4.612943   -0.174890   -1.215121
     32          1           0       -1.913696   -2.145516    1.414069
     33          1           0       -6.317156   -1.901598   -0.755555
     34          1           0       -3.591387   -3.881585    1.845380
     35          6           0       -2.575405    1.310294   -0.123192
     36          6           0       -3.391681    1.763268    0.894977
     37          6           0       -2.164040    2.211964   -1.093710
     38          6           0       -3.796835    3.081396    0.942072
     39          6           0       -2.544098    3.531176   -1.038879
     40          6           0       -3.368807    3.972023   -0.020733
     41          1           0       -3.723839    1.071840    1.656403
     42          1           0       -1.529535    1.868488   -1.898614
     43          1           0       -4.442764    3.415230    1.744528
     44          1           0       -2.220724    4.234697   -1.791974
     45          8           0       -3.726245    5.281320   -0.019257
     46          1           0       -4.294203    5.466041    0.728132
     47          8           0       -6.032969   -3.920806    0.776143
     48          1           0       -5.721078   -4.593785    1.380389
 ---------------------------------------------------------------------
 Rotational constants (GHZ):           0.2280536           0.0702108           0.0568934
 Leave Link  202 at Mon Jan 18 21:36:43 2021, MaxMem=  4026531840 cpu:               0.2 elap:               0.0
 (Enter /opt/ohpc/pub/libs/gaussian/g16-A.03/sandybridge/g16/l301.exe)
 Standard basis: TZVP (5D, 7F)
 Ernie: Thresh=  0.10000D-02 Tol=  0.10000D-05 Strict=F.
 There are   700 symmetry adapted cartesian basis functions of A   symmetry.
 There are   671 symmetry adapted basis functions of A   symmetry.
   671 basis functions,  1191 primitive gaussians,   700 cartesian basis functions
   109 alpha electrons      109 beta electrons
       nuclear repulsion energy      2827.2462800785 Hartrees.
 IExCor=33909 DFT=T Ex+Corr=LC-wHPBE ExCW=0 ScaHFX=  1.000000
 ScaDFX=  1.000000  1.000000  1.000000  1.000000 ScalE2=  1.000000  1.000000
 IRadAn=      5 IRanWt=     -1 IRanGd=            0 ICorTp=0 IEmpDi=  4
 HFx  wShort=  0.000000 wLong=  0.176500 cFull=  0.000000 cShort=  0.000000 cLong=  1.000000
 DFx  wShort=  0.000000 wLong=  0.176500 cFull=  0.000000 cShort=  1.000000 cLong=  0.000000
 NAtoms=   48 NActive=   48 NUniq=   48 SFac= 1.00D+00 NAtFMM=   60 NAOKFM=F Big=F
 Integral buffers will be    131072 words long.
 Raffenetti 2 integral format.
 Two-electron integral symmetry is turned on.
 Leave Link  301 at Mon Jan 18 21:36:43 2021, MaxMem=  4026531840 cpu:               0.4 elap:               0.1
 (Enter /opt/ohpc/pub/libs/gaussian/g16-A.03/sandybridge/g16/l302.exe)
 NPDir=0 NMtPBC=     1 NCelOv=     1 NCel=       1 NClECP=     1 NCelD=      1
         NCelK=      1 NCelE2=     1 NClLst=     1 CellRange=     0.0.
 One-electron integrals computed using PRISM.
 One-electron integral symmetry used in STVInt
 NBasis=   671 RedAO= T EigKep=  6.34D-06  NBF=   671
 NBsUse=   671 1.00D-06 EigRej= -1.00D+00 NBFU=   671
 Precomputing XC quadrature grid using
 IXCGrd= 4 IRadAn=           5 IRanWt=          -1 IRanGd=           0 AccXCQ= 0.00D+00.
 Generated NRdTot=       0 NPtTot=           0 NUsed=           0 NTot=          32
 NSgBfM=   657   657   657   657   657 MxSgAt=    48 MxSgA2=    48.
 Leave Link  302 at Mon Jan 18 21:36:44 2021, MaxMem=  4026531840 cpu:              11.0 elap:               1.4
 (Enter /opt/ohpc/pub/libs/gaussian/g16-A.03/sandybridge/g16/l303.exe)
 DipDrv:  MaxL=1.
 Leave Link  303 at Mon Jan 18 21:36:44 2021, MaxMem=  4026531840 cpu:               1.0 elap:               0.2
 (Enter /opt/ohpc/pub/libs/gaussian/g16-A.03/sandybridge/g16/l401.exe)
 ExpMin= 9.52D-02 ExpMax= 6.07D+04 ExpMxC= 2.07D+03 IAcc=3 IRadAn=         5 AccDes= 0.00D+00
 Harris functional with IExCor=33909 and IRadAn=       5 diagonalized for initial guess.
 HarFok:  IExCor=33909 AccDes= 0.00D+00 IRadAn=         5 IDoV= 1 UseB2=F ITyADJ=14
 ICtDFT=  3500011 ScaDFX=  1.000000  1.000000  1.000000  1.000000
 FoFCou: FMM=F IPFlag=           0 FMFlag=      100000 FMFlg1=           0
         NFxFlg=           0 DoJE=T BraDBF=F KetDBF=T FulRan=T
         wScrn=  0.000000 ICntrl=       500 IOpCl=  0 I1Cent=   200000004 NGrid=           0
         NMat0=    1 NMatS0=      1 NMatT0=    0 NMatD0=    1 NMtDS0=    0 NMtDT0=    0
 Petite list used in FoFCou.
 Harris En= -1905.76386261783    
 JPrj=0 DoOrth=F DoCkMO=F.
 Leave Link  401 at Mon Jan 18 21:36:52 2021, MaxMem=  4026531840 cpu:              60.2 elap:               7.6
 (Enter /opt/ohpc/pub/libs/gaussian/g16-A.03/sandybridge/g16/l502.exe)
 Integral symmetry usage will be decided dynamically.
 Closed shell SCF:
 Using DIIS extrapolation, IDIIS=    10.
 NGot=  4026531840 LenX=  4025539370 LenY=  4025048670
 Requested convergence on RMS density matrix=1.00D-06 within  32 cycles.
 Requested convergence on MAX density matrix=1.00D-04.
 Requested convergence on             energy=1.00D-04.
 Virtual orbitals will be shifted by   0.500 hartree.
 No special actions if energy rises.
 Dynamic level shift is on during FON iterations.

 Cycle   1  Pass 1  IDiag  1:
 FoFJK:  IHMeth= 1 ICntrl=       0 DoSepK=T KAlg= 0 I1Cent=           0 FoldK=F
 IRaf=         1 NMat=       1 IRICut=       1 DoRegI=T DoRafI=F ISym2E= 0 IDoP0=0 IntGTp=1.
 FoFCou: FMM=F IPFlag=           0 FMFlag=      100000 FMFlg1=           0
         NFxFlg=           0 DoJE=T BraDBF=F KetDBF=F FulRan=T
         wScrn=  0.000000 ICntrl=       500 IOpCl=  0 I1Cent=           0 NGrid=           0
         NMat0=    1 NMatS0=      1 NMatT0=    0 NMatD0=    1 NMtDS0=    0 NMtDT0=    0
 Symmetry not used in FoFCou.
 E= -1925.79929398993    
 DIIS: error= 2.09D-02 at cycle   1 NSaved=   1.
 NSaved= 1 IEnMin= 1 EnMin= -1925.79929398993     IErMin= 1 ErrMin= 2.09D-02
 ErrMax= 2.09D-02  0.00D+00 EMaxC= 1.00D+00 BMatC= 6.51D-01 BMatP= 6.51D-01
 IDIUse=1 WtCom= 1.00D+00 WtEn= 0.00D+00
 Coeff-Com:  0.100D+01
 Coeff:      0.100D+01
 Gap=     0.369 Goal=   None    Shift=    0.500
 T= 1279. Gap= 0.650 NK=0 IS=  110 IE=  671 IFin=  109
          NO(<0.9)=   0  NV(>0.1)=   0    109.00e < EF      0.00e >EF  Err=0.0D+00
 GapD=    0.369 DampG=1.000 DampE=0.500 DampFc=0.5000 IDamp=-1.
 Damping current iteration by 5.00D-01
 RMSDP=4.21D-03 MaxDP=2.61D-01              OVMax= 1.06D-01

 Cycle   2  Pass 1  IDiag  1:
 E= -1926.19636842147     Delta-E=       -0.397074431543 Rises=F Damp=T
 DIIS: error= 8.94D-03 at cycle   2 NSaved=   2.
 NSaved= 2 IEnMin= 2 EnMin= -1926.19636842147     IErMin= 2 ErrMin= 8.94D-03
 ErrMax= 8.94D-03  0.00D+00 EMaxC= 1.00D+00 BMatC= 9.06D-02 BMatP= 6.51D-01
 IDIUse=1 WtCom= 1.00D+00 WtEn= 0.00D+00
 Coeff-Com: -0.475D+00 0.147D+01
 Coeff:     -0.475D+00 0.147D+01
 Gap=     0.266 Goal=   None    Shift=    0.500
 T= 1152. Gap= 0.738 NK=0 IS=  110 IE=  671 IFin=  109
          NO(<0.9)=   0  NV(>0.1)=   0    109.00e < EF      0.00e >EF  Err=0.0D+00
 GapD=    0.266 DampG=1.000 DampE=1.000 DampFc=1.0000 IDamp=-1.
 RMSDP=1.76D-03 MaxDP=1.05D-01 DE=-3.97D-01 OVMax= 2.00D-02

 Cycle   3  Pass 1  IDiag  1:
 E= -1926.41932287081     Delta-E=       -0.222954449338 Rises=F Damp=F
 DIIS: error= 2.77D-03 at cycle   3 NSaved=   3.
 NSaved= 3 IEnMin= 3 EnMin= -1926.41932287081     IErMin= 3 ErrMin= 2.77D-03
 ErrMax= 2.77D-03  0.00D+00 EMaxC= 1.00D+00 BMatC= 9.19D-03 BMatP= 9.06D-02
 IDIUse=1 WtCom= 1.00D+00 WtEn= 0.00D+00
 Coeff-Com:  0.644D-01 0.634D-01 0.872D+00
 Coeff:      0.644D-01 0.634D-01 0.872D+00
 Gap=     0.256 Goal=   None    Shift=    0.500
 T=  887. Gap= 0.751 NK=0 IS=  110 IE=  671 IFin=  109
          NO(<0.9)=   0  NV(>0.1)=   0    109.00e < EF      0.00e >EF  Err=0.0D+00
 GapD=    0.256 DampG=1.000 DampE=1.000 DampFc=1.0000 IDamp=-1.
 RMSDP=6.90D-04 MaxDP=4.50D-02 DE=-2.23D-01 OVMax= 1.03D-02

 Cycle   4  Pass 1  IDiag  1:
 E= -1926.42790033451     Delta-E=       -0.008577463695 Rises=F Damp=F
 DIIS: error= 1.39D-03 at cycle   4 NSaved=   4.
 NSaved= 4 IEnMin= 4 EnMin= -1926.42790033451     IErMin= 4 ErrMin= 1.39D-03
 ErrMax= 1.39D-03  0.00D+00 EMaxC= 1.00D+00 BMatC= 1.29D-03 BMatP= 9.19D-03
 IDIUse=1 WtCom= 1.00D+00 WtEn= 0.00D+00
 Coeff-Com:  0.731D-01-0.980D-01 0.733D-01 0.952D+00
 Coeff:      0.731D-01-0.980D-01 0.733D-01 0.952D+00
 Gap=     0.250 Goal=   None    Shift=    0.500
 T=  340. Gap= 0.750 NK=0 IS=  110 IE=  671 IFin=  109
          NO(<0.9)=   0  NV(>0.1)=   0    109.00e < EF      0.00e >EF  Err=0.0D+00
 GapD=    0.250 DampG=1.000 DampE=1.000 DampFc=1.0000 IDamp=-1.
 RMSDP=3.40D-04 MaxDP=2.46D-02 DE=-8.58D-03 OVMax= 7.59D-03

 Cycle   5  Pass 1  IDiag  1:
 E= -1926.42938046270     Delta-E=       -0.001480128193 Rises=F Damp=F
 DIIS: error= 5.23D-04 at cycle   5 NSaved=   5.
 NSaved= 5 IEnMin= 5 EnMin= -1926.42938046270     IErMin= 5 ErrMin= 5.23D-04
 ErrMax= 5.23D-04  0.00D+00 EMaxC= 1.00D+00 BMatC= 1.85D-04 BMatP= 1.29D-03
 IDIUse=1 WtCom= 1.00D+00 WtEn= 0.00D+00
 Coeff-Com:  0.392D-02-0.126D-01-0.105D+00-0.229D-01 0.114D+01
 Coeff:      0.392D-02-0.126D-01-0.105D+00-0.229D-01 0.114D+01
 Gap=     0.250 Goal=   None    Shift=    0.500
 RMSDP=2.04D-04 MaxDP=1.51D-02 DE=-1.48D-03 OVMax= 6.47D-03

 Cycle   6  Pass 1  IDiag  1:
 E= -1926.42981950360     Delta-E=       -0.000439040903 Rises=F Damp=F
 DIIS: error= 4.34D-04 at cycle   6 NSaved=   6.
 NSaved= 6 IEnMin= 6 EnMin= -1926.42981950360     IErMin= 6 ErrMin= 4.34D-04
 ErrMax= 4.34D-04  0.00D+00 EMaxC= 1.00D+00 BMatC= 5.19D-05 BMatP= 1.85D-04
 IDIUse=1 WtCom= 1.00D+00 WtEn= 0.00D+00
 Coeff-Com: -0.157D-01 0.190D-01-0.515D-01-0.172D+00-0.134D+00 0.135D+01
 Coeff:     -0.157D-01 0.190D-01-0.515D-01-0.172D+00-0.134D+00 0.135D+01
 Gap=     0.251 Goal=   None    Shift=    0.500
 RMSDP=1.27D-04 MaxDP=1.01D-02 DE=-4.39D-04 OVMax= 5.60D-03

 Cycle   7  Pass 1  IDiag  1:
 E= -1926.43002176370     Delta-E=       -0.000202260097 Rises=F Damp=F
 DIIS: error= 3.05D-04 at cycle   7 NSaved=   7.
 NSaved= 7 IEnMin= 7 EnMin= -1926.43002176370     IErMin= 7 ErrMin= 3.05D-04
 ErrMax= 3.05D-04  0.00D+00 EMaxC= 1.00D+00 BMatC= 2.27D-05 BMatP= 5.19D-05
 IDIUse=1 WtCom= 1.00D+00 WtEn= 0.00D+00
 Coeff-Com: -0.677D-02 0.726D-02 0.155D-01-0.709D-01-0.448D+00 0.717D-01
 Coeff-Com:  0.143D+01
 Coeff:     -0.677D-02 0.726D-02 0.155D-01-0.709D-01-0.448D+00 0.717D-01
 Coeff:      0.143D+01
 Gap=     0.250 Goal=   None    Shift=    0.500
 RMSDP=8.20D-05 MaxDP=7.05D-03 DE=-2.02D-04 OVMax= 4.80D-03

 Cycle   8  Pass 1  IDiag  1:
 E= -1926.43012726700     Delta-E=       -0.000105503301 Rises=F Damp=F
 DIIS: error= 2.26D-04 at cycle   8 NSaved=   8.
 NSaved= 8 IEnMin= 8 EnMin= -1926.43012726700     IErMin= 8 ErrMin= 2.26D-04
 ErrMax= 2.26D-04  0.00D+00 EMaxC= 1.00D+00 BMatC= 1.00D-05 BMatP= 2.27D-05
 IDIUse=1 WtCom= 1.00D+00 WtEn= 0.00D+00
 Coeff-Com:  0.387D-02-0.693D-02 0.318D-01 0.333D-01-0.140D+00-0.647D+00
 Coeff-Com:  0.156D+00 0.157D+01
 Coeff:      0.387D-02-0.693D-02 0.318D-01 0.333D-01-0.140D+00-0.647D+00
 Coeff:      0.156D+00 0.157D+01
 Gap=     0.251 Goal=   None    Shift=    0.500
 RMSDP=5.38D-05 MaxDP=5.11D-03 DE=-1.06D-04 OVMax= 3.96D-03

 Cycle   9  Pass 1  IDiag  1:
 E= -1926.43018158675     Delta-E=       -0.000054319751 Rises=F Damp=F
 DIIS: error= 1.73D-04 at cycle   9 NSaved=   9.
 NSaved= 9 IEnMin= 9 EnMin= -1926.43018158675     IErMin= 9 ErrMin= 1.73D-04
 ErrMax= 1.73D-04  0.00D+00 EMaxC= 1.00D+00 BMatC= 4.56D-06 BMatP= 1.00D-05
 IDIUse=1 WtCom= 1.00D+00 WtEn= 0.00D+00
 Coeff-Com:  0.326D-02-0.455D-02 0.315D-02 0.446D-01 0.171D+00-0.433D+00
 Coeff-Com: -0.529D+00-0.994D-01 0.184D+01
 Coeff:      0.326D-02-0.455D-02 0.315D-02 0.446D-01 0.171D+00-0.433D+00
 Coeff:     -0.529D+00-0.994D-01 0.184D+01
 Gap=     0.251 Goal=   None    Shift=    0.500
 RMSDP=3.78D-05 MaxDP=3.54D-03 DE=-5.43D-05 OVMax= 3.17D-03

 Cycle  10  Pass 1  IDiag  1:
 E= -1926.43020883324     Delta-E=       -0.000027246488 Rises=F Damp=F
 DIIS: error= 1.24D-04 at cycle  10 NSaved=  10.
 NSaved=10 IEnMin=10 EnMin= -1926.43020883324     IErMin=10 ErrMin= 1.24D-04
 ErrMax= 1.24D-04  0.00D+00 EMaxC= 1.00D+00 BMatC= 2.11D-06 BMatP= 4.56D-06
 IDIUse=1 WtCom= 1.00D+00 WtEn= 0.00D+00
 Coeff-Com:  0.281D-03 0.499D-05-0.823D-02 0.176D-01 0.123D+00-0.521D-01
 Coeff-Com: -0.292D+00-0.589D+00 0.150D+00 0.165D+01
 Coeff:      0.281D-03 0.499D-05-0.823D-02 0.176D-01 0.123D+00-0.521D-01
 Coeff:     -0.292D+00-0.589D+00 0.150D+00 0.165D+01
 Gap=     0.251 Goal=   None    Shift=    0.500
 RMSDP=2.50D-05 MaxDP=2.28D-03 DE=-2.72D-05 OVMax= 2.35D-03

 Cycle  11  Pass 1  IDiag  1:
 E= -1926.43022174572     Delta-E=       -0.000012912486 Rises=F Damp=F
 DIIS: error= 8.72D-05 at cycle  11 NSaved=  11.
 NSaved=11 IEnMin=11 EnMin= -1926.43022174572     IErMin=11 ErrMin= 8.72D-05
 ErrMax= 8.72D-05  0.00D+00 EMaxC= 1.00D+00 BMatC= 9.49D-07 BMatP= 2.11D-06
 IDIUse=1 WtCom= 1.00D+00 WtEn= 0.00D+00
 Coeff-Com: -0.958D-03 0.138D-02-0.211D-02-0.854D-02-0.403D-01 0.156D+00
 Coeff-Com:  0.150D+00-0.267D+00-0.928D+00-0.170D+00 0.211D+01
 Coeff:     -0.958D-03 0.138D-02-0.211D-02-0.854D-02-0.403D-01 0.156D+00
 Coeff:      0.150D+00-0.267D+00-0.928D+00-0.170D+00 0.211D+01
 Gap=     0.251 Goal=   None    Shift=    0.500
 RMSDP=1.78D-05 MaxDP=1.62D-03 DE=-1.29D-05 OVMax= 1.78D-03

 Cycle  12  Pass 1  IDiag  1:
 E= -1926.43022797739     Delta-E=       -0.000006231665 Rises=F Damp=F
 DIIS: error= 6.17D-05 at cycle  12 NSaved=  12.
 NSaved=12 IEnMin=12 EnMin= -1926.43022797739     IErMin=12 ErrMin= 6.17D-05
 ErrMax= 6.17D-05  0.00D+00 EMaxC= 1.00D+00 BMatC= 4.64D-07 BMatP= 9.49D-07
 IDIUse=1 WtCom= 1.00D+00 WtEn= 0.00D+00
 Coeff-Com: -0.185D-03 0.127D-03 0.380D-02-0.836D-02-0.358D-01 0.376D-01
 Coeff-Com:  0.131D+00 0.116D+00-0.343D+00-0.101D+01 0.216D+00 0.189D+01
 Coeff:     -0.185D-03 0.127D-03 0.380D-02-0.836D-02-0.358D-01 0.376D-01
 Coeff:      0.131D+00 0.116D+00-0.343D+00-0.101D+01 0.216D+00 0.189D+01
 Gap=     0.251 Goal=   None    Shift=    0.500
 RMSDP=1.09D-05 MaxDP=9.95D-04 DE=-6.23D-06 OVMax= 1.27D-03

 Cycle  13  Pass 1  IDiag  1:
 E= -1926.43023088185     Delta-E=       -0.000002904457 Rises=F Damp=F
 DIIS: error= 4.25D-05 at cycle  13 NSaved=  13.
 NSaved=13 IEnMin=13 EnMin= -1926.43023088185     IErMin=13 ErrMin= 4.25D-05
 ErrMax= 4.25D-05  0.00D+00 EMaxC= 1.00D+00 BMatC= 2.20D-07 BMatP= 4.64D-07
 IDIUse=1 WtCom= 1.00D+00 WtEn= 0.00D+00
 Coeff-Com:  0.967D-04-0.174D-03 0.300D-02-0.143D-02-0.444D-02-0.386D-01
 Coeff-Com:  0.368D-01 0.160D+00 0.123D+00-0.679D+00-0.446D+00-0.644D-01
 Coeff-Com:  0.191D+01
 Coeff:      0.967D-04-0.174D-03 0.300D-02-0.143D-02-0.444D-02-0.386D-01
 Coeff:      0.368D-01 0.160D+00 0.123D+00-0.679D+00-0.446D+00-0.644D-01
 Coeff:      0.191D+01
 Gap=     0.251 Goal=   None    Shift=    0.500
 RMSDP=7.05D-06 MaxDP=6.37D-04 DE=-2.90D-06 OVMax= 8.91D-04

 Cycle  14  Pass 1  IDiag  1:
 E= -1926.43023221408     Delta-E=       -0.000001332231 Rises=F Damp=F
 DIIS: error= 2.81D-05 at cycle  14 NSaved=  14.
 NSaved=14 IEnMin=14 EnMin= -1926.43023221408     IErMin=14 ErrMin= 2.81D-05
 ErrMax= 2.81D-05  0.00D+00 EMaxC= 1.00D+00 BMatC= 9.85D-08 BMatP= 2.20D-07
 IDIUse=1 WtCom= 1.00D+00 WtEn= 0.00D+00
 Coeff-Com:  0.569D-04-0.622D-04 0.107D-03 0.297D-02 0.586D-02-0.285D-01
 Coeff-Com: -0.112D-01 0.331D-01 0.153D+00-0.252D-01-0.193D+00-0.107D+01
 Coeff-Com:  0.312D+00 0.182D+01
 Coeff:      0.569D-04-0.622D-04 0.107D-03 0.297D-02 0.586D-02-0.285D-01
 Coeff:     -0.112D-01 0.331D-01 0.153D+00-0.252D-01-0.193D+00-0.107D+01
 Coeff:      0.312D+00 0.182D+01
 Gap=     0.251 Goal=   None    Shift=    0.500
 RMSDP=4.29D-06 MaxDP=3.56D-04 DE=-1.33D-06 OVMax= 6.05D-04

 Cycle  15  Pass 1  IDiag  1:
 E= -1926.43023280288     Delta-E=       -0.000000588798 Rises=F Damp=F
 DIIS: error= 1.85D-05 at cycle  15 NSaved=  15.
 NSaved=15 IEnMin=15 EnMin= -1926.43023280288     IErMin=15 ErrMin= 1.85D-05
 ErrMax= 1.85D-05  0.00D+00 EMaxC= 1.00D+00 BMatC= 4.22D-08 BMatP= 9.85D-08
 IDIUse=1 WtCom= 1.00D+00 WtEn= 0.00D+00
 Coeff-Com:  0.360D-04-0.717D-04-0.797D-03 0.193D-02 0.417D-02-0.861D-03
 Coeff-Com: -0.171D-01-0.322D-01 0.407D-01 0.203D+00 0.288D-01-0.671D+00
 Coeff-Com: -0.412D+00 0.891D-01 0.177D+01
 Coeff:      0.360D-04-0.717D-04-0.797D-03 0.193D-02 0.417D-02-0.861D-03
 Coeff:     -0.171D-01-0.322D-01 0.407D-01 0.203D+00 0.288D-01-0.671D+00
 Coeff:     -0.412D+00 0.891D-01 0.177D+01
 Gap=     0.251 Goal=   None    Shift=    0.500
 RMSDP=2.63D-06 MaxDP=1.99D-04 DE=-5.89D-07 OVMax= 4.02D-04

 Cycle  16  Pass 1  IDiag  1:
 E= -1926.43023305673     Delta-E=       -0.000000253855 Rises=F Damp=F
 DIIS: error= 1.21D-05 at cycle  16 NSaved=  16.
 NSaved=16 IEnMin=16 EnMin= -1926.43023305673     IErMin=16 ErrMin= 1.21D-05
 ErrMax= 1.21D-05  0.00D+00 EMaxC= 1.00D+00 BMatC= 1.81D-08 BMatP= 4.22D-08
 IDIUse=1 WtCom= 1.00D+00 WtEn= 0.00D+00
 Coeff-Com:  0.156D-04-0.595D-04-0.273D-03-0.304D-03 0.531D-03 0.873D-02
 Coeff-Com: -0.492D-02-0.206D-01-0.341D-01 0.990D-01 0.809D-01-0.390D-01
 Coeff-Com: -0.296D+00-0.655D+00 0.959D-01 0.177D+01
 Coeff:      0.156D-04-0.595D-04-0.273D-03-0.304D-03 0.531D-03 0.873D-02
 Coeff:     -0.492D-02-0.206D-01-0.341D-01 0.990D-01 0.809D-01-0.390D-01
 Coeff:     -0.296D+00-0.655D+00 0.959D-01 0.177D+01
 Gap=     0.251 Goal=   None    Shift=    0.500
 RMSDP=1.71D-06 MaxDP=1.15D-04 DE=-2.54D-07 OVMax= 2.62D-04

 Cycle  17  Pass 1  IDiag  1:
 E= -1926.43023316391     Delta-E=       -0.000000107184 Rises=F Damp=F
 DIIS: error= 7.90D-06 at cycle  17 NSaved=  17.
 NSaved=17 IEnMin=17 EnMin= -1926.43023316391     IErMin=17 ErrMin= 7.90D-06
 ErrMax= 7.90D-06  0.00D+00 EMaxC= 1.00D+00 BMatC= 8.22D-09 BMatP= 1.81D-08
 IDIUse=1 WtCom= 1.00D+00 WtEn= 0.00D+00
 Coeff-Com: -0.158D-04 0.143D-04 0.188D-03-0.812D-03-0.143D-02 0.439D-02
 Coeff-Com:  0.442D-02 0.481D-02-0.345D-01-0.228D-01 0.422D-01 0.190D+00
 Coeff-Com: -0.379D-01-0.379D+00-0.779D+00 0.275D+00 0.173D+01
 Coeff:     -0.158D-04 0.143D-04 0.188D-03-0.812D-03-0.143D-02 0.439D-02
 Coeff:      0.442D-02 0.481D-02-0.345D-01-0.228D-01 0.422D-01 0.190D+00
 Coeff:     -0.379D-01-0.379D+00-0.779D+00 0.275D+00 0.173D+01
 Gap=     0.251 Goal=   None    Shift=    0.500
 RMSDP=1.10D-06 MaxDP=6.90D-05 DE=-1.07D-07 OVMax= 1.71D-04

 Cycle  18  Pass 1  IDiag  1:
 E= -1926.43023320965     Delta-E=       -0.000000045731 Rises=F Damp=F
 DIIS: error= 5.09D-06 at cycle  18 NSaved=  18.
 NSaved=18 IEnMin=18 EnMin= -1926.43023320965     IErMin=18 ErrMin= 5.09D-06
 ErrMax= 5.09D-06  0.00D+00 EMaxC= 1.00D+00 BMatC= 3.58D-09 BMatP= 8.22D-09
 IDIUse=1 WtCom= 1.00D+00 WtEn= 0.00D+00
 Coeff-Com: -0.162D-04 0.294D-04 0.171D-03-0.332D-03-0.102D-02 0.343D-03
 Coeff-Com:  0.383D-02 0.824D-02-0.121D-01-0.357D-01 0.107D-01 0.108D+00
 Coeff-Com:  0.453D-01-0.729D-01-0.564D+00-0.228D+00 0.255D+00 0.148D+01
 Coeff:     -0.162D-04 0.294D-04 0.171D-03-0.332D-03-0.102D-02 0.343D-03
 Coeff:      0.383D-02 0.824D-02-0.121D-01-0.357D-01 0.107D-01 0.108D+00
 Coeff:      0.453D-01-0.729D-01-0.564D+00-0.228D+00 0.255D+00 0.148D+01
 Gap=     0.251 Goal=   None    Shift=    0.500
 RMSDP=7.06D-07 MaxDP=4.38D-05 DE=-4.57D-08 OVMax= 1.11D-04

 SCF Done:  E(RLC-wHPBE) =  -1926.43023321     A.U. after   18 cycles
            NFock= 18  Conv=0.71D-06     -V/T= 2.0032
 KE= 1.920202568695D+03 PE=-1.017893948746D+04 EE= 3.505060405480D+03
 Leave Link  502 at Mon Jan 18 21:53:20 2021, MaxMem=  4026531840 cpu:            7886.2 elap:             988.4
 (Enter /opt/ohpc/pub/libs/gaussian/g16-A.03/sandybridge/g16/l508.exe)
 QCSCF skips out because SCF is already converged.
 Leave Link  508 at Mon Jan 18 21:53:20 2021, MaxMem=  4026531840 cpu:               0.1 elap:               0.0
 (Enter /opt/ohpc/pub/libs/gaussian/g16-A.03/sandybridge/g16/l601.exe)
 Copying SCF densities to generalized density rwf, IOpCl= 0 IROHF=0.

 **********************************************************************

            Population analysis using the SCF density.

 **********************************************************************

 Orbital symmetries:
       Occupied  (A) (A) (A) (A) (A) (A) (A) (A) (A) (A) (A) (A)
                 (A) (A) (A) (A) (A) (A) (A) (A) (A) (A) (A) (A)
                 (A) (A) (A) (A) (A) (A) (A) (A) (A) (A) (A) (A)
                 (A) (A) (A) (A) (A) (A) (A) (A) (A) (A) (A) (A)
                 (A) (A) (A) (A) (A) (A) (A) (A) (A) (A) (A) (A)
                 (A) (A) (A) (A) (A) (A) (A) (A) (A) (A) (A) (A)
                 (A) (A) (A) (A) (A) (A) (A) (A) (A) (A) (A) (A)
                 (A) (A) (A) (A) (A) (A) (A) (A) (A) (A) (A) (A)
                 (A) (A) (A) (A) (A) (A) (A) (A) (A) (A) (A) (A)
                 (A)
       Virtual   (A) (A) (A) (A) (A) (A) (A) (A) (A) (A) (A) (A)
                 (A) (A) (A) (A) (A) (A) (A) (A) (A) (A) (A) (A)
                 (A) (A) (A) (A) (A) (A) (A) (A) (A) (A) (A) (A)
                 (A) (A) (A) (A) (A) (A) (A) (A) (A) (A) (A) (A)
                 (A) (A) (A) (A) (A) (A) (A) (A) (A) (A) (A) (A)
                 (A) (A) (A) (A) (A) (A) (A) (A) (A) (A) (A) (A)
                 (A) (A) (A) (A) (A) (A) (A) (A) (A) (A) (A) (A)
                 (A) (A) (A) (A) (A) (A) (A) (A) (A) (A) (A) (A)
                 (A) (A) (A) (A) (A) (A) (A) (A) (A) (A) (A) (A)
                 (A) (A) (A) (A) (A) (A) (A) (A) (A) (A) (A) (A)
                 (A) (A) (A) (A) (A) (A) (A) (A) (A) (A) (A) (A)
                 (A) (A) (A) (A) (A) (A) (A) (A) (A) (A) (A) (A)
                 (A) (A) (A) (A) (A) (A) (A) (A) (A) (A) (A) (A)
                 (A) (A) (A) (A) (A) (A) (A) (A) (A) (A) (A) (A)
                 (A) (A) (A) (A) (A) (A) (A) (A) (A) (A) (A) (A)
                 (A) (A) (A) (A) (A) (A) (A) (A) (A) (A) (A) (A)
                 (A) (A) (A) (A) (A) (A) (A) (A) (A) (A) (A) (A)
                 (A) (A) (A) (A) (A) (A) (A) (A) (A) (A) (A) (A)
                 (A) (A) (A) (A) (A) (A) (A) (A) (A) (A) (A) (A)
                 (A) (A) (A) (A) (A) (A) (A) (A) (A) (A) (A) (A)
                 (A) (A) (A) (A) (A) (A) (A) (A) (A) (A) (A) (A)
                 (A) (A) (A) (A) (A) (A) (A) (A) (A) (A) (A) (A)
                 (A) (A) (A) (A) (A) (A) (A) (A) (A) (A) (A) (A)
                 (A) (A) (A) (A) (A) (A) (A) (A) (A) (A) (A) (A)
                 (A) (A) (A) (A) (A) (A) (A) (A) (A) (A) (A) (A)
                 (A) (A) (A) (A) (A) (A) (A) (A) (A) (A) (A) (A)
                 (A) (A) (A) (A) (A) (A) (A) (A) (A) (A) (A) (A)
                 (A) (A) (A) (A) (A) (A) (A) (A) (A) (A) (A) (A)
                 (A) (A) (A) (A) (A) (A) (A) (A) (A) (A) (A) (A)
                 (A) (A) (A) (A) (A) (A) (A) (A) (A) (A) (A) (A)
                 (A) (A) (A) (A) (A) (A) (A) (A) (A) (A) (A) (A)
                 (A) (A) (A) (A) (A) (A) (A) (A) (A) (A) (A) (A)
                 (A) (A) (A) (A) (A) (A) (A) (A) (A) (A) (A) (A)
                 (A) (A) (A) (A) (A) (A) (A) (A) (A) (A) (A) (A)
                 (A) (A) (A) (A) (A) (A) (A) (A) (A) (A) (A) (A)
                 (A) (A) (A) (A) (A) (A) (A) (A) (A) (A) (A) (A)
                 (A) (A) (A) (A) (A) (A) (A) (A) (A) (A) (A) (A)
                 (A) (A) (A) (A) (A) (A) (A) (A) (A) (A) (A) (A)
                 (A) (A) (A) (A) (A) (A) (A) (A) (A) (A) (A) (A)
                 (A) (A) (A) (A) (A) (A) (A) (A) (A) (A) (A) (A)
                 (A) (A) (A) (A) (A) (A) (A) (A) (A) (A) (A) (A)
                 (A) (A) (A) (A) (A) (A) (A) (A) (A) (A) (A) (A)
                 (A) (A) (A) (A) (A) (A) (A) (A) (A) (A) (A) (A)
                 (A) (A) (A) (A) (A) (A) (A) (A) (A) (A) (A) (A)
                 (A) (A) (A) (A) (A) (A) (A) (A) (A) (A) (A) (A)
                 (A) (A) (A) (A) (A) (A) (A) (A) (A) (A) (A) (A)
                 (A) (A) (A) (A) (A) (A) (A) (A) (A) (A)
 The electronic state is 1-A.
 Alpha  occ. eigenvalues --  -88.23093 -88.23010 -18.88214 -18.88107 -14.11265
 Alpha  occ. eigenvalues --  -10.04377 -10.04275 -10.02406 -10.01856 -10.01791
 Alpha  occ. eigenvalues --   -9.98932  -9.98900  -9.98897  -9.98885  -9.98883
 Alpha  occ. eigenvalues --   -9.98873  -9.98850  -9.98774  -9.98744  -9.98650
 Alpha  occ. eigenvalues --   -9.98575  -9.98492  -9.98425  -9.98368  -9.98356
 Alpha  occ. eigenvalues --   -9.98327  -9.98249  -9.98157  -9.97910  -7.81560
 Alpha  occ. eigenvalues --   -7.81489  -5.83656  -5.83589  -5.83485  -5.83410
 Alpha  occ. eigenvalues --   -5.82734  -5.82660  -1.08480  -1.08376  -0.99413
 Alpha  occ. eigenvalues --   -0.91182  -0.89422  -0.89382  -0.87833  -0.84878
 Alpha  occ. eigenvalues --   -0.80211  -0.79616  -0.79377  -0.78746  -0.78620
 Alpha  occ. eigenvalues --   -0.78080  -0.76242  -0.75137  -0.73022  -0.68448
 Alpha  occ. eigenvalues --   -0.67741  -0.66294  -0.65915  -0.64841  -0.64309
 Alpha  occ. eigenvalues --   -0.62783  -0.61212  -0.60120  -0.59999  -0.58438
 Alpha  occ. eigenvalues --   -0.58043  -0.56510  -0.54782  -0.53243  -0.52368
 Alpha  occ. eigenvalues --   -0.51140  -0.50669  -0.49498  -0.49396  -0.49124
 Alpha  occ. eigenvalues --   -0.48805  -0.48224  -0.47714  -0.47572  -0.47300
 Alpha  occ. eigenvalues --   -0.47032  -0.46815  -0.46500  -0.45261  -0.45131
 Alpha  occ. eigenvalues --   -0.44489  -0.43929  -0.43347  -0.42645  -0.41820
 Alpha  occ. eigenvalues --   -0.41241  -0.40857  -0.40421  -0.39910  -0.39586
 Alpha  occ. eigenvalues --   -0.39210  -0.38981  -0.37822  -0.35107  -0.33231
 Alpha  occ. eigenvalues --   -0.32726  -0.32126  -0.31963  -0.31263  -0.29572
 Alpha  occ. eigenvalues --   -0.29349  -0.28709  -0.24660  -0.23169
 Alpha virt. eigenvalues --    0.01887   0.02818   0.03090   0.03885   0.04070
 Alpha virt. eigenvalues --    0.04171   0.04285   0.06089   0.07562   0.08149
 Alpha virt. eigenvalues --    0.08267   0.08742   0.09687   0.10762   0.11352
 Alpha virt. eigenvalues --    0.11669   0.12408   0.13479   0.13718   0.13976
 Alpha virt. eigenvalues --    0.14258   0.15092   0.15680   0.16249   0.16811
 Alpha virt. eigenvalues --    0.17138   0.17388   0.17714   0.17852   0.18124
 Alpha virt. eigenvalues --    0.18859   0.19205   0.19564   0.20373   0.21000
 Alpha virt. eigenvalues --    0.21287   0.21524   0.21995   0.22365   0.22866
 Alpha virt. eigenvalues --    0.24049   0.24271   0.25028   0.25441   0.25853
 Alpha virt. eigenvalues --    0.26439   0.26535   0.26672   0.26834   0.26975
 Alpha virt. eigenvalues --    0.27300   0.27948   0.28085   0.28236   0.28610
 Alpha virt. eigenvalues --    0.28868   0.29204   0.29519   0.29586   0.30252
 Alpha virt. eigenvalues --    0.30362   0.30673   0.31005   0.31405   0.31544
 Alpha virt. eigenvalues --    0.31958   0.32470   0.33202   0.33371   0.33524
 Alpha virt. eigenvalues --    0.33997   0.34773   0.34849   0.35184   0.35244
 Alpha virt. eigenvalues --    0.35788   0.36075   0.36251   0.37159   0.38230
 Alpha virt. eigenvalues --    0.38497   0.38696   0.39024   0.39289   0.39462
 Alpha virt. eigenvalues --    0.39583   0.40146   0.40498   0.41187   0.41279
 Alpha virt. eigenvalues --    0.41457   0.41815   0.42366   0.43164   0.43328
 Alpha virt. eigenvalues --    0.43486   0.43715   0.43905   0.43954   0.44091
 Alpha virt. eigenvalues --    0.44649   0.44801   0.44983   0.45235   0.45789
 Alpha virt. eigenvalues --    0.46148   0.46251   0.46406   0.46789   0.47103
 Alpha virt. eigenvalues --    0.47252   0.47599   0.47731   0.48231   0.48559
 Alpha virt. eigenvalues --    0.49234   0.49357   0.49911   0.50219   0.50590
 Alpha virt. eigenvalues --    0.50850   0.51380   0.52088   0.52465   0.52776
 Alpha virt. eigenvalues --    0.53023   0.53303   0.53611   0.53992   0.54127
 Alpha virt. eigenvalues --    0.54610   0.54683   0.55202   0.55657   0.55959
 Alpha virt. eigenvalues --    0.56785   0.56846   0.57572   0.58111   0.58658
 Alpha virt. eigenvalues --    0.59200   0.59707   0.60143   0.60426   0.60890
 Alpha virt. eigenvalues --    0.61199   0.61929   0.62111   0.62341   0.62626
 Alpha virt. eigenvalues --    0.63647   0.63764   0.64166   0.64656   0.65608
 Alpha virt. eigenvalues --    0.66080   0.66796   0.67734   0.69587   0.69903
 Alpha virt. eigenvalues --    0.70273   0.71868   0.72082   0.72371   0.72955
 Alpha virt. eigenvalues --    0.73200   0.73640   0.74021   0.74437   0.74974
 Alpha virt. eigenvalues --    0.75620   0.75930   0.76658   0.76904   0.77575
 Alpha virt. eigenvalues --    0.78085   0.78739   0.79853   0.80492   0.81086
 Alpha virt. eigenvalues --    0.81723   0.82120   0.82227   0.82689   0.83421
 Alpha virt. eigenvalues --    0.84468   0.84949   0.85958   0.86638   0.87075
 Alpha virt. eigenvalues --    0.88298   0.88749   0.89707   0.90299   0.90929
 Alpha virt. eigenvalues --    0.91907   0.91992   0.92840   0.94946   0.95982
 Alpha virt. eigenvalues --    0.96425   0.97293   0.99900   1.01062   1.02906
 Alpha virt. eigenvalues --    1.05068   1.07001   1.17702   1.18756   1.19619
 Alpha virt. eigenvalues --    1.22989   1.23940   1.25074   1.25495   1.26447
 Alpha virt. eigenvalues --    1.26857   1.27250   1.27347   1.27635   1.27918
 Alpha virt. eigenvalues --    1.28449   1.28774   1.29187   1.29650   1.30143
 Alpha virt. eigenvalues --    1.30431   1.30854   1.32225   1.32426   1.32906
 Alpha virt. eigenvalues --    1.33139   1.33833   1.34907   1.35409   1.35659
 Alpha virt. eigenvalues --    1.36134   1.36608   1.37059   1.37352   1.38704
 Alpha virt. eigenvalues --    1.38764   1.39039   1.41280   1.42044   1.42475
 Alpha virt. eigenvalues --    1.43189   1.43514   1.43779   1.44594   1.44905
 Alpha virt. eigenvalues --    1.45123   1.45384   1.45819   1.46125   1.46283
 Alpha virt. eigenvalues --    1.46377   1.46984   1.47426   1.47476   1.47876
 Alpha virt. eigenvalues --    1.47962   1.48201   1.48677   1.49106   1.49889
 Alpha virt. eigenvalues --    1.50175   1.50963   1.51160   1.51344   1.52085
 Alpha virt. eigenvalues --    1.52429   1.52897   1.52934   1.53063   1.53941
 Alpha virt. eigenvalues --    1.54056   1.54517   1.55648   1.55882   1.56105
 Alpha virt. eigenvalues --    1.56157   1.56669   1.56839   1.57034   1.57504
 Alpha virt. eigenvalues --    1.57835   1.57950   1.58239   1.58733   1.59034
 Alpha virt. eigenvalues --    1.59259   1.59695   1.59995   1.60534   1.60804
 Alpha virt. eigenvalues --    1.60927   1.61514   1.61564   1.62538   1.62610
 Alpha virt. eigenvalues --    1.63457   1.64170   1.64758   1.65548   1.65882
 Alpha virt. eigenvalues --    1.67430   1.68540   1.69855   1.70206   1.70475
 Alpha virt. eigenvalues --    1.71172   1.72409   1.73135   1.75557   1.76044
 Alpha virt. eigenvalues --    1.77837   1.78661   1.79007   1.79321   1.79501
 Alpha virt. eigenvalues --    1.79669   1.80058   1.80749   1.80789   1.81305
 Alpha virt. eigenvalues --    1.81775   1.82504   1.82594   1.83706   1.84213
 Alpha virt. eigenvalues --    1.84874   1.84937   1.85387   1.86018   1.86799
 Alpha virt. eigenvalues --    1.87643   1.88993   1.89800   1.90391   1.90697
 Alpha virt. eigenvalues --    1.91108   1.91631   1.91953   1.92615   1.93150
 Alpha virt. eigenvalues --    1.93348   1.93500   1.94098   1.94294   1.94987
 Alpha virt. eigenvalues --    1.95609   1.95714   1.95920   1.96319   1.97040
 Alpha virt. eigenvalues --    1.97455   1.98136   2.00179   2.00845   2.00984
 Alpha virt. eigenvalues --    2.02073   2.02733   2.03307   2.03682   2.04533
 Alpha virt. eigenvalues --    2.04867   2.05127   2.05667   2.06432   2.08567
 Alpha virt. eigenvalues --    2.10419   2.11151   2.12014   2.12730   2.13023
 Alpha virt. eigenvalues --    2.14791   2.16344   2.17384   2.17746   2.20422
 Alpha virt. eigenvalues --    2.21197   2.21940   2.22476   2.23890   2.24624
 Alpha virt. eigenvalues --    2.25348   2.26047   2.27573   2.28114   2.28294
 Alpha virt. eigenvalues --    2.28890   2.29963   2.30949   2.32880   2.32970
 Alpha virt. eigenvalues --    2.34164   2.34523   2.34710   2.34835   2.35020
 Alpha virt. eigenvalues --    2.35341   2.36052   2.36327   2.37070   2.37400
 Alpha virt. eigenvalues --    2.37631   2.38003   2.38516   2.38753   2.39361
 Alpha virt. eigenvalues --    2.39446   2.39945   2.40060   2.40225   2.40723
 Alpha virt. eigenvalues --    2.41121   2.41639   2.41849   2.42077   2.44565
 Alpha virt. eigenvalues --    2.47107   2.48036   2.48737   2.50490   2.51227
 Alpha virt. eigenvalues --    2.51611   2.54010   2.54756   2.54979   2.55512
 Alpha virt. eigenvalues --    2.56519   2.59721   2.59795   2.60844   2.61688
 Alpha virt. eigenvalues --    2.62262   2.62734   2.63065   2.63175   2.64727
 Alpha virt. eigenvalues --    2.64802   2.65213   2.65438   2.65856   2.67030
 Alpha virt. eigenvalues --    2.67871   2.68092   2.68467   2.68867   2.70116
 Alpha virt. eigenvalues --    2.71025   2.72226   2.73131   2.74146   2.75203
 Alpha virt. eigenvalues --    2.75742   2.76260   2.77338   2.79305   2.80704
 Alpha virt. eigenvalues --    2.81132   2.82021   2.82203   2.82814   2.83505
 Alpha virt. eigenvalues --    2.85429   2.87026   2.87651   2.89053   2.89705
 Alpha virt. eigenvalues --    2.90254   2.95006   2.95170   2.96227   2.97015
 Alpha virt. eigenvalues --    2.98661   2.99753   3.01655   3.01696   3.01925
 Alpha virt. eigenvalues --    3.02443   3.03708   3.04158   3.05973   3.06271
 Alpha virt. eigenvalues --    3.06807   3.09105   3.10094   3.12131   3.12959
 Alpha virt. eigenvalues --    3.13483   3.14027   3.14452   3.15231   3.15745
 Alpha virt. eigenvalues --    3.16016   3.16675   3.18770   3.19799   3.21130
 Alpha virt. eigenvalues --    3.21498   3.22542   3.23442   3.24702   3.25420
 Alpha virt. eigenvalues --    3.26059   3.26285   3.28729   3.30345   3.30579
 Alpha virt. eigenvalues --    3.33266   3.34696   3.35401   3.38024   3.39378
 Alpha virt. eigenvalues --    3.41224   3.42498   3.45224   3.48444   3.56012
 Alpha virt. eigenvalues --    3.56536   3.57283   3.58478   3.60820   3.62123
 Alpha virt. eigenvalues --    3.72633   3.74207   3.87275   3.89171   4.09246
 Alpha virt. eigenvalues --    4.10248   4.35060   4.35195  18.98456  19.20122
 Alpha virt. eigenvalues --   21.06249  21.17231  21.24652  21.26407  21.62220
 Alpha virt. eigenvalues --   21.70099  21.71944  21.73243  21.74333  21.77598
 Alpha virt. eigenvalues --   21.84584  21.86169  21.91208  21.93780  21.95624
 Alpha virt. eigenvalues --   21.97704  21.99366  22.01314  22.04662  22.05938
 Alpha virt. eigenvalues --   22.12099  22.13262  22.18124  22.20687  32.07080
 Alpha virt. eigenvalues --   43.23748  43.23985
          Condensed to atoms (all electrons):
               1          2          3          4          5          6
     1  C    5.557678  -0.226338  -0.013974   0.375213   0.001163  -0.006501
     2  C   -0.226338   6.507490   0.075685  -0.179916  -0.022729   0.041975
     3  S   -0.013974   0.075685  15.523794  -0.207638  -0.216638   0.089033
     4  C    0.375213  -0.179916  -0.207638   6.528284   0.037487  -0.020692
     5  C    0.001163  -0.022729  -0.216638   0.037487   6.952924  -0.112154
     6  C   -0.006501   0.041975   0.089033  -0.020692  -0.112154   6.644234
     7  C    0.076255   0.351745   0.008504  -0.395771  -0.000556   0.001357
     8  C   -0.325611   0.384231   0.026609  -0.243629  -0.006281   0.002086
     9  H    0.001237   0.006161   0.023320  -0.115059  -0.114940   0.006047
    10  C    0.000557   0.001145   0.050556  -0.007096  -0.748774   0.308984
    11  C    0.000009  -0.009088  -0.030253   0.000065   0.342013  -0.311374
    12  C   -0.000004   0.001642   0.009995  -0.000147  -0.338979   0.355200
    13  C   -0.000034  -0.000895  -0.006736   0.000704   0.429197  -0.429134
    14  H    0.000013  -0.000020   0.000401  -0.001040  -0.094977   0.027892
    15  H    0.000044  -0.001196  -0.007932  -0.000054   0.033634  -0.154083
    16  H    0.000000   0.000001  -0.000023  -0.000001  -0.006145   0.025078
    17  C    0.192098  -0.394654  -0.003435   0.355735   0.001140  -0.000614
    18  H    0.467665  -0.123938  -0.007355   0.035624  -0.000015  -0.001185
    19  H    0.010795  -0.115846   0.351030   0.007739   0.007098  -0.122530
    20  H   -0.080494   0.029919  -0.000094  -0.008956  -0.000001  -0.000003
    21  H   -0.004239   0.035159   0.000340  -0.123616  -0.001029  -0.000025
    22  H    0.026955  -0.009039   0.000047   0.030220  -0.000002  -0.000002
    23  S    0.025463  -0.201148   0.195861   0.077765   0.086035  -0.209916
    24  N    0.000000  -0.000002   0.000023  -0.000006   0.020666   0.006720
    25  C   -0.000000  -0.000000  -0.000094   0.000001  -0.000328   0.000664
    26  C   -0.000000   0.000000   0.000002  -0.000000  -0.000570   0.000586
    27  C    0.000000  -0.000001   0.000008  -0.000001   0.003546  -0.003869
    28  C   -0.000000   0.000000   0.000000   0.000000  -0.000125   0.000047
    29  C    0.000000  -0.000000   0.000000  -0.000000   0.000079  -0.000351
    30  C    0.000000  -0.000000   0.000000  -0.000000   0.000035  -0.000003
    31  H    0.000000  -0.000000  -0.000000  -0.000000   0.000062  -0.000026
    32  H    0.000000  -0.000000  -0.000011  -0.000001   0.000698   0.000985
    33  H    0.000000  -0.000000  -0.000000   0.000000   0.000000  -0.000000
    34  H    0.000000  -0.000000  -0.000000  -0.000000  -0.000001  -0.000005
    35  C    0.000000  -0.000001   0.000093  -0.000004  -0.022227   0.003464
    36  C   -0.000000   0.000000  -0.000003   0.000001   0.005148  -0.000419
    37  C    0.000000   0.000001   0.000015  -0.000005  -0.017754   0.000964
    38  C   -0.000000   0.000000   0.000000   0.000000  -0.000054   0.000033
    39  C    0.000000  -0.000000   0.000001   0.000000  -0.001555   0.000040
    40  C    0.000000   0.000000  -0.000000  -0.000000  -0.000243  -0.000011
    41  H    0.000000  -0.000000   0.000000  -0.000000  -0.000149   0.000013
    42  H    0.000000   0.000000   0.000012  -0.000003  -0.005239   0.000702
    43  H    0.000000  -0.000000   0.000000  -0.000000  -0.000006   0.000000
    44  H   -0.000000  -0.000000   0.000000   0.000000   0.000019  -0.000001
    45  O   -0.000000   0.000000   0.000000   0.000000   0.000001   0.000000
    46  H    0.000000   0.000000   0.000000  -0.000000  -0.000000  -0.000000
    47  O    0.000000  -0.000000  -0.000000  -0.000000  -0.000000   0.000000
    48  H    0.000000  -0.000000   0.000000  -0.000000   0.000000  -0.000000
               7          8          9         10         11         12
     1  C    0.076255  -0.325611   0.001237   0.000557   0.000009  -0.000004
     2  C    0.351745   0.384231   0.006161   0.001145  -0.009088   0.001642
     3  S    0.008504   0.026609   0.023320   0.050556  -0.030253   0.009995
     4  C   -0.395771  -0.243629  -0.115059  -0.007096   0.000065  -0.000147
     5  C   -0.000556  -0.006281  -0.114940  -0.748774   0.342013  -0.338979
     6  C    0.001357   0.002086   0.006047   0.308984  -0.311374   0.355200
     7  C    5.300933   0.193932  -0.000393  -0.000076   0.000024   0.000002
     8  C    0.193932   5.567060   0.010608  -0.000696   0.000614  -0.000069
     9  H   -0.000393   0.010608   0.717146   0.014656   0.002037  -0.001508
    10  C   -0.000076  -0.000696   0.014656   6.490043  -0.306402  -0.061817
    11  C    0.000024   0.000614   0.002037  -0.306402   5.743836  -0.066989
    12  C    0.000002  -0.000069  -0.001508  -0.061817  -0.066989   5.859451
    13  C    0.000001   0.000049  -0.001856  -0.141587   0.235309   0.121328
    14  H   -0.000002   0.000015   0.005645   0.439595  -0.002170   0.010586
    15  H    0.000001   0.000014   0.000061  -0.001531   0.485155  -0.094686
    16  H   -0.000000   0.000000  -0.000000   0.021255  -0.062609   0.415558
    17  C    0.270097   0.075093  -0.002290   0.000049  -0.000067   0.000003
    18  H   -0.085259  -0.004606   0.000059   0.000015   0.000042  -0.000002
    19  H   -0.002525   0.001100   0.000661   0.001309   0.017098  -0.005150
    20  H    0.436881   0.026821   0.000004   0.000000   0.000000  -0.000000
    21  H    0.018148   0.467760   0.007078   0.000032   0.000015  -0.000002
    22  H   -0.079037  -0.080596   0.000056   0.000000   0.000000  -0.000000
    23  S   -0.002954  -0.013620   0.351227  -0.013752   0.031770  -0.006726
    24  N   -0.000000   0.000000   0.000116  -0.007862   0.019869  -0.017450
    25  C    0.000000   0.000000  -0.000029  -0.011523  -0.001195   0.031353
    26  C   -0.000000  -0.000000  -0.000000  -0.012422   0.000817   0.030914
    27  C   -0.000000   0.000000   0.000021   0.024275  -0.001220  -0.098390
    28  C    0.000000  -0.000000  -0.000000  -0.000152  -0.000234   0.001619
    29  C   -0.000000   0.000000   0.000001   0.001481   0.000699  -0.005653
    30  C   -0.000000   0.000000   0.000000   0.000038  -0.000157  -0.001462
    31  H    0.000000   0.000000  -0.000000  -0.000254   0.000049  -0.000075
    32  H    0.000000   0.000000  -0.000003   0.000041  -0.002079   0.003225
    33  H    0.000000   0.000000   0.000000   0.000003  -0.000001  -0.000039
    34  H   -0.000000  -0.000000   0.000000  -0.000029   0.000017  -0.000085
    35  C   -0.000000  -0.000000   0.000205   0.063606  -0.001709  -0.012852
    36  C    0.000000   0.000000  -0.000008   0.018801   0.000396  -0.016020
    37  C   -0.000000  -0.000000  -0.000020  -0.062175  -0.000781   0.032737
    38  C    0.000000  -0.000000   0.000001   0.001863  -0.000070  -0.000077
    39  C   -0.000000  -0.000000  -0.000004  -0.007585  -0.000148   0.001654
    40  C   -0.000000   0.000000  -0.000002  -0.001904   0.000017   0.000136
    41  H   -0.000000   0.000000   0.000001   0.000456   0.000005  -0.000256
    42  H   -0.000000   0.000000   0.000006   0.006607   0.000332  -0.000268
    43  H   -0.000000  -0.000000   0.000000  -0.000039  -0.000000   0.000003
    44  H    0.000000  -0.000000   0.000000   0.000079   0.000001  -0.000035
    45  O    0.000000  -0.000000   0.000000   0.000015  -0.000000   0.000000
    46  H   -0.000000   0.000000   0.000000  -0.000001   0.000000   0.000000
    47  O    0.000000  -0.000000   0.000000   0.000000   0.000000   0.000004
    48  H   -0.000000  -0.000000   0.000000  -0.000000   0.000000  -0.000001
              13         14         15         16         17         18
     1  C   -0.000034   0.000013   0.000044   0.000000   0.192098   0.467665
     2  C   -0.000895  -0.000020  -0.001196   0.000001  -0.394654  -0.123938
     3  S   -0.006736   0.000401  -0.007932  -0.000023  -0.003435  -0.007355
     4  C    0.000704  -0.001040  -0.000054  -0.000001   0.355735   0.035624
     5  C    0.429197  -0.094977   0.033634  -0.006145   0.001140  -0.000015
     6  C   -0.429134   0.027892  -0.154083   0.025078  -0.000614  -0.001185
     7  C    0.000001  -0.000002   0.000001  -0.000000   0.270097  -0.085259
     8  C    0.000049   0.000015   0.000014   0.000000   0.075093  -0.004606
     9  H   -0.001856   0.005645   0.000061  -0.000000  -0.002290   0.000059
    10  C   -0.141587   0.439595  -0.001531   0.021255   0.000049   0.000015
    11  C    0.235309  -0.002170   0.485155  -0.062609  -0.000067   0.000042
    12  C    0.121328   0.010586  -0.094686   0.415558   0.000003  -0.000002
    13  C    5.901116  -0.063081   0.031313  -0.059581  -0.000000  -0.000000
    14  H   -0.063081   0.534941   0.000012  -0.000181   0.000003   0.000000
    15  H    0.031313   0.000012   0.620209  -0.008810  -0.000002   0.000004
    16  H   -0.059581  -0.000181  -0.008810   0.533272   0.000000   0.000000
    17  C   -0.000000   0.000003  -0.000002   0.000000   5.297420   0.018520
    18  H   -0.000000   0.000000   0.000004   0.000000   0.018520   0.604799
    19  H    0.000970   0.000031   0.007108   0.000004  -0.000332   0.007484
    20  H   -0.000000  -0.000000   0.000000  -0.000000  -0.078678  -0.008420
    21  H    0.000001  -0.000001   0.000000  -0.000000  -0.084610   0.000058
    22  H   -0.000000   0.000000   0.000000   0.000000   0.436847  -0.000084
    23  S    0.010242  -0.007731   0.000303   0.000003   0.007628   0.000341
    24  N    0.135936  -0.006664  -0.000309  -0.007532  -0.000000   0.000000
[...]
    15  H   -0.000169  -0.000094   0.000375  -0.000002   0.000100  -0.000007
    16  H    0.004182  -0.001628   0.003487   0.001362  -0.004115   0.000483
    17  C   -0.000000   0.000000  -0.000000  -0.000000  -0.000000   0.000000
    18  H   -0.000000  -0.000000   0.000000   0.000000   0.000000   0.000000
    19  H   -0.000006  -0.000000   0.000008   0.000000   0.000000   0.000000
    20  H   -0.000000  -0.000000   0.000000   0.000000   0.000000  -0.000000
    21  H   -0.000000  -0.000000   0.000000  -0.000000   0.000000  -0.000000
    22  H   -0.000000  -0.000000   0.000000   0.000000   0.000000  -0.000000
    23  S   -0.000026  -0.000000   0.000020   0.000000   0.000002  -0.000000
    24  N    0.103585  -0.002085  -0.022465   0.017786   0.030157   0.004132
    25  C    5.703906   0.299869   0.272539   0.043900   0.109753  -0.178433
    26  C    0.299869   5.263819  -0.138527   0.278582  -0.072280   0.021475
    27  C    0.272539  -0.138527   5.680875  -0.020620  -0.244646   0.143128
    28  C    0.043900   0.278582  -0.020620   5.416871  -0.181388   0.369279
    29  C    0.109753  -0.072280  -0.244646  -0.181388   6.247553   0.107695
    30  C   -0.178433   0.021475   0.143128   0.369279   0.107695   5.160823
    31  H   -0.058598   0.441039   0.020130  -0.083047  -0.004993   0.022490
    32  H   -0.036680   0.013396   0.398779  -0.000528  -0.042506   0.011032
    33  H    0.021867  -0.051790  -0.004438   0.427947   0.019851  -0.085593
    34  H    0.014564   0.003460   0.010503   0.005635   0.381570  -0.090355
    35  C   -0.116406   0.036584  -0.018885  -0.002832  -0.000904   0.002333
    36  C    0.051338  -0.060673   0.013524  -0.005943   0.002480  -0.001948
    37  C   -0.010649   0.012125  -0.013295   0.001459   0.000541  -0.000038
    38  C   -0.016156  -0.000891   0.002648   0.000811   0.000003  -0.000114
    39  C   -0.004901   0.003502   0.000038   0.000004  -0.000151   0.000050
    40  C    0.003803  -0.002307  -0.000118  -0.000188   0.000075  -0.000025
    41  H    0.005753   0.004012  -0.005341  -0.002603   0.002703   0.000268
    42  H   -0.001310   0.000602  -0.000486   0.000015   0.000045  -0.000011
    43  H   -0.000105   0.000093  -0.000052   0.000035  -0.000009  -0.000001
    44  H   -0.000031  -0.000016   0.000004  -0.000002  -0.000000   0.000000
    45  O    0.000017  -0.000006   0.000000  -0.000000  -0.000000   0.000000
    46  H    0.000000  -0.000001  -0.000000   0.000000   0.000000  -0.000000
    47  O   -0.001867   0.006497   0.023923  -0.082933  -0.122605   0.414155
    48  H   -0.000750  -0.001917   0.008561   0.020222  -0.043759  -0.025316
              31         32         33         34         35         36
     1  C    0.000000   0.000000   0.000000   0.000000   0.000000  -0.000000
     2  C   -0.000000  -0.000000  -0.000000  -0.000000  -0.000001   0.000000
     3  S   -0.000000  -0.000011  -0.000000  -0.000000   0.000093  -0.000003
     4  C   -0.000000  -0.000001   0.000000  -0.000000  -0.000004   0.000001
     5  C    0.000062   0.000698   0.000000  -0.000001  -0.022227   0.005148
     6  C   -0.000026   0.000985  -0.000000  -0.000005   0.003464  -0.000419
     7  C    0.000000   0.000000   0.000000  -0.000000  -0.000000   0.000000
     8  C    0.000000   0.000000   0.000000  -0.000000  -0.000000   0.000000
     9  H   -0.000000  -0.000003   0.000000   0.000000   0.000205  -0.000008
    10  C   -0.000254   0.000041   0.000003  -0.000029   0.063606   0.018801
    11  C    0.000049  -0.002079  -0.000001   0.000017  -0.001709   0.000396
    12  C   -0.000075   0.003225  -0.000039  -0.000085  -0.012852  -0.016020
    13  C   -0.001610  -0.003270   0.000005   0.000014  -0.115320  -0.017027
    14  H   -0.000010   0.000030  -0.000000   0.000000   0.009984  -0.003711
    15  H    0.000000  -0.000087   0.000000   0.000001   0.000157   0.000004
    16  H    0.000041   0.001203   0.000010  -0.000010  -0.001563  -0.000464
    17  C   -0.000000   0.000000  -0.000000  -0.000000  -0.000000  -0.000000
    18  H   -0.000000  -0.000000  -0.000000   0.000000   0.000000  -0.000000
    19  H   -0.000000  -0.000002   0.000000   0.000000   0.000005  -0.000000
    20  H   -0.000000  -0.000000   0.000000   0.000000   0.000000   0.000000
    21  H    0.000000  -0.000000   0.000000   0.000000   0.000000   0.000000
    22  H   -0.000000  -0.000000  -0.000000   0.000000   0.000000  -0.000000
    23  S   -0.000000  -0.000018   0.000000   0.000000   0.000016   0.000021
    24  N   -0.010835  -0.007002  -0.000579  -0.000798   0.124786  -0.029842
    25  C   -0.058598  -0.036680   0.021867   0.014564  -0.116406   0.051338
    26  C    0.441039   0.013396  -0.051790   0.003460   0.036584  -0.060673
    27  C    0.020130   0.398779  -0.004438   0.010503  -0.018885   0.013524
    28  C   -0.083047  -0.000528   0.427947   0.005635  -0.002832  -0.005943
    29  C   -0.004993  -0.042506   0.019851   0.381570  -0.000904   0.002480
    30  C    0.022490   0.011032  -0.085593  -0.090355   0.002333  -0.001948
    31  H    0.551230  -0.000245  -0.010118   0.000028   0.002948   0.005139
    32  H   -0.000245   0.530469   0.000030  -0.007130  -0.001947   0.001055
    33  H   -0.010118   0.000030   0.566777  -0.000327  -0.000269   0.000152
    34  H    0.000028  -0.007130  -0.000327   0.583435  -0.000004  -0.000038
    35  C    0.002948  -0.001947  -0.000269  -0.000004   5.722309   0.257640
    36  C    0.005139   0.001055   0.000152  -0.000038   0.257640   5.668642
    37  C   -0.002888  -0.000495  -0.000025   0.000002   0.281838  -0.134555
    38  C   -0.003662  -0.000050   0.000020  -0.000004   0.139235  -0.289968
    39  C    0.001316   0.000023  -0.000007   0.000000   0.029577  -0.014940
    40  C    0.000418  -0.000006   0.000003   0.000000  -0.180156   0.154897
    41  H    0.000889   0.000131  -0.000024   0.000011  -0.034016   0.402035
    42  H    0.000065  -0.000007   0.000001   0.000000  -0.060143   0.018910
    43  H   -0.000030   0.000000  -0.000000   0.000000   0.014865   0.010338
    44  H    0.000003  -0.000000  -0.000000  -0.000000   0.022070  -0.004490
    45  O   -0.000000   0.000000  -0.000000  -0.000000  -0.002463   0.024874
    46  H    0.000001  -0.000000  -0.000000   0.000000  -0.000859   0.009030
    47  O   -0.000116  -0.000081   0.002427  -0.006647  -0.000011   0.000006
    48  H    0.000035  -0.000052  -0.000790   0.001801  -0.000001  -0.000000
              37         38         39         40         41         42
     1  C    0.000000  -0.000000   0.000000   0.000000   0.000000   0.000000
     2  C    0.000001   0.000000  -0.000000   0.000000  -0.000000   0.000000
     3  S    0.000015   0.000000   0.000001  -0.000000   0.000000   0.000012
     4  C   -0.000005   0.000000   0.000000  -0.000000  -0.000000  -0.000003
     5  C   -0.017754  -0.000054  -0.001555  -0.000243  -0.000149  -0.005239
     6  C    0.000964   0.000033   0.000040  -0.000011   0.000013   0.000702
     7  C   -0.000000   0.000000  -0.000000  -0.000000  -0.000000  -0.000000
     8  C   -0.000000  -0.000000  -0.000000   0.000000   0.000000   0.000000
     9  H   -0.000020   0.000001  -0.000004  -0.000002   0.000001   0.000006
    10  C   -0.062175   0.001863  -0.007585  -0.001904   0.000456   0.006607
    11  C   -0.000781  -0.000070  -0.000148   0.000017   0.000005   0.000332
    12  C    0.032737  -0.000077   0.001654   0.000136  -0.000256  -0.000268
    13  C    0.016545  -0.000405   0.003719   0.001179  -0.002139  -0.005164
    14  H    0.003603   0.002062  -0.002031   0.000500   0.000146   0.001545
    15  H   -0.000068   0.000000  -0.000002   0.000000  -0.000000   0.000006
    16  H    0.000589   0.000024   0.000010  -0.000003  -0.000012  -0.000003
    17  C    0.000000  -0.000000   0.000000   0.000000   0.000000   0.000000
    18  H    0.000000  -0.000000   0.000000   0.000000   0.000000   0.000000
    19  H   -0.000001   0.000000   0.000000  -0.000000   0.000000   0.000000
    20  H   -0.000000   0.000000  -0.000000  -0.000000   0.000000   0.000000
    21  H   -0.000000   0.000000  -0.000000  -0.000000   0.000000   0.000000
    22  H    0.000000  -0.000000  -0.000000  -0.000000   0.000000   0.000000
    23  S    0.000032  -0.000002   0.000000  -0.000000  -0.000001   0.000007
    24  N    0.002706   0.030685   0.012743   0.004779  -0.010480  -0.005718
    25  C   -0.010649  -0.016156  -0.004901   0.003803   0.005753  -0.001310
    26  C    0.012125  -0.000891   0.003502  -0.002307   0.004012   0.000602
    27  C   -0.013295   0.002648   0.000038  -0.000118  -0.005341  -0.000486
    28  C    0.001459   0.000811   0.000004  -0.000188  -0.002603   0.000015
    29  C    0.000541   0.000003  -0.000151   0.000075   0.002703   0.000045
    30  C   -0.000038  -0.000114   0.000050  -0.000025   0.000268  -0.000011
    31  H   -0.002888  -0.003662   0.001316   0.000418   0.000889   0.000065
    32  H   -0.000495  -0.000050   0.000023  -0.000006   0.000131  -0.000007
    33  H   -0.000025   0.000020  -0.000007   0.000003  -0.000024   0.000001
    34  H    0.000002  -0.000004   0.000000   0.000000   0.000011   0.000000
    35  C    0.281838   0.139235   0.029577  -0.180156  -0.034016  -0.060143
    36  C   -0.134555  -0.289968  -0.014940   0.154897   0.402035   0.018910
    37  C    5.287947  -0.085349   0.324375   0.015342   0.013886   0.433236
    38  C   -0.085349   6.316968  -0.180286   0.078171  -0.053331  -0.004824
    39  C    0.324375  -0.180286   5.345588   0.390939  -0.000315  -0.067722
    40  C    0.015342   0.078171   0.390939   5.166779   0.011843   0.021115
    41  H    0.013886  -0.053331  -0.000315   0.011843   0.541599  -0.000264
    42  H    0.433236  -0.004824  -0.067722   0.021115  -0.000264   0.536935
    43  H    0.003362   0.381999   0.005510  -0.090516  -0.007197   0.000023
    44  H   -0.049822   0.020025   0.425232  -0.085244   0.000031  -0.009896
    45  O    0.007143  -0.123522  -0.083231   0.414492  -0.000059  -0.000107
    46  H   -0.001783  -0.044925   0.019667  -0.024012  -0.000047   0.000035
    47  O    0.000000   0.000000  -0.000000   0.000000  -0.000006  -0.000000
    48  H   -0.000000   0.000000   0.000000  -0.000000  -0.000002  -0.000000
              43         44         45         46         47         48
     1  C    0.000000  -0.000000  -0.000000   0.000000   0.000000   0.000000
     2  C   -0.000000  -0.000000   0.000000   0.000000  -0.000000  -0.000000
     3  S    0.000000   0.000000   0.000000   0.000000  -0.000000   0.000000
     4  C   -0.000000   0.000000   0.000000  -0.000000  -0.000000  -0.000000
     5  C   -0.000006   0.000019   0.000001  -0.000000  -0.000000   0.000000
     6  C    0.000000  -0.000001   0.000000  -0.000000   0.000000  -0.000000
     7  C   -0.000000   0.000000   0.000000  -0.000000   0.000000  -0.000000
     8  C   -0.000000  -0.000000  -0.000000   0.000000  -0.000000  -0.000000
     9  H    0.000000   0.000000   0.000000   0.000000   0.000000   0.000000
    10  C   -0.000039   0.000079   0.000015  -0.000001   0.000000  -0.000000
    11  C   -0.000000   0.000001  -0.000000   0.000000   0.000000   0.000000
    12  C    0.000003  -0.000035   0.000000   0.000000   0.000004  -0.000001
    13  C    0.000009  -0.000165  -0.000009  -0.000000   0.000008   0.000000
    14  H    0.000023   0.000004  -0.000009  -0.000001   0.000000  -0.000000
    15  H   -0.000000   0.000000  -0.000000  -0.000000  -0.000000  -0.000000
    16  H   -0.000000   0.000000  -0.000000  -0.000000  -0.000003   0.000001
    17  C    0.000000  -0.000000   0.000000   0.000000  -0.000000   0.000000
    18  H    0.000000   0.000000  -0.000000   0.000000  -0.000000   0.000000
    19  H    0.000000   0.000000   0.000000   0.000000  -0.000000   0.000000
    20  H    0.000000   0.000000  -0.000000  -0.000000  -0.000000   0.000000
    21  H   -0.000000   0.000000  -0.000000  -0.000000   0.000000   0.000000
    22  H    0.000000   0.000000   0.000000   0.000000   0.000000   0.000000
    23  S   -0.000000  -0.000001   0.000000   0.000000   0.000000   0.000000
    24  N   -0.000741  -0.000652  -0.000010  -0.000003  -0.000008  -0.000003
    25  C   -0.000105  -0.000031   0.000017   0.000000  -0.001867  -0.000750
    26  C    0.000093  -0.000016  -0.000006  -0.000001   0.006497  -0.001917
    27  C   -0.000052   0.000004   0.000000  -0.000000   0.023923   0.008561
    28  C    0.000035  -0.000002  -0.000000   0.000000  -0.082933   0.020222
    29  C   -0.000009  -0.000000  -0.000000   0.000000  -0.122605  -0.043759
    30  C   -0.000001   0.000000   0.000000  -0.000000   0.414155  -0.025316
    31  H   -0.000030   0.000003  -0.000000   0.000001  -0.000116   0.000035
    32  H    0.000000  -0.000000   0.000000  -0.000000  -0.000081  -0.000052
    33  H   -0.000000  -0.000000  -0.000000  -0.000000   0.002427  -0.000790
    34  H    0.000000  -0.000000  -0.000000   0.000000  -0.006647   0.001801
    35  C    0.014865   0.022070  -0.002463  -0.000859  -0.000011  -0.000001
    36  C    0.010338  -0.004490   0.024874   0.009030   0.000006  -0.000000
    37  C    0.003362  -0.049822   0.007143  -0.001783   0.000000  -0.000000
    38  C    0.381999   0.020025  -0.123522  -0.044925   0.000000   0.000000
    39  C    0.005510   0.425232  -0.083231   0.019667  -0.000000   0.000000
    40  C   -0.090516  -0.085244   0.414492  -0.024012   0.000000  -0.000000
    41  H   -0.007197   0.000031  -0.000059  -0.000047  -0.000006  -0.000002
    42  H    0.000023  -0.009896  -0.000107   0.000035  -0.000000  -0.000000
    43  H    0.582709  -0.000322  -0.006787   0.001664  -0.000000   0.000000
    44  H   -0.000322   0.565409   0.002586  -0.000799  -0.000000   0.000000
    45  O   -0.006787   0.002586   7.700708   0.304062  -0.000000  -0.000000
    46  H    0.001664  -0.000799   0.304062   0.470416   0.000000  -0.000000
    47  O   -0.000000  -0.000000  -0.000000   0.000000   7.701275   0.304079
    48  H    0.000000   0.000000  -0.000000  -0.000000   0.304079   0.470279
 Mulliken charges:
               1
     1  C   -0.077952
     2  C   -0.150342
     3  S    0.138856
     4  C   -0.145201
     5  C   -0.209475
     6  C   -0.143205
     7  C   -0.091307
     8  C   -0.080883
     9  H    0.089757
    10  C   -0.059783
    11  C   -0.083642
    12  C   -0.146667
    13  C    0.031679
    14  H    0.146000
    15  H    0.090531
    16  H    0.146125
    17  C   -0.089950
    18  H    0.096253
    19  H    0.087230
    20  H    0.102601
    21  H    0.096567
    22  H    0.102637
    23  S    0.138221
    24  N    0.002618
    25  C   -0.143868
    26  C   -0.049007
    27  C   -0.073209
    28  C   -0.204363
    29  C   -0.175685
    30  C    0.124442
    31  H    0.130626
    32  H    0.141102
    33  H    0.114907
    34  H    0.104391
    35  C   -0.139145
    36  C   -0.064379
    37  C   -0.058747
    38  C   -0.170858
    39  C   -0.201110
    40  C    0.120248
    41  H    0.132459
    42  H    0.140967
    43  H    0.105173
    44  H    0.116014
    45  O   -0.237692
    46  H    0.267555
    47  O   -0.238099
    48  H    0.267610
 Sum of Mulliken charges =  -0.00000
 Mulliken charges with hydrogens summed into heavy atoms:
               1
     1  C    0.018301
     2  C   -0.150342
     3  S    0.226087
     4  C   -0.145201
     5  C   -0.209475
     6  C   -0.143205
     7  C    0.011294
     8  C    0.015684
    10  C    0.086217
    11  C    0.006889
    12  C   -0.000542
    13  C    0.031679
    17  C    0.012687
    23  S    0.227978
    24  N    0.002618
    25  C   -0.143868
    26  C    0.081619
    27  C    0.067894
    28  C   -0.089456
    29  C   -0.071293
    30  C    0.124442
    35  C   -0.139145
    36  C    0.068080
    37  C    0.082219
    38  C   -0.065685
    39  C   -0.085096
    40  C    0.120248
    45  O    0.029863
    47  O    0.029511
 Electronic spatial extent (au):  <R**2>=          17769.8422
 Charge=             -0.0000 electrons
 Dipole moment (field-independent basis, Debye):
    X=             -0.9537    Y=             -1.3852    Z=              3.0600  Tot=              3.4917
 Quadrupole moment (field-independent basis, Debye-Ang):
   XX=           -174.8589   YY=           -165.6971   ZZ=           -177.7575
   XY=             -6.8290   XZ=             -5.3771   YZ=              5.1282
 Traceless Quadrupole moment (field-independent basis, Debye-Ang):
   XX=             -2.0878   YY=              7.0741   ZZ=             -4.9863
   XY=             -6.8290   XZ=             -5.3771   YZ=              5.1282
 Octapole moment (field-independent basis, Debye-Ang**2):
  XXX=             62.1481  YYY=            -63.3325  ZZZ=             11.4223  XYY=            -53.3210
  XXY=             27.2144  XXZ=             76.1845  XZZ=            -37.9588  YZZ=              4.7956
  YYZ=             68.7548  XYZ=             21.2135
 Hexadecapole moment (field-independent basis, Debye-Ang**3):
 XXXX=         -17762.0521 YYYY=          -4745.3366 ZZZZ=           -966.3405 XXXY=           -555.2586
 XXXZ=             45.4400 YYYX=             63.2457 YYYZ=             39.0850 ZZZX=            -50.0220
 ZZZY=            -27.4315 XXYY=          -3473.6132 XXZZ=          -3151.1986 YYZZ=           -865.0494
 XXYZ=            171.7984 YYXZ=           -385.3318 ZZXY=             60.6267
 N-N= 2.827246280079D+03 E-N=-1.017893941413D+04  KE= 1.920202568695D+03
 No NMR shielding tensors so no spin-rotation constants.
 Leave Link  601 at Mon Jan 18 21:53:21 2021, MaxMem=  4026531840 cpu:               4.4 elap:               0.6
 (Enter /opt/ohpc/pub/libs/gaussian/g16-A.03/sandybridge/g16/l9999.exe)

 Test job not archived.
 1\1\GINC-CASCADEB025\SP\RLC-wHPBE\TZVP\C24H19N1O2S2\RDU230\18-Jan-2021
 \0\\#P LC-wHPBE/TZVP iop(3/107=0176500000, 3/108=0176500000) scf=(conv
 er=6,fermi,ndamp=35,noincfock,novaracc,vshift=500,xqc)\\H19 C24 S2 N1 
 O2\\0,1\C,0,-6.54463,-1.193879,0.12701\C,0,-5.283469,-0.647909,0.13152
 3\S,0,-3.665919,-1.107322,1.042984\C,0,-4.996815,0.486583,-0.53783\C,0
 ,-1.475687,0.036886,0.221747\C,0,-1.772288,-1.094442,0.892846\C,0,-7.5
 17398,-0.549399,-0.618903\C,0,-5.951198,1.159916,-1.262339\H,0,-2.8434
 06,1.345523,-1.332578\C,0,-0.186077,0.430997,-0.028463\C,0,-0.77363,-1
 .912541,1.366813\C,0,0.53691,-1.552052,1.124661\C,0,0.845585,-0.387156
 ,0.425435\H,0,0.045427,1.33981,-0.567415\H,0,-0.986976,-2.816418,1.923
 251\H,0,1.342687,-2.175375,1.48462\C,0,-7.223748,0.615229,-1.306247\H,
 0,-6.782458,-2.097666,0.673346\H,0,-3.815781,-2.43941,0.928305\H,0,-8.
 517553,-0.958288,-0.663525\H,0,-5.730059,2.077989,-1.791552\H,0,-7.997
 253,1.105431,-1.881471\S,0,-3.166075,0.851646,-0.124057\N,0,2.182887,-
 0.044483,0.184905\C,0,3.146505,-1.044921,-0.067172\C,0,4.392012,-0.989
 098,0.539344\C,0,2.878694,-2.090316,-0.930362\C,0,5.345494,-1.946131,0
 .285899\C,0,3.822608,-3.066997,-1.170354\C,0,5.062274,-2.995295,-0.567
 641\H,0,4.612943,-0.17489,1.215121\H,0,1.913696,-2.145516,-1.414069\H,
 0,6.317156,-1.901598,0.755555\H,0,3.591387,-3.881585,-1.84538\C,0,2.57
 5405,1.310294,0.123192\C,0,3.391681,1.763268,-0.894977\C,0,2.16404,2.2
 11964,1.09371\C,0,3.796835,3.081396,-0.942072\C,0,2.544098,3.531176,1.
 038879\C,0,3.368807,3.972023,0.020733\H,0,3.723839,1.07184,-1.656403\H
 ,0,1.529535,1.868488,1.898614\H,0,4.442764,3.41523,-1.744528\H,0,2.220
 724,4.234697,1.791974\O,0,3.726245,5.28132,0.019257\H,0,4.294203,5.466
 041,-0.728132\O,0,6.032969,-3.920806,-0.776143\H,0,5.721078,-4.593785,
 -1.380389\\Version=EM64L-G16RevA.03\State=1-A\HF=-1926.4302332\RMSD=7.
 057e-07\Dipole=0.3752123,-0.5449767,-1.2039082\Quadrupole=-1.552211,5.
 2594062,-3.7071952,5.0771915,-3.9977294,-3.8126559\PG=C01 [X(C24H19N1O
 2S2)]\\@


 LEARN FROM YESTERDAY,
 LIVE FOR TODAY,
 LOOK TO TOMORROW,
 REST THIS AFTERNOON.

           -- SNOOPY
 Job cpu time:       0 days  2 hours 12 minutes 46.6 seconds.
 Elapsed time:       0 days  0 hours 16 minutes 38.9 seconds.
 File lengths (MBytes):  RWF=    192 Int=      0 D2E=      0 Chk=     32 Scr=      8
 Normal termination of Gaussian 16 at Mon Jan 18 21:53:21 2021.
