 Entering Gaussian System, Link 0=g16
 Input=mol_ta_ma_half_tune_c8.gjf
 Output=mol_ta_ma_half_tune_c8.log
 Initial command:
 /opt/ohpc/pub/libs/gaussian/g16-A.03/sandybridge/g16/l1.exe "/mnt/gpfs2_4m/scratch/rdu230/ondemand/projects/init_structures/wtuning/mol_ta_ma_half/tuning_mol_ta_ma_half_ocycle0/Gau-448418.inp" -scrdir="/mnt/gpfs2_4m/scratch/rdu230/ondemand/projects/init_structures/wtuning/mol_ta_ma_half/tuning_mol_ta_ma_half_ocycle0/"
 Entering Link 1 = /opt/ohpc/pub/libs/gaussian/g16-A.03/sandybridge/g16/l1.exe PID=    448419.
  
 Copyright (c) 1988,1990,1992,1993,1995,1998,2003,2009,2016,
            Gaussian, Inc.  All Rights Reserved.
  
 This is part of the Gaussian(R) 16 program.  It is based on
 the Gaussian(R) 09 system (copyright 2009, Gaussian, Inc.),
 the Gaussian(R) 03 system (copyright 2003, Gaussian, Inc.),
 the Gaussian(R) 98 system (copyright 1998, Gaussian, Inc.),
 the Gaussian(R) 94 system (copyright 1995, Gaussian, Inc.),
 the Gaussian 92(TM) system (copyright 1992, Gaussian, Inc.),
 the Gaussian 90(TM) system (copyright 1990, Gaussian, Inc.),
 the Gaussian 88(TM) system (copyright 1988, Gaussian, Inc.),
 the Gaussian 86(TM) system (copyright 1986, Carnegie Mellon
 University), and the Gaussian 82(TM) system (copyright 1983,
 Carnegie Mellon University). Gaussian is a federally registered
 trademark of Gaussian, Inc.
  
 This software contains proprietary and confidential information,
 including trade secrets, belonging to Gaussian, Inc.
  
 This software is provided under written license and may be
 used, copied, transmitted, or stored only in accord with that
 written license.
  
 The following legend is applicable only to US Government
 contracts under FAR:
  
                    RESTRICTED RIGHTS LEGEND
  
 Use, reproduction and disclosure by the US Government is
 subject to restrictions as set forth in subparagraphs (a)
 and (c) of the Commercial Computer Software - Restricted
 Rights clause in FAR 52.227-19.
  
 Gaussian, Inc.
 340 Quinnipiac St., Bldg. 40, Wallingford CT 06492
  
  
 ---------------------------------------------------------------
 Warning -- This program may not be used in any manner that
 competes with the business of Gaussian, Inc. or will provide
 assistance to any competitor of Gaussian, Inc.  The licensee
 of this program is prohibited from giving any competitor of
 Gaussian, Inc. access to this program.  By using this program,
 the user acknowledges that Gaussian, Inc. is engaged in the
 business of creating and licensing software in the field of
 computational chemistry and represents and warrants to the
 licensee that it is not a competitor of Gaussian, Inc. and that
 it will not use this program in any manner prohibited above.
 ---------------------------------------------------------------
  

 Cite this work as:
 Gaussian 16, Revision A.03,
 M. J. Frisch, G. W. Trucks, H. B. Schlegel, G. E. Scuseria, 
 M. A. Robb, J. R. Cheeseman, G. Scalmani, V. Barone, 
 G. A. Petersson, H. Nakatsuji, X. Li, M. Caricato, A. V. Marenich, 
 J. Bloino, B. G. Janesko, R. Gomperts, B. Mennucci, H. P. Hratchian, 
 J. V. Ortiz, A. F. Izmaylov, J. L. Sonnenberg, D. Williams-Young, 
 F. Ding, F. Lipparini, F. Egidi, J. Goings, B. Peng, A. Petrone, 
 T. Henderson, D. Ranasinghe, V. G. Zakrzewski, J. Gao, N. Rega, 
 G. Zheng, W. Liang, M. Hada, M. Ehara, K. Toyota, R. Fukuda, 
 J. Hasegawa, M. Ishida, T. Nakajima, Y. Honda, O. Kitao, H. Nakai, 
 T. Vreven, K. Throssell, J. A. Montgomery, Jr., J. E. Peralta, 
 F. Ogliaro, M. J. Bearpark, J. J. Heyd, E. N. Brothers, K. N. Kudin, 
 V. N. Staroverov, T. A. Keith, R. Kobayashi, J. Normand, 
 K. Raghavachari, A. P. Rendell, J. C. Burant, S. S. Iyengar, 
 J. Tomasi, M. Cossi, J. M. Millam, M. Klene, C. Adamo, R. Cammi, 
 J. W. Ochterski, R. L. Martin, K. Morokuma, O. Farkas, 
 J. B. Foresman, and D. J. Fox, Gaussian, Inc., Wallingford CT, 2016.
 
 ******************************************
 Gaussian 16:  EM64L-G16RevA.03 25-Dec-2016
                18-Jan-2021 
 ******************************************
 %mem=30GB
 %nproc=8
 Will use up to    8 processors via shared memory.
 ----------------------------------------------------------------------
 #P LC-wHPBE/TZVP iop(3/107=0176500000, 3/108=0176500000) scf=(conver=6
 ,fermi,ndamp=35,noincfock,novaracc,vshift=500,xqc)
 ----------------------------------------------------------------------
 1/38=1,172=1/1;
 2/12=2,17=6,18=5,40=1/2;
 3/5=19,7=101,11=2,25=1,30=1,74=-71,107=176500000,108=176500000/1,2,3;
 4//1;
 5/5=100002,6=6,8=3,10=500,13=1,18=-1,22=13,38=1,93=35/2,8;
 6/7=2,8=2,9=2,10=2,28=1/1;
 99/5=1,9=1/99;
 Leave Link    1 at Mon Jan 18 21:53:22 2021, MaxMem=  4026531840 cpu:               1.9 elap:               0.3
 (Enter /opt/ohpc/pub/libs/gaussian/g16-A.03/sandybridge/g16/l101.exe)
 ----------------
 H19 C24 S2 N1 O2
 ----------------
 Symbolic Z-matrix:
 Charge =  1 Multiplicity = 2
 C                    -6.54463  -1.19388   0.12701 
 C                    -5.28347  -0.64791   0.13152 
 S                    -3.66592  -1.10732   1.04298 
 C                    -4.99682   0.48658  -0.53783 
 C                    -1.47569   0.03689   0.22175 
 C                    -1.77229  -1.09444   0.89285 
 C                    -7.5174   -0.5494   -0.6189 
 C                    -5.9512    1.15992  -1.26234 
 H                    -2.84341   1.34552  -1.33258 
 C                    -0.18608   0.431    -0.02846 
 C                    -0.77363  -1.91254   1.36681 
 C                     0.53691  -1.55205   1.12466 
 C                     0.84559  -0.38716   0.42544 
 H                     0.04543   1.33981  -0.56742 
 H                    -0.98698  -2.81642   1.92325 
 H                     1.34269  -2.17537   1.48462 
 C                    -7.22375   0.61523  -1.30625 
 H                    -6.78246  -2.09767   0.67335 
 H                    -3.81578  -2.43941   0.92831 
 H                    -8.51755  -0.95829  -0.66353 
 H                    -5.73006   2.07799  -1.79155 
 H                    -7.99725   1.10543  -1.88147 
 S                    -3.16608   0.85165  -0.12406 
 N                     2.18289  -0.04448   0.18491 
 C                     3.1465   -1.04492  -0.06717 
 C                     4.39201  -0.9891    0.53934 
 C                     2.87869  -2.09032  -0.93036 
 C                     5.34549  -1.94613   0.2859 
 C                     3.82261  -3.067    -1.17035 
 C                     5.06227  -2.9953   -0.56764 
 H                     4.61294  -0.17489   1.21512 
 H                     1.9137   -2.14552  -1.41407 
 H                     6.31716  -1.9016    0.75556 
 H                     3.59139  -3.88159  -1.84538 
 C                     2.5754    1.31029   0.12319 
 C                     3.39168   1.76327  -0.89498 
 C                     2.16404   2.21196   1.09371 
 C                     3.79684   3.0814   -0.94207 
 C                     2.5441    3.53118   1.03888 
 C                     3.36881   3.97202   0.02073 
 H                     3.72384   1.07184  -1.6564 
 H                     1.52954   1.86849   1.89861 
 H                     4.44276   3.41523  -1.74453 
 H                     2.22072   4.2347    1.79197 
 O                     3.72625   5.28132   0.01926 
 H                     4.2942    5.46604  -0.72813 
 O                     6.03297  -3.92081  -0.77614 
 H                     5.72108  -4.59379  -1.38039 
 
 ITRead=  0  0  0  0  0  0  0  0  0  0  0  0  0  0  0  0  0  0  0  0
 ITRead=  0  0  0  0  0  0  0  0  0  0  0  0  0  0  0  0  0  0  0  0
 ITRead=  0  0  0  0  0  0  0  0
 MicOpt= -1 -1 -1 -1 -1 -1 -1 -1 -1 -1 -1 -1 -1 -1 -1 -1 -1 -1 -1 -1
 MicOpt= -1 -1 -1 -1 -1 -1 -1 -1 -1 -1 -1 -1 -1 -1 -1 -1 -1 -1 -1 -1
 MicOpt= -1 -1 -1 -1 -1 -1 -1 -1
 NAtoms=     48 NQM=       48 NQMF=       0 NMMI=      0 NMMIF=      0
                NMic=       0 NMicF=      0.
                    Isotopes and Nuclear Properties:
 (Nuclear quadrupole moments (NQMom) in fm**2, nuclear magnetic moments (NMagM)
  in nuclear magnetons)

  Atom         1           2           3           4           5           6           7           8           9          10
 IAtWgt=          12          12          32          12          12          12          12          12           1          12
 AtmWgt=  12.0000000  12.0000000  31.9720718  12.0000000  12.0000000  12.0000000  12.0000000  12.0000000   1.0078250  12.0000000
 NucSpn=           0           0           0           0           0           0           0           0           1           0
 AtZEff=  -0.0000000  -0.0000000  -0.0000000  -0.0000000  -0.0000000  -0.0000000  -0.0000000  -0.0000000  -0.0000000  -0.0000000
 NQMom=    0.0000000   0.0000000   0.0000000   0.0000000   0.0000000   0.0000000   0.0000000   0.0000000   0.0000000   0.0000000
 NMagM=    0.0000000   0.0000000   0.0000000   0.0000000   0.0000000   0.0000000   0.0000000   0.0000000   2.7928460   0.0000000
 AtZNuc=   6.0000000   6.0000000  16.0000000   6.0000000   6.0000000   6.0000000   6.0000000   6.0000000   1.0000000   6.0000000

  Atom        11          12          13          14          15          16          17          18          19          20
 IAtWgt=          12          12          12           1           1           1          12           1           1           1
 AtmWgt=  12.0000000  12.0000000  12.0000000   1.0078250   1.0078250   1.0078250  12.0000000   1.0078250   1.0078250   1.0078250
 NucSpn=           0           0           0           1           1           1           0           1           1           1
 AtZEff=  -0.0000000  -0.0000000  -0.0000000  -0.0000000  -0.0000000  -0.0000000  -0.0000000  -0.0000000  -0.0000000  -0.0000000
 NQMom=    0.0000000   0.0000000   0.0000000   0.0000000   0.0000000   0.0000000   0.0000000   0.0000000   0.0000000   0.0000000
 NMagM=    0.0000000   0.0000000   0.0000000   2.7928460   2.7928460   2.7928460   0.0000000   2.7928460   2.7928460   2.7928460
 AtZNuc=   6.0000000   6.0000000   6.0000000   1.0000000   1.0000000   1.0000000   6.0000000   1.0000000   1.0000000   1.0000000

  Atom        21          22          23          24          25          26          27          28          29          30
 IAtWgt=           1           1          32          14          12          12          12          12          12          12
 AtmWgt=   1.0078250   1.0078250  31.9720718  14.0030740  12.0000000  12.0000000  12.0000000  12.0000000  12.0000000  12.0000000
 NucSpn=           1           1           0           2           0           0           0           0           0           0
 AtZEff=  -0.0000000  -0.0000000  -0.0000000  -0.0000000  -0.0000000  -0.0000000  -0.0000000  -0.0000000  -0.0000000  -0.0000000
 NQMom=    0.0000000   0.0000000   0.0000000   2.0440000   0.0000000   0.0000000   0.0000000   0.0000000   0.0000000   0.0000000
 NMagM=    2.7928460   2.7928460   0.0000000   0.4037610   0.0000000   0.0000000   0.0000000   0.0000000   0.0000000   0.0000000
 AtZNuc=   1.0000000   1.0000000  16.0000000   7.0000000   6.0000000   6.0000000   6.0000000   6.0000000   6.0000000   6.0000000

  Atom        31          32          33          34          35          36          37          38          39          40
 IAtWgt=           1           1           1           1          12          12          12          12          12          12
 AtmWgt=   1.0078250   1.0078250   1.0078250   1.0078250  12.0000000  12.0000000  12.0000000  12.0000000  12.0000000  12.0000000
 NucSpn=           1           1           1           1           0           0           0           0           0           0
 AtZEff=  -0.0000000  -0.0000000  -0.0000000  -0.0000000  -0.0000000  -0.0000000  -0.0000000  -0.0000000  -0.0000000  -0.0000000
 NQMom=    0.0000000   0.0000000   0.0000000   0.0000000   0.0000000   0.0000000   0.0000000   0.0000000   0.0000000   0.0000000
 NMagM=    2.7928460   2.7928460   2.7928460   2.7928460   0.0000000   0.0000000   0.0000000   0.0000000   0.0000000   0.0000000
 AtZNuc=   1.0000000   1.0000000   1.0000000   1.0000000   6.0000000   6.0000000   6.0000000   6.0000000   6.0000000   6.0000000

  Atom        41          42          43          44          45          46          47          48
 IAtWgt=           1           1           1           1          16           1          16           1
 AtmWgt=   1.0078250   1.0078250   1.0078250   1.0078250  15.9949146   1.0078250  15.9949146   1.0078250
 NucSpn=           1           1           1           1           0           1           0           1
 AtZEff=  -0.0000000  -0.0000000  -0.0000000  -0.0000000  -0.0000000  -0.0000000  -0.0000000  -0.0000000
 NQMom=    0.0000000   0.0000000   0.0000000   0.0000000   0.0000000   0.0000000   0.0000000   0.0000000
 NMagM=    2.7928460   2.7928460   2.7928460   2.7928460   0.0000000   2.7928460   0.0000000   2.7928460
 AtZNuc=   1.0000000   1.0000000   1.0000000   1.0000000   8.0000000   1.0000000   8.0000000   1.0000000
 Leave Link  101 at Mon Jan 18 21:53:22 2021, MaxMem=  4026531840 cpu:               0.8 elap:               0.1
 (Enter /opt/ohpc/pub/libs/gaussian/g16-A.03/sandybridge/g16/l202.exe)
                          Input orientation:                          
 ---------------------------------------------------------------------
 Center     Atomic      Atomic             Coordinates (Angstroms)
 Number     Number       Type             X           Y           Z
 ---------------------------------------------------------------------
      1          6           0       -6.544630   -1.193879    0.127010
      2          6           0       -5.283469   -0.647909    0.131523
      3         16           0       -3.665919   -1.107322    1.042984
      4          6           0       -4.996815    0.486583   -0.537830
      5          6           0       -1.475687    0.036886    0.221747
      6          6           0       -1.772288   -1.094442    0.892846
      7          6           0       -7.517398   -0.549399   -0.618903
      8          6           0       -5.951198    1.159916   -1.262339
      9          1           0       -2.843406    1.345523   -1.332578
     10          6           0       -0.186077    0.430997   -0.028463
     11          6           0       -0.773630   -1.912541    1.366813
     12          6           0        0.536910   -1.552052    1.124661
     13          6           0        0.845585   -0.387156    0.425435
     14          1           0        0.045427    1.339810   -0.567415
     15          1           0       -0.986976   -2.816418    1.923251
     16          1           0        1.342687   -2.175375    1.484620
     17          6           0       -7.223748    0.615229   -1.306247
     18          1           0       -6.782458   -2.097666    0.673346
     19          1           0       -3.815781   -2.439410    0.928305
     20          1           0       -8.517553   -0.958288   -0.663525
     21          1           0       -5.730059    2.077989   -1.791552
     22          1           0       -7.997253    1.105431   -1.881471
     23         16           0       -3.166075    0.851646   -0.124057
     24          7           0        2.182887   -0.044483    0.184905
     25          6           0        3.146505   -1.044921   -0.067172
     26          6           0        4.392012   -0.989098    0.539344
     27          6           0        2.878694   -2.090316   -0.930362
     28          6           0        5.345494   -1.946131    0.285899
     29          6           0        3.822608   -3.066997   -1.170354
     30          6           0        5.062274   -2.995295   -0.567641
     31          1           0        4.612943   -0.174890    1.215121
     32          1           0        1.913696   -2.145516   -1.414069
     33          1           0        6.317156   -1.901598    0.755555
     34          1           0        3.591387   -3.881585   -1.845380
     35          6           0        2.575405    1.310294    0.123192
     36          6           0        3.391681    1.763268   -0.894977
     37          6           0        2.164040    2.211964    1.093710
     38          6           0        3.796835    3.081396   -0.942072
     39          6           0        2.544098    3.531176    1.038879
     40          6           0        3.368807    3.972023    0.020733
     41          1           0        3.723839    1.071840   -1.656403
     42          1           0        1.529535    1.868488    1.898614
     43          1           0        4.442764    3.415230   -1.744528
     44          1           0        2.220724    4.234697    1.791974
     45          8           0        3.726245    5.281320    0.019257
     46          1           0        4.294203    5.466041   -0.728132
     47          8           0        6.032969   -3.920806   -0.776143
     48          1           0        5.721078   -4.593785   -1.380389
 ---------------------------------------------------------------------
                    Distance matrix (angstroms):
                    1          2          3          4          5
     1  C    0.000000
     2  C    1.374275   0.000000
     3  S    3.022164   1.912666   0.000000
     4  C    2.379432   1.348064   2.609749   0.000000
     5  C    5.217082   3.869921   2.603989   3.630086   0.000000
     6  C    4.834422   3.620414   1.899617   3.865753   1.348425
     7  C    1.384925   2.358661   4.231671   2.726384   6.128025
     8  C    2.796927   2.378433   3.959467   1.374459   4.847051
     9  H    4.719960   3.474373   3.512303   2.450831   2.449309
    10  C    6.564723   5.212777   3.952686   4.837948   1.371504
    11  C    5.946262   4.843953   3.019698   5.217159   2.367346
    12  C    7.160433   5.973325   4.227083   6.127154   2.718552
    13  C    7.440103   6.141635   4.610171   5.985394   2.368460
    14  H    7.094410   5.730329   4.728206   5.114008   2.152713
    15  H    6.061900   5.135423   3.297365   5.748525   3.357871
    16  H    8.063263   6.933251   5.140225   7.166981   3.798971
    17  C    2.405888   2.725323   4.598284   2.359289   5.975739
    18  H    1.082532   2.154608   3.290931   3.366573   5.737776
    19  H    3.104841   2.449172   1.345388   3.479343   3.479555
    20  H    2.138428   3.344807   5.145166   3.807761   7.166726
    21  H    3.879372   3.365736   4.737243   2.154539   5.130220
    22  H    3.380967   3.806701   5.675312   3.345291   6.935138
    23  S    3.957504   2.607172   2.334392   1.912090   1.908095
    24  N    8.803069   7.490891   6.006202   7.235503   3.659664
    25  C    9.694225   8.441656   6.902569   8.299439   4.755885
    26  C   10.946328   9.690081   8.074521   9.564937   5.965183
    27  C    9.524740   8.356377   6.905963   8.295669   4.981263
    28  C   11.914956  10.709065   9.081979  10.656453   7.103871
    29  C   10.614676   9.511441   8.050915   9.529441   6.296345
    30  C   11.766387  10.631719   9.074134  10.644700   7.249979
    31  H   11.256721   9.966790   8.332984   9.790701   6.172767
    32  H    8.650076   7.512048   6.184421   7.446536   4.350482
    33  H   12.896568  11.684847  10.018746  11.635385   8.048048
    34  H   10.670189   9.650278   8.289009   9.723569   6.730726
    35  C    9.457586   8.099168   6.756109   7.645519   4.247661
    36  C   10.417267   9.062323   7.861660   8.492605   5.283819
    37  C    9.400809   8.035550   6.708849   7.544316   4.328845
    38  C   11.241299   9.874829   8.785130   9.177404   6.198629
    39  C   10.284096   8.919577   7.751128   8.283775   5.388547
    40  C   11.179180   9.809074   8.736825   9.079863   6.244584
    41  H   10.665622   9.342688   8.163575   8.811557   5.624380
    42  H    8.815260   7.474750   6.048164   7.102054   3.898462
    43  H   12.061068  10.706459   9.694041   9.956844   7.092779
    44  H   10.443801   9.105485   7.984405   8.459859   5.809534
    45  O   12.142104  10.786255   9.823790   9.969535   7.389532
    46  H   12.750141  11.395227  10.474230  10.542971   7.979325
    47  O   12.901466  11.815138  10.261254  11.880152   8.546287
    48  H   12.817145  11.787954  10.302615  11.890890   8.706514
                    6          7          8          9         10
     6  C    0.000000
     7  C    5.965630   0.000000
     8  C    5.214426   2.405982   0.000000
     9  H    3.471777   5.093747   3.114122   0.000000
    10  C    2.385758   7.420112   5.940572   3.098140   0.000000
    11  C    1.375227   7.160980   6.569600   4.710166   2.790015
    12  C    2.365489   8.301639   7.426176   5.085322   2.405180
    13  C    2.751724   8.429499   7.172048   4.438631   1.392740
    14  H    3.370761   7.795389   6.039436   2.988455   1.081667
    15  H    2.154913   7.365347   7.113559   5.600760   3.872510
    16  H    3.349878   9.250390   8.477659   6.152780   3.379307
    17  C    6.121879   1.383846   1.384917   4.440880   7.155102
    18  H    5.114337   2.146433   3.879396   5.603161   7.099219
    19  H    2.446643   4.434858   4.723778   4.514734   4.725399
    20  H    6.923830   1.081430   3.381057   6.160448   8.470355
    21  H    5.738838   3.387160   1.082510   3.013292   6.046222
    22  H    7.161457   2.136071   2.138372   5.188551   8.056238
    23  S    2.600768   4.598023   3.024504   1.344824   3.011058
    24  N    4.152951   9.746619   8.349157   5.431251   2.425613
    25  C    5.011847  10.689657   9.437051   6.572253   3.644988
    26  C    6.175326  11.973676  10.716637   7.829803   4.826797
    27  C    5.093867  10.514284   9.414946   6.686494   4.069799
    28  C    7.194205  12.970101  11.817776   8.972878   6.028917
    29  C    6.280974  11.629193  10.649063   7.995773   5.441455
    30  C    7.242755  12.815349  11.791732   9.051387   6.290896
    31  H    6.459149  12.273918  10.932547   8.024934   4.994416
    32  H    4.473599   9.598198   8.532612   5.901187   3.601023
    33  H    8.130772  13.968266  12.804580   9.940824   6.953253
    34  H    6.635892  11.662453  10.808219   8.306153   6.014049
    35  C    5.027679  10.289501   8.639749   5.611062   2.902059
    36  C    6.166798  11.154938   9.369545   6.264369   3.914862
    37  C    5.144642  10.212170   8.515566   5.631351   3.155022
    38  C    7.198589  11.886925   9.940765   6.874485   4.870614
    39  C    6.328417  10.983307   9.115291   6.279020   4.266636
    40  C    7.270523  11.805162   9.819201   6.879066   5.017817
    41  H    6.434195  11.404834   9.683459   6.580917   4.283493
    42  H    4.548907   9.696962   8.151998   5.462299   2.953529
    43  H    8.119098  12.650328  10.646755   7.585622   5.768596
    44  H    6.719546  11.114447   9.250049   6.614799   4.855390
    45  O    8.464477  12.681642  10.596290   7.776778   6.231707
    46  H    9.081290  13.255616  11.126380   8.263745   6.775995
    47  O    8.467343  13.964367  13.025758  10.336047   7.627172
    48  H    8.576919  13.863411  13.013879  10.422478   7.872142
                   11         12         13         14         15
    11  C    0.000000
    12  C    1.380618   0.000000
    13  C    2.415543   1.393262   0.000000
    14  H    3.871677   3.386376   2.146722   0.000000
    15  H    1.082651   2.135087   3.391614   4.954140   0.000000
    16  H    2.135827   1.080453   2.136986   4.272032   2.455741
    17  C    7.425557   8.416308   8.313702   7.342465   7.816853
    18  H    6.051544   7.353538   7.821403   7.744401   5.972142
    19  H    3.118423   4.446558   5.117906   5.606122   3.022282
    20  H    8.062333   9.248430   9.443536   8.866517   8.176408
    21  H    7.103928   7.807458   7.364174   5.949761   7.762204
    22  H    8.475862   9.430323   9.259882   8.152691   8.888239
    23  S    3.948065   4.587936   4.234382   3.278508   4.732297
    24  N    3.691550   2.421806   1.401305   2.655370   4.555601
    25  C    4.263395   2.913354   2.443266   3.943839   4.917891
    26  C    5.312373   3.939711   3.598952   5.053863   5.847034
    27  C    4.318343   3.161772   2.978669   4.463731   4.859397
    28  C    6.213951   4.897071   4.764352   6.294145   6.598371
    29  C    5.375443   4.284619   4.311700   5.835287   5.724096
    30  C    6.242775   5.042396   5.056585   6.630376   6.544461
    31  H    5.661944   4.303348   3.855081   5.131662   6.232031
    32  H    3.874184   2.948371   2.759795   4.044101   4.472327
    33  H    7.117092   5.802557   5.686880   7.182727   7.453238
    34  H    5.766168   4.855687   4.990698   6.439720   6.024829
    35  C    4.811371   3.653960   2.442328   2.622708   5.741126
    36  C    5.998090   4.818714   3.584748   3.388809   6.934592
    37  C    5.071098   4.100771   2.990040   2.829931   5.991800
    38  C    7.152587   6.030534   4.755082   4.152897   8.116596
    39  C    6.383488   5.465837   4.314462   3.691290   7.317277
    40  C    7.321189   6.305054   5.053006   4.280107   8.287059
    41  H    6.186565   4.977514   3.840191   3.845571   7.079848
    42  H    4.459099   3.644777   2.779564   2.926325   5.318062
    43  H    8.079378   6.939873   5.666266   5.002953   9.042572
    44  H    6.850945   6.063580   5.011982   4.321921   7.747567
    45  O    8.591648   7.621598   6.371405   5.424768   9.561015
    46  H    9.193215   8.173354   6.890834   5.924838  10.174469
    47  O    7.413176   6.279388   6.390573   7.972974   7.601712
    48  H    7.544363   6.511760   6.687837   8.251151   7.685770
                   16         17         18         19         20
    16  H    0.000000
    17  C    9.431872   0.000000
    18  H    8.165916   3.387230   0.000000
    19  H    5.195093   5.092964   2.997160   0.000000
    20  H   10.164653   2.136113   2.469000   5.180184   0.000000
    21  H    8.879648   2.146228   4.961790   5.609722   4.273353
    22  H   10.456038   1.081430   4.273482   6.159988   2.452150
    23  S    5.663888   4.232987   4.734186   3.515769   5.674963
    24  N    2.633609   9.546912   9.210404   6.501718  10.772850
    25  C    2.634339  10.575138  10.012040   7.170007  11.679614
    26  C    3.405757  11.870381  11.230123   8.344014  12.965520
    27  C    2.863336  10.465209   9.793354   6.956472  11.455441
    28  C    4.184728  12.925995  12.135085   9.197009  13.930589
    29  C    3.740840  11.644709  10.807694   7.946271  12.529290
    30  C    4.326589  12.826837  11.943344   9.020351  13.732090
    31  H    3.843064  12.128019  11.569172   8.732337  13.287323
    32  H    2.954546   9.546006   8.943304   6.196773  10.525388
    33  H    5.035060  13.926289  13.101339  10.148670  14.932254
    34  H    4.365399  11.725150  10.823262   8.039859  12.512748
    35  C    3.939920   9.927226   9.974290   7.453573  11.349850
    36  C    5.037238  10.685245  10.994524   8.540162  12.218441
    37  C    4.480644   9.820383   9.939288   7.577658  11.279840
    38  C    6.288507  11.299020  11.889226   9.587989  12.963055
    39  C    5.848658  10.460075  10.899639   8.724000  12.058756
    40  C    6.636161  11.190673  11.845472   9.672046  12.886494
    41  H    5.106889  10.962699  11.218546   8.709504  12.448249
    42  H    4.069291   9.405411   9.290903   6.933389  10.747055
    43  H    7.161895  12.005815  12.737494  10.470168  13.721007
    44  H    6.477225  10.578165  11.063789   9.040410  12.178143
    45  O    7.964354  11.976298  12.857298  10.831352  13.758978
    46  H    8.485220  12.511107  13.485779  11.446038  14.332385
    47  O    5.491477  14.021311  13.025361  10.104333  14.849474
    48  H    5.764312  13.953775  12.914598  10.046048  14.712897
                   21         22         23         24         25
    21  H    0.000000
    22  H    2.468628   0.000000
    23  S    3.295219   5.147154   0.000000
    24  N    8.427692  10.451194   5.432301   0.000000
    25  C    9.566579  11.493435   6.591576   1.411729   0.000000
    26  C   10.830347  12.796143   7.807248   2.428612   1.386458
    27  C    9.603491  11.375572   6.770857   2.431748   1.381908
    28  C   11.965668  13.857793   8.968970   3.691686   2.402580
    29  C   10.867852  12.554838   8.080358   3.696079   2.400608
    30  C   11.987936  13.751122   9.094034   4.191001   2.779316
    31  H   11.004237  13.047802   7.959918   2.642636   2.133464
    32  H    8.741137  10.440978   6.037482   2.653963   2.131961
    33  H   12.940644  14.862652   9.913916   4.568008   3.385824
    34  H   11.063850  12.616188   8.427913   4.563911   3.377367
    35  C    8.557823  10.762980   5.765074   1.411843   2.430932
    36  C    9.171098  11.450491   6.665548   2.428022   2.937907
    37  C    8.405920  10.645562   5.634141   2.432660   3.594466
    38  C    9.617180  11.995308   7.356837   3.694053   4.267888
    39  C    8.864805  11.204140   6.413921   3.693925   4.746252
    40  C    9.468955  11.875313   7.243093   4.191143   5.022636
    41  H    9.508248  11.723301   7.061691   2.647853   2.709178
    42  H    8.146344  10.277694   5.212861   2.650118   3.868702
    43  H   10.260446  12.653377   8.190990   4.560633   4.938295
    44  H    8.983763  11.300157   6.643328   4.571158   5.673435
    45  O   10.147021  12.589330   8.194304   5.547393   6.353337
    46  H   10.634641  13.092937   8.792798   5.971362   6.644299
    47  O   13.243316  14.944294  10.383830   5.547308   4.135823
    48  H   13.259342  14.863538  10.498218   5.972026   4.576833
                   26         27         28         29         30
    26  C    0.000000
    27  C    2.379674   0.000000
    28  C    1.374509   2.754121   0.000000
    29  C    2.750446   1.379303   2.386670   0.000000
    30  C    2.387361   2.391354   1.381843   1.380281   0.000000
    31  H    1.080935   3.358508   2.130112   3.831371   3.366723
    32  H    3.360830   1.080852   3.834955   2.133652   3.369289
    33  H    2.141397   3.834182   1.080133   3.360067   2.126441
    34  H    3.833326   2.133971   3.371235   1.082902   2.140476
    35  C    2.959805   3.572969   4.278337   4.731749   5.019947
    36  C    3.260898   3.887739   4.355628   4.857262   5.053905
    37  C    3.939287   4.808036   5.297543   5.978651   6.186711
    38  C    4.372385   5.252592   5.402063   6.152683   6.218336
    39  C    4.908890   5.965822   6.198039   7.074686   7.177530
    40  C    5.092016   6.156033   6.245170   7.153490   7.194271
    41  H    3.084676   3.352706   3.938331   4.168449   4.417963
    42  H    4.266988   5.049303   5.631493   6.247860   6.497618
    43  H    4.961527   5.781022   5.803598   6.537089   6.547036
    44  H    5.794101   6.917357   7.087671   8.040905   8.118804
    45  O    6.327075   7.480718   7.411418   8.433200   8.404271
    46  H    6.579125   7.690455   7.554718   8.557494   8.497641
    47  O    3.608068   3.650196   2.345186   2.402101   1.357311
    48  H    4.294829   3.814319   3.150817   2.445278   1.910432
                   31         32         33         34         35
    31  H    0.000000
    32  H    4.252287   0.000000
    33  H    2.469223   4.915000   0.000000
    34  H    4.914248   2.452471   4.256175   0.000000
    35  C    2.747661   3.839746   4.971603   5.644741   0.000000
    36  C    3.114555   4.210996   4.971308   5.727784   1.381362
    37  C    3.421833   5.033812   5.855264   6.914254   1.387132
    38  C    3.990352   5.575805   5.836453   7.024335   2.400725
    39  C    4.248071   6.216043   6.620519   8.022767   2.402453
    40  C    4.491250   6.449829   6.613029   8.075338   2.779350
    41  H    3.254304   3.699557   4.624302   4.958798   2.131366
    42  H    3.761643   5.218590   6.200117   7.164640   2.134841
    43  H    4.655904   6.117784   6.167043   7.347008   3.377301
    44  H    5.049745   7.147034   7.450439   8.999061   3.385671
    45  O    5.655665   7.778024   7.671327   9.351678   4.135732
    46  H    5.974774   8.004569   7.783044   9.440355   4.577035
    47  O    4.473644   4.530675   2.550306   2.665732   6.334663
    48  H    5.243212   4.526733   3.487899   2.293257   6.856687
                   36         37         38         39         40
    36  C    0.000000
    37  C    2.379770   0.000000
    38  C    1.379793   2.750698   0.000000
    39  C    2.753851   1.373962   2.386591   0.000000
    40  C    2.391160   2.387583   1.379644   1.382430   0.000000
    41  H    1.080820   3.360949   2.133990   3.834667   3.368960
    42  H    3.358989   1.080945   3.831617   2.129088   3.366633
    43  H    2.134360   3.833540   1.082869   3.371310   2.139988
    44  H    3.833902   2.140615   3.359946   1.080123   2.127061
    45  O    3.650267   3.607753   2.401833   2.345230   1.357211
    46  H    3.814828   4.294848   2.445338   3.151015   1.910300
    47  O    6.268909   7.488380   7.352459   8.426064   8.368364
    48  H    6.787771   8.067955   7.924849   9.053234   8.992741
                   41         42         43         44         45
    41  H    0.000000
    42  H    4.252971   0.000000
    43  H    2.452773   4.914448   0.000000
    44  H    4.914705   2.467399   4.256270   0.000000
    45  O    4.530735   4.472688   2.665826   2.550400   0.000000
    46  H    4.527251   5.242668   2.293678   3.488045   0.956707
    47  O    5.570768   7.807123   7.568616   9.361659   9.520124
    48  H    6.013689   8.371491   8.118559  10.012915  10.171336
                   46         47         48
    46  H    0.000000
    47  O    9.546649   0.000000
    48  H   10.181430   0.956708   0.000000
 Stoichiometry    C24H19NO2S2(1+,2)
 Framework group  C1[X(C24H19NO2S2)]
 Deg. of freedom   138
 Full point group                 C1      NOp   1
 Largest Abelian subgroup         C1      NOp   1
 Largest concise Abelian subgroup C1      NOp   1
                         Standard orientation:                         
 ---------------------------------------------------------------------
 Center     Atomic      Atomic             Coordinates (Angstroms)
 Number     Number       Type             X           Y           Z
 ---------------------------------------------------------------------
      1          6           0        6.544630   -1.193879   -0.127010
      2          6           0        5.283469   -0.647909   -0.131523
      3         16           0        3.665919   -1.107322   -1.042984
      4          6           0        4.996815    0.486583    0.537830
      5          6           0        1.475687    0.036886   -0.221747
      6          6           0        1.772288   -1.094442   -0.892846
      7          6           0        7.517398   -0.549399    0.618903
      8          6           0        5.951198    1.159916    1.262339
      9          1           0        2.843406    1.345523    1.332578
     10          6           0        0.186077    0.430997    0.028463
     11          6           0        0.773630   -1.912541   -1.366813
     12          6           0       -0.536910   -1.552052   -1.124661
     13          6           0       -0.845585   -0.387156   -0.425435
     14          1           0       -0.045427    1.339810    0.567415
     15          1           0        0.986976   -2.816418   -1.923251
     16          1           0       -1.342687   -2.175375   -1.484620
     17          6           0        7.223748    0.615229    1.306247
     18          1           0        6.782458   -2.097666   -0.673346
     19          1           0        3.815781   -2.439410   -0.928305
     20          1           0        8.517553   -0.958288    0.663525
     21          1           0        5.730059    2.077989    1.791552
     22          1           0        7.997253    1.105431    1.881471
     23         16           0        3.166075    0.851646    0.124057
     24          7           0       -2.182887   -0.044483   -0.184905
     25          6           0       -3.146505   -1.044921    0.067172
     26          6           0       -4.392012   -0.989098   -0.539344
     27          6           0       -2.878694   -2.090316    0.930362
     28          6           0       -5.345494   -1.946131   -0.285899
     29          6           0       -3.822608   -3.066997    1.170354
     30          6           0       -5.062274   -2.995295    0.567641
     31          1           0       -4.612943   -0.174890   -1.215121
     32          1           0       -1.913696   -2.145516    1.414069
     33          1           0       -6.317156   -1.901598   -0.755555
     34          1           0       -3.591387   -3.881585    1.845380
     35          6           0       -2.575405    1.310294   -0.123192
     36          6           0       -3.391681    1.763268    0.894977
     37          6           0       -2.164040    2.211964   -1.093710
     38          6           0       -3.796835    3.081396    0.942072
     39          6           0       -2.544098    3.531176   -1.038879
     40          6           0       -3.368807    3.972023   -0.020733
     41          1           0       -3.723839    1.071840    1.656403
     42          1           0       -1.529535    1.868488   -1.898614
     43          1           0       -4.442764    3.415230    1.744528
     44          1           0       -2.220724    4.234697   -1.791974
     45          8           0       -3.726245    5.281320   -0.019257
     46          1           0       -4.294203    5.466041    0.728132
     47          8           0       -6.032969   -3.920806    0.776143
     48          1           0       -5.721078   -4.593785    1.380389
 ---------------------------------------------------------------------
 Rotational constants (GHZ):           0.2280536           0.0702108           0.0568934
 Leave Link  202 at Mon Jan 18 21:53:22 2021, MaxMem=  4026531840 cpu:               0.3 elap:               0.1
 (Enter /opt/ohpc/pub/libs/gaussian/g16-A.03/sandybridge/g16/l301.exe)
 Standard basis: TZVP (5D, 7F)
 Ernie: Thresh=  0.10000D-02 Tol=  0.10000D-05 Strict=F.
 There are   700 symmetry adapted cartesian basis functions of A   symmetry.
 There are   671 symmetry adapted basis functions of A   symmetry.
   671 basis functions,  1191 primitive gaussians,   700 cartesian basis functions
   109 alpha electrons      108 beta electrons
       nuclear repulsion energy      2827.2462800785 Hartrees.
 IExCor=33909 DFT=T Ex+Corr=LC-wHPBE ExCW=0 ScaHFX=  1.000000
 ScaDFX=  1.000000  1.000000  1.000000  1.000000 ScalE2=  1.000000  1.000000
 IRadAn=      5 IRanWt=     -1 IRanGd=            0 ICorTp=0 IEmpDi=  4
 HFx  wShort=  0.000000 wLong=  0.176500 cFull=  0.000000 cShort=  0.000000 cLong=  1.000000
 DFx  wShort=  0.000000 wLong=  0.176500 cFull=  0.000000 cShort=  1.000000 cLong=  0.000000
 NAtoms=   48 NActive=   48 NUniq=   48 SFac= 1.00D+00 NAtFMM=   60 NAOKFM=F Big=F
 Integral buffers will be    131072 words long.
 Raffenetti 2 integral format.
 Two-electron integral symmetry is turned on.
 Leave Link  301 at Mon Jan 18 21:53:22 2021, MaxMem=  4026531840 cpu:               0.4 elap:               0.1
 (Enter /opt/ohpc/pub/libs/gaussian/g16-A.03/sandybridge/g16/l302.exe)
 NPDir=0 NMtPBC=     1 NCelOv=     1 NCel=       1 NClECP=     1 NCelD=      1
         NCelK=      1 NCelE2=     1 NClLst=     1 CellRange=     0.0.
 One-electron integrals computed using PRISM.
 One-electron integral symmetry used in STVInt
 NBasis=   671 RedAO= T EigKep=  6.34D-06  NBF=   671
 NBsUse=   671 1.00D-06 EigRej= -1.00D+00 NBFU=   671
 Precomputing XC quadrature grid using
 IXCGrd= 4 IRadAn=           5 IRanWt=          -1 IRanGd=           0 AccXCQ= 0.00D+00.
 Generated NRdTot=       0 NPtTot=           0 NUsed=           0 NTot=          32
 NSgBfM=   657   657   657   657   657 MxSgAt=    48 MxSgA2=    48.
 Leave Link  302 at Mon Jan 18 21:53:23 2021, MaxMem=  4026531840 cpu:              10.9 elap:               1.4
 (Enter /opt/ohpc/pub/libs/gaussian/g16-A.03/sandybridge/g16/l303.exe)
 DipDrv:  MaxL=1.
 Leave Link  303 at Mon Jan 18 21:53:23 2021, MaxMem=  4026531840 cpu:               0.9 elap:               0.2
 (Enter /opt/ohpc/pub/libs/gaussian/g16-A.03/sandybridge/g16/l401.exe)
 ExpMin= 9.52D-02 ExpMax= 6.07D+04 ExpMxC= 2.07D+03 IAcc=3 IRadAn=         5 AccDes= 0.00D+00
 Harris functional with IExCor=33909 and IRadAn=       5 diagonalized for initial guess.
 HarFok:  IExCor=33909 AccDes= 0.00D+00 IRadAn=         5 IDoV= 1 UseB2=F ITyADJ=14
 ICtDFT=  3500011 ScaDFX=  1.000000  1.000000  1.000000  1.000000
 FoFCou: FMM=F IPFlag=           0 FMFlag=      100000 FMFlg1=           0
         NFxFlg=           0 DoJE=T BraDBF=F KetDBF=T FulRan=T
         wScrn=  0.000000 ICntrl=       500 IOpCl=  0 I1Cent=   200000004 NGrid=           0
         NMat0=    1 NMatS0=      1 NMatT0=    0 NMatD0=    1 NMtDS0=    0 NMtDT0=    0
 Petite list used in FoFCou.
 Harris En= -1905.60320431092    
 JPrj=0 DoOrth=F DoCkMO=F.
 Initial guess <Sx>= 0.0000 <Sy>= 0.0000 <Sz>= 0.5000 <S**2>= 0.7500 S= 0.5000
 Leave Link  401 at Mon Jan 18 21:53:31 2021, MaxMem=  4026531840 cpu:              61.3 elap:               7.7
 (Enter /opt/ohpc/pub/libs/gaussian/g16-A.03/sandybridge/g16/l502.exe)
 Integral symmetry usage will be decided dynamically.
 UHF open shell SCF:
 Using DIIS extrapolation, IDIIS=    10.
 NGot=  4026531840 LenX=  4025539370 LenY=  4025048670
 Requested convergence on RMS density matrix=1.00D-06 within  32 cycles.
 Requested convergence on MAX density matrix=1.00D-04.
 Requested convergence on             energy=1.00D-04.
 Virtual orbitals will be shifted by   0.500 hartree.
 No special actions if energy rises.
 Dynamic level shift is on during FON iterations.

 Cycle   1  Pass 1  IDiag  1:
 FoFJK:  IHMeth= 1 ICntrl=       0 DoSepK=T KAlg= 0 I1Cent=           0 FoldK=F
 IRaf=         1 NMat=       1 IRICut=       1 DoRegI=T DoRafI=F ISym2E= 0 IDoP0=0 IntGTp=1.
 FoFCou: FMM=F IPFlag=           0 FMFlag=      100000 FMFlg1=           0
         NFxFlg=           0 DoJE=T BraDBF=F KetDBF=F FulRan=T
         wScrn=  0.000000 ICntrl=       500 IOpCl=  0 I1Cent=           0 NGrid=           0
         NMat0=    1 NMatS0=      1 NMatT0=    0 NMatD0=    1 NMtDS0=    0 NMtDT0=    0
 Symmetry not used in FoFCou.
 E= -1925.52165063617    
 DIIS: error= 1.98D-02 at cycle   1 NSaved=   1.
 NSaved= 1 IEnMin= 1 EnMin= -1925.52165063617     IErMin= 1 ErrMin= 1.98D-02
 ErrMax= 1.98D-02  0.00D+00 EMaxC= 1.00D+00 BMatC= 2.69D+00 BMatP= 2.69D+00
 IDIUse=1 WtCom= 1.00D+00 WtEn= 0.00D+00
 Coeff-Com:  0.100D+01
 Coeff:      0.100D+01
 Gap=     0.514 Goal=   None    Shift=    0.500
 T= 1245. Gap= 0.523 NK=0 IS=  110 IE=  671 IFin=  109
          NO(<0.9)=   0  NV(>0.1)=   0    109.00e < EF      0.00e >EF  Err=0.0D+00
 Gap=    -0.021 Goal=   None    Shift=    0.500
 T= 1245. Gap= 0.414 NK=0 IS=  109 IE=  671 IFin=  108
          NO(<0.9)=   0  NV(>0.1)=   0    108.00e < EF      0.00e >EF  Err=0.0D+00
 GapD=   -0.021 DampG=0.250 DampE=0.500 DampFc=0.1250 IDamp=-1.
 Damping current iteration by 1.25D-01
 RMSDP=4.29D-03 MaxDP=3.85D-01              OVMax= 1.04D-01

 Cycle   2  Pass 1  IDiag  1:
 E= -1925.65239927351     Delta-E=       -0.130748637344 Rises=F Damp=T
 DIIS: error= 1.70D-02 at cycle   2 NSaved=   2.
 NSaved= 2 IEnMin= 2 EnMin= -1925.65239927351     IErMin= 2 ErrMin= 1.70D-02
 ErrMax= 1.70D-02  0.00D+00 EMaxC= 1.00D+00 BMatC= 1.87D+00 BMatP= 2.69D+00
 IDIUse=1 WtCom= 1.00D+00 WtEn= 0.00D+00
 Coeff-Com: -0.477D+01 0.577D+01
 Coeff:     -0.477D+01 0.577D+01
 Gap=     0.212 Goal=   None    Shift=    0.500
 T= 1217. Gap= 0.685 NK=4 IS=  110 IE=  120 IFin=  109
          NO(<0.9)=   0  NV(>0.1)=   0    109.00e < EF      0.00e >EF  Err=0.0D+00
 Gap=     0.075 Goal=   None    Shift=    0.500
 T= 1217. Gap= 0.556 NK=4 IS=  109 IE=  120 IFin=  108
          NO(<0.9)=   0  NV(>0.1)=   0    108.00e < EF      0.00e >EF  Err=0.0D+00
 GapD=    0.075 DampG=0.500 DampE=0.500 DampFc=0.2500 IDamp=-1.
 Damping current iteration by 2.50D-01
 RMSDP=3.51D-03 MaxDP=3.33D-01 DE=-1.31D-01 OVMax= 2.78D-02

 Cycle   3  Pass 1  IDiag  1:
 E= -1925.83532990966     Delta-E=       -0.182930636151 Rises=F Damp=T
 DIIS: error= 1.24D-02 at cycle   3 NSaved=   3.
 NSaved= 3 IEnMin= 3 EnMin= -1925.83532990966     IErMin= 3 ErrMin= 1.24D-02
 ErrMax= 1.24D-02  0.00D+00 EMaxC= 1.00D+00 BMatC= 9.64D-01 BMatP= 1.87D+00
 IDIUse=1 WtCom= 1.00D+00 WtEn= 0.00D+00
 Coeff-Com:  0.122D+00-0.272D+01 0.359D+01
 Coeff:      0.122D+00-0.272D+01 0.359D+01
 Gap=     0.214 Goal=   None    Shift=    0.500
 T= 1133. Gap= 0.713 NK=4 IS=  110 IE=  121 IFin=  109
          NO(<0.9)=   0  NV(>0.1)=   0    109.00e < EF      0.00e >EF  Err=0.0D+00
 Gap=     0.080 Goal=   None    Shift=    0.500
 T= 1133. Gap= 0.579 NK=4 IS=  109 IE=  121 IFin=  108
          NO(<0.9)=   0  NV(>0.1)=   0    108.00e < EF      0.00e >EF  Err=0.0D+00
 GapD=    0.080 DampG=0.500 DampE=0.500 DampFc=0.2500 IDamp=-1.
 Damping current iteration by 2.50D-01
 RMSDP=2.47D-03 MaxDP=2.20D-01 DE=-1.83D-01 OVMax= 1.53D-02

 Cycle   4  Pass 1  IDiag  1:
 E= -1925.94543772411     Delta-E=       -0.110107814450 Rises=F Damp=T
 DIIS: error= 9.25D-03 at cycle   4 NSaved=   4.
 NSaved= 4 IEnMin= 4 EnMin= -1925.94543772411     IErMin= 4 ErrMin= 9.25D-03
 ErrMax= 9.25D-03  0.00D+00 EMaxC= 1.00D+00 BMatC= 5.20D-01 BMatP= 9.64D-01
 IDIUse=1 WtCom= 1.00D+00 WtEn= 0.00D+00
 Coeff-Com:  0.500D+00-0.737D+00-0.268D+01 0.392D+01
 Coeff:      0.500D+00-0.737D+00-0.268D+01 0.392D+01
 Gap=     0.215 Goal=   None    Shift=    0.500
 T=  989. Gap= 0.715 NK=4 IS=  110 IE=  121 IFin=  109
          NO(<0.9)=   0  NV(>0.1)=   0    109.00e < EF      0.00e >EF  Err=0.0D+00
 Gap=     0.082 Goal=   None    Shift=    0.500
 T=  989. Gap= 0.582 NK=4 IS=  109 IE=  121 IFin=  108
          NO(<0.9)=   0  NV(>0.1)=   0    108.00e < EF      0.00e >EF  Err=0.0D+00
 GapD=    0.082 DampG=0.500 DampE=1.000 DampFc=0.5000 IDamp=-1.
 Damping current iteration by 5.00D-01
 RMSDP=1.75D-03 MaxDP=1.41D-01 DE=-1.10D-01 OVMax= 1.41D-02

 Cycle   5  Pass 1  IDiag  1:
 E= -1926.07982003532     Delta-E=       -0.134382311205 Rises=F Damp=T
 DIIS: error= 4.78D-03 at cycle   5 NSaved=   5.
 NSaved= 5 IEnMin= 5 EnMin= -1926.07982003532     IErMin= 5 ErrMin= 4.78D-03
 ErrMax= 4.78D-03  0.00D+00 EMaxC= 1.00D+00 BMatC= 1.24D-01 BMatP= 5.20D-01
 IDIUse=1 WtCom= 1.00D+00 WtEn= 0.00D+00
 Coeff-Com:  0.540D-01 0.317D+00-0.658D+00-0.890D+00 0.218D+01
 Coeff:      0.540D-01 0.317D+00-0.658D+00-0.890D+00 0.218D+01
 Gap=     0.218 Goal=   None    Shift=    0.500
 T=  760. Gap= 0.718 NK=4 IS=  110 IE=  121 IFin=  109
          NO(<0.9)=   0  NV(>0.1)=   0    109.00e < EF      0.00e >EF  Err=0.0D+00
 Gap=     0.083 Goal=   None    Shift=    0.500
 T=  760. Gap= 0.584 NK=4 IS=  109 IE=  121 IFin=  108
          NO(<0.9)=   0  NV(>0.1)=   0    108.00e < EF      0.00e >EF  Err=0.0D+00
 GapD=    0.083 DampG=0.500 DampE=1.000 DampFc=0.5000 IDamp=-1.
 Damping current iteration by 5.00D-01
 RMSDP=8.49D-04 MaxDP=6.09D-02 DE=-1.34D-01 OVMax= 1.38D-02

 Cycle   6  Pass 1  IDiag  1:
 E= -1926.13527904592     Delta-E=       -0.055459010602 Rises=F Damp=T
 DIIS: error= 2.58D-03 at cycle   6 NSaved=   6.
 NSaved= 6 IEnMin= 6 EnMin= -1926.13527904592     IErMin= 6 ErrMin= 2.58D-03
 ErrMax= 2.58D-03  0.00D+00 EMaxC= 1.00D+00 BMatC= 3.07D-02 BMatP= 1.24D-01
 IDIUse=1 WtCom= 1.00D+00 WtEn= 0.00D+00
 Coeff-Com: -0.600D-01 0.191D+00 0.878D-01-0.133D+00-0.175D+01 0.267D+01
 Coeff:     -0.600D-01 0.191D+00 0.878D-01-0.133D+00-0.175D+01 0.267D+01
 Gap=     0.221 Goal=   None    Shift=    0.500
 T=  482. Gap= 0.721 NK=4 IS=  110 IE=  121 IFin=  109
          NO(<0.9)=   0  NV(>0.1)=   0    109.00e < EF      0.00e >EF  Err=0.0D+00
 Gap=     0.085 Goal=   None    Shift=    0.500
 T=  482. Gap= 0.586 NK=4 IS=  109 IE=  121 IFin=  108
          NO(<0.9)=   0  NV(>0.1)=   0    108.00e < EF      0.00e >EF  Err=0.0D+00
 GapD=    0.085 DampG=0.500 DampE=1.000 DampFc=0.5000 IDamp=-1.
 Damping current iteration by 5.00D-01
 RMSDP=4.31D-04 MaxDP=2.87D-02 DE=-5.55D-02 OVMax= 1.35D-02

 Cycle   7  Pass 1  IDiag  1:
 E= -1926.16054183852     Delta-E=       -0.025262792597 Rises=F Damp=T
 DIIS: error= 2.07D-03 at cycle   7 NSaved=   7.
 NSaved= 7 IEnMin= 7 EnMin= -1926.16054183852     IErMin= 7 ErrMin= 2.07D-03
 ErrMax= 2.07D-03  0.00D+00 EMaxC= 1.00D+00 BMatC= 7.81D-03 BMatP= 3.07D-02
 IDIUse=1 WtCom= 1.00D+00 WtEn= 0.00D+00
 Coeff-Com: -0.160D-01-0.985D-01 0.272D+00 0.344D+00-0.710D+00-0.238D+01
 Coeff-Com:  0.359D+01
 Coeff:     -0.160D-01-0.985D-01 0.272D+00 0.344D+00-0.710D+00-0.238D+01
 Coeff:      0.359D+01
 Gap=     0.223 Goal=   None    Shift=    0.500
 T=  143. Gap= 0.723 NK=4 IS=  110 IE=  121 IFin=  109
          NO(<0.9)=   0  NV(>0.1)=   0    109.00e < EF      0.00e >EF  Err=0.0D+00
 Gap=     0.086 Goal=   None    Shift=    0.500
 T=  143. Gap= 0.587 NK=4 IS=  109 IE=  121 IFin=  108
          NO(<0.9)=   0  NV(>0.1)=   0    108.00e < EF      0.00e >EF  Err=0.0D+00
 GapD=    0.086 DampG=0.500 DampE=1.000 DampFc=0.5000 IDamp=-1.
 Damping current iteration by 5.00D-01
 RMSDP=2.50D-04 MaxDP=1.38D-02 DE=-2.53D-02 OVMax= 1.51D-02

 Cycle   8  Pass 1  IDiag  1:
 E= -1926.17275879660     Delta-E=       -0.012216958080 Rises=F Damp=T
 DIIS: error= 1.94D-03 at cycle   8 NSaved=   8.
 NSaved= 8 IEnMin= 8 EnMin= -1926.17275879660     IErMin= 8 ErrMin= 1.94D-03
 ErrMax= 1.94D-03  0.00D+00 EMaxC= 1.00D+00 BMatC= 2.14D-03 BMatP= 7.81D-03
 IDIUse=1 WtCom= 1.00D+00 WtEn= 0.00D+00
 Coeff-Com:  0.180D-01-0.126D+00 0.124D+00 0.153D+00 0.619D+00-0.231D+01
 Coeff-Com: -0.357D+00 0.288D+01
 Coeff:      0.180D-01-0.126D+00 0.124D+00 0.153D+00 0.619D+00-0.231D+01
 Coeff:     -0.357D+00 0.288D+01
 Gap=     0.225 Goal=   None    Shift=    0.500
 Gap=     0.087 Goal=   None    Shift=    0.500
 GapD=    0.087 DampG=0.500 DampE=1.000 DampFc=0.5000 IDamp=-1.
 Damping current iteration by 5.00D-01
 RMSDP=1.77D-04 MaxDP=1.24D-02 DE=-1.22D-02 OVMax= 1.54D-02

 Cycle   9  Pass 1  IDiag  1:
 E= -1926.17891502155     Delta-E=       -0.006156224958 Rises=F Damp=T
 DIIS: error= 1.87D-03 at cycle   9 NSaved=   9.
 NSaved= 9 IEnMin= 9 EnMin= -1926.17891502155     IErMin= 9 ErrMin= 1.87D-03
 ErrMax= 1.87D-03  0.00D+00 EMaxC= 1.00D+00 BMatC= 6.91D-04 BMatP= 2.14D-03
 IDIUse=1 WtCom= 1.00D+00 WtEn= 0.00D+00
 Coeff-Com: -0.610D-03-0.125D-01 0.248D-01-0.505D-01 0.401D+00-0.416D+00
 Coeff-Com: -0.508D+00-0.137D+01 0.294D+01
 Coeff:     -0.610D-03-0.125D-01 0.248D-01-0.505D-01 0.401D+00-0.416D+00
 Coeff:     -0.508D+00-0.137D+01 0.294D+01
 Gap=     0.227 Goal=   None    Shift=    0.500
 Gap=     0.088 Goal=   None    Shift=    0.500
 GapD=    0.088 DampG=0.500 DampE=1.000 DampFc=0.5000 IDamp=-1.
 Damping current iteration by 5.00D-01
 RMSDP=1.38D-04 MaxDP=1.26D-02 DE=-6.16D-03 OVMax= 1.51D-02

 Cycle  10  Pass 1  IDiag  1:
 E= -1926.18212803346     Delta-E=       -0.003213011902 Rises=F Damp=T
 DIIS: error= 1.83D-03 at cycle  10 NSaved=  10.
 NSaved=10 IEnMin=10 EnMin= -1926.18212803346     IErMin=10 ErrMin= 1.83D-03
 ErrMax= 1.83D-03  0.00D+00 EMaxC= 1.00D+00 BMatC= 2.96D-04 BMatP= 6.91D-04
 IDIUse=1 WtCom= 1.00D+00 WtEn= 0.00D+00
 Coeff-Com: -0.175D-01 0.347D-01 0.501D-01-0.877D-02-0.559D+00 0.861D+00
 Coeff-Com:  0.637D+00-0.757D+00-0.422D+01 0.497D+01
 Coeff:     -0.175D-01 0.347D-01 0.501D-01-0.877D-02-0.559D+00 0.861D+00
 Coeff:      0.637D+00-0.757D+00-0.422D+01 0.497D+01
 Gap=     0.229 Goal=   None    Shift=    0.500
 Gap=     0.089 Goal=   None    Shift=    0.500
 GapD=    0.089 DampG=0.500 DampE=1.000 DampFc=0.5000 IDamp=-1.
 Damping current iteration by 5.00D-01
 RMSDP=1.26D-04 MaxDP=1.20D-02 DE=-3.21D-03 OVMax= 1.65D-02

 Cycle  11  Pass 1  IDiag  1:
 E= -1926.18388665761     Delta-E=       -0.001758624152 Rises=F Damp=T
 DIIS: error= 1.83D-03 at cycle  11 NSaved=  11.
 NSaved=11 IEnMin=11 EnMin= -1926.18388665761     IErMin=10 ErrMin= 1.83D-03
 ErrMax= 1.83D-03  0.00D+00 EMaxC= 1.00D+00 BMatC= 1.86D-04 BMatP= 2.96D-04
 IDIUse=1 WtCom= 1.00D+00 WtEn= 0.00D+00
 Coeff-Com: -0.203D-01 0.222D-01 0.107D+00-0.320D-02-0.775D+00 0.966D+00
 Coeff-Com:  0.709D+00 0.142D+00-0.488D+01 0.317D+01 0.156D+01
 Coeff:     -0.203D-01 0.222D-01 0.107D+00-0.320D-02-0.775D+00 0.966D+00
 Coeff:      0.709D+00 0.142D+00-0.488D+01 0.317D+01 0.156D+01
 Gap=     0.230 Goal=   None    Shift=    0.500
 Gap=     0.090 Goal=   None    Shift=    0.500
 GapD=    0.090 DampG=0.500 DampE=1.000 DampFc=0.5000 IDamp=-1.
 Damping current iteration by 5.00D-01
 RMSDP=1.11D-04 MaxDP=1.01D-02 DE=-1.76D-03 OVMax= 1.57D-02

 Cycle  12  Pass 1  IDiag  1:
 E= -1926.18491341609     Delta-E=       -0.001026758478 Rises=F Damp=T
 DIIS: error= 1.83D-03 at cycle  12 NSaved=  12.
 NSaved=12 IEnMin=12 EnMin= -1926.18491341609     IErMin=12 ErrMin= 1.83D-03
 ErrMax= 1.83D-03  0.00D+00 EMaxC= 1.00D+00 BMatC= 1.49D-04 BMatP= 1.86D-04
 IDIUse=1 WtCom= 1.00D+00 WtEn= 0.00D+00
 Coeff-Com: -0.141D-01-0.161D-01 0.137D+00 0.159D-01-0.399D+00-0.130D+00
 Coeff-Com:  0.662D+00 0.111D+01-0.226D+01 0.129D+01-0.371D+01 0.432D+01
 Coeff:     -0.141D-01-0.161D-01 0.137D+00 0.159D-01-0.399D+00-0.130D+00
 Coeff:      0.662D+00 0.111D+01-0.226D+01 0.129D+01-0.371D+01 0.432D+01
 Gap=     0.233 Goal=   None    Shift=    0.500
 Gap=     0.090 Goal=   None    Shift=    0.500
 GapD=    0.090 DampG=0.500 DampE=1.000 DampFc=0.5000 IDamp=-1.
 Damping current iteration by 5.00D-01
 RMSDP=1.07D-04 MaxDP=8.59D-03 DE=-1.03D-03 OVMax= 1.67D-02

 Cycle  13  Pass 1  IDiag  1:
 E= -1926.18557376731     Delta-E=       -0.000660351227 Rises=F Damp=T
 DIIS: error= 1.84D-03 at cycle  13 NSaved=  13.
 NSaved=13 IEnMin=13 EnMin= -1926.18557376731     IErMin=12 ErrMin= 1.83D-03
 ErrMax= 1.84D-03  0.00D+00 EMaxC= 1.00D+00 BMatC= 1.37D-04 BMatP= 1.49D-04
 IDIUse=1 WtCom= 1.00D+00 WtEn= 0.00D+00
 Coeff-Com: -0.139D-01-0.158D-01 0.134D+00 0.151D-01-0.372D+00-0.164D+00
 Coeff-Com:  0.632D+00 0.108D+01-0.207D+01 0.131D+01-0.379D+01 0.394D+01
 Coeff-Com:  0.316D+00
 Coeff:     -0.139D-01-0.158D-01 0.134D+00 0.151D-01-0.372D+00-0.164D+00
 Coeff:      0.632D+00 0.108D+01-0.207D+01 0.131D+01-0.379D+01 0.394D+01
 Coeff:      0.316D+00
 Gap=     0.233 Goal=   None    Shift=    0.500
 Gap=     0.091 Goal=   None    Shift=    0.500
 GapD=    0.091 DampG=0.500 DampE=1.000 DampFc=0.5000 IDamp=-1.
 Damping current iteration by 5.00D-01
 RMSDP=9.05D-05 MaxDP=6.53D-03 DE=-6.60D-04 OVMax= 1.44D-02

 Cycle  14  Pass 1  IDiag  1:
 E= -1926.18603564428     Delta-E=       -0.000461876964 Rises=F Damp=T
 DIIS: error= 1.83D-03 at cycle  14 NSaved=  14.
 NSaved=14 IEnMin=14 EnMin= -1926.18603564428     IErMin=12 ErrMin= 1.83D-03
 ErrMax= 1.83D-03  0.00D+00 EMaxC= 1.00D+00 BMatC= 1.30D-04 BMatP= 1.37D-04
 IDIUse=1 WtCom= 1.00D+00 WtEn= 0.00D+00
 Coeff-Com: -0.140D-01-0.830D-02 0.102D+00 0.381D-01-0.309D+00-0.311D+00
 Coeff-Com:  0.824D+00 0.707D+00-0.130D+01-0.896D+00 0.210D+00 0.265D+01
 Coeff-Com: -0.310D+01 0.241D+01
 Coeff:     -0.140D-01-0.830D-02 0.102D+00 0.381D-01-0.309D+00-0.311D+00
 Coeff:      0.824D+00 0.707D+00-0.130D+01-0.896D+00 0.210D+00 0.265D+01
 Coeff:     -0.310D+01 0.241D+01
 Gap=     0.234 Goal=   None    Shift=    0.500
 Gap=     0.091 Goal=   None    Shift=    0.500
 GapD=    0.091 DampG=0.500 DampE=1.000 DampFc=0.5000 IDamp=-1.
 Damping current iteration by 5.00D-01
 RMSDP=7.76D-05 MaxDP=4.91D-03 DE=-4.62D-04 OVMax= 1.31D-02

 Cycle  15  Pass 1  IDiag  1:
 E= -1926.18638264673     Delta-E=       -0.000347002454 Rises=F Damp=T
 DIIS: error= 1.80D-03 at cycle  15 NSaved=  15.
 NSaved=15 IEnMin=15 EnMin= -1926.18638264673     IErMin=15 ErrMin= 1.80D-03
 ErrMax= 1.80D-03  0.00D+00 EMaxC= 1.00D+00 BMatC= 1.28D-04 BMatP= 1.30D-04
 IDIUse=1 WtCom= 1.00D+00 WtEn= 0.00D+00
 Coeff-Com: -0.143D-01-0.485D-02 0.934D-01 0.391D-01-0.299D+00-0.286D+00
 Coeff-Com:  0.793D+00 0.599D+00-0.103D+01-0.170D+01 0.219D+01-0.373D+00
 Coeff-Com:  0.208D+01-0.420D+01 0.312D+01
 Coeff:     -0.143D-01-0.485D-02 0.934D-01 0.391D-01-0.299D+00-0.286D+00
 Coeff:      0.793D+00 0.599D+00-0.103D+01-0.170D+01 0.219D+01-0.373D+00
 Coeff:      0.208D+01-0.420D+01 0.312D+01
 Gap=     0.234 Goal=   None    Shift=    0.500
 Gap=     0.092 Goal=   None    Shift=    0.500
 GapD=    0.092 DampG=0.500 DampE=1.000 DampFc=0.5000 IDamp=-1.
 Damping current iteration by 5.00D-01
 RMSDP=6.81D-05 MaxDP=3.73D-03 DE=-3.47D-04 OVMax= 1.21D-02

 Cycle  16  Pass 1  IDiag  1:
 E= -1926.18665978894     Delta-E=       -0.000277142211 Rises=F Damp=T
 DIIS: error= 1.77D-03 at cycle  16 NSaved=  16.
 NSaved=16 IEnMin=16 EnMin= -1926.18665978894     IErMin=16 ErrMin= 1.77D-03
 ErrMax= 1.77D-03  0.00D+00 EMaxC= 1.00D+00 BMatC= 1.32D-04 BMatP= 1.28D-04
 IDIUse=1 WtCom= 1.00D+00 WtEn= 0.00D+00
 Coeff-Com: -0.143D-01-0.684D-02 0.993D-01 0.369D-01-0.315D+00-0.253D+00
 Coeff-Com:  0.749D+00 0.688D+00-0.119D+01-0.133D+01 0.158D+01-0.903D+00
 Coeff-Com:  0.412D+01-0.407D+01 0.155D-01 0.179D+01
 Coeff:     -0.143D-01-0.684D-02 0.993D-01 0.369D-01-0.315D+00-0.253D+00
 Coeff:      0.749D+00 0.688D+00-0.119D+01-0.133D+01 0.158D+01-0.903D+00
 Coeff:      0.412D+01-0.407D+01 0.155D-01 0.179D+01
 Gap=     0.235 Goal=   None    Shift=    0.500
 Gap=     0.092 Goal=   None    Shift=    0.500
 GapD=    0.092 DampG=0.500 DampE=1.000 DampFc=0.5000 IDamp=-1.
 Damping current iteration by 5.00D-01
 RMSDP=5.79D-05 MaxDP=2.95D-03 DE=-2.77D-04 OVMax= 1.05D-02

 Cycle  17  Pass 1  IDiag  1:
 E= -1926.18688617252     Delta-E=       -0.000226383578 Rises=F Damp=T
 DIIS: error= 1.73D-03 at cycle  17 NSaved=  17.
 NSaved=17 IEnMin=17 EnMin= -1926.18688617252     IErMin=17 ErrMin= 1.73D-03
 ErrMax= 1.73D-03  0.00D+00 EMaxC= 1.00D+00 BMatC= 1.44D-04 BMatP= 1.28D-04
 IDIUse=1 WtCom= 1.00D+00 WtEn= 0.00D+00
 Large coefficients: NSaved= 17 BigCof=   33.36 CofMax=   10.00 Det=-9.85D-10
 Inversion failed.  Reducing to 16 matrices.
 Large coefficients: NSaved= 16 BigCof=   33.18 CofMax=   10.00 Det=-9.86D-10
 Inversion failed.  Reducing to 15 matrices.
 Large coefficients: NSaved= 15 BigCof=   31.84 CofMax=   10.00 Det=-9.88D-10
 Inversion failed.  Reducing to 14 matrices.
 Large coefficients: NSaved= 14 BigCof=   32.33 CofMax=   10.00 Det=-9.93D-10
 Inversion failed.  Reducing to 13 matrices.
 Large coefficients: NSaved= 13 BigCof=   35.24 CofMax=   10.00 Det=-1.03D-09
 Inversion failed.  Reducing to 12 matrices.
 Large coefficients: NSaved= 12 BigCof=   25.93 CofMax=   10.00 Det=-1.12D-09
 Inversion failed.  Reducing to 11 matrices.
 Large coefficients: NSaved= 11 BigCof=   19.43 CofMax=   10.00 Det=-1.31D-09
 Inversion failed.  Reducing to 10 matrices.
 Large coefficients: NSaved= 10 BigCof=   19.72 CofMax=   10.00 Det=-1.34D-09
 Inversion failed.  Reducing to  9 matrices.
 Large coefficients: NSaved=  9 BigCof=   20.37 CofMax=   10.00 Det=-1.36D-09
 Inversion failed.  Reducing to  8 matrices.
 Large coefficients: NSaved=  8 BigCof=   16.67 CofMax=   10.00 Det=-1.44D-09
 Inversion failed.  Reducing to  7 matrices.
 Large coefficients: NSaved=  7 BigCof=   10.91 CofMax=   10.00 Det=-1.70D-09
 Inversion failed.  Reducing to  6 matrices.
 Coeff-Com: -0.243D+01 0.591D+01-0.367D+01 0.339D+01-0.559D+01 0.339D+01
 Coeff:     -0.243D+01 0.591D+01-0.367D+01 0.339D+01-0.559D+01 0.339D+01
 Gap=     0.233 Goal=   None    Shift=    0.500
 Gap=     0.092 Goal=   None    Shift=    0.500
 GapD=    0.092 DampG=0.500 DampE=1.000 DampFc=0.5000 IDamp=-1.
 Damping current iteration by 5.00D-01
 RMSDP=3.96D-05 MaxDP=2.30D-03 DE=-2.26D-04 OVMax= 6.77D-03

 Cycle  18  Pass 1  IDiag  1:
 E= -1926.18704794254     Delta-E=       -0.000161770024 Rises=F Damp=T
 DIIS: error= 1.66D-03 at cycle  18 NSaved=   7.
 NSaved= 7 IEnMin= 7 EnMin= -1926.18704794254     IErMin= 7 ErrMin= 1.66D-03
 ErrMax= 1.66D-03  0.00D+00 EMaxC= 1.00D+00 BMatC= 1.79D-04 BMatP= 1.28D-04
 IDIUse=1 WtCom= 1.00D+00 WtEn= 0.00D+00
 Coeff-Com: -0.246D+01 0.548D+01-0.367D+01 0.345D+01-0.108D+01-0.269D+01
 Coeff-Com:  0.196D+01
 Coeff:     -0.246D+01 0.548D+01-0.367D+01 0.345D+01-0.108D+01-0.269D+01
 Coeff:      0.196D+01
 Gap=     0.232 Goal=   None    Shift=    0.500
 Gap=     0.092 Goal=   None    Shift=    0.500
 GapD=    0.092 DampG=0.500 DampE=1.000 DampFc=0.5000 IDamp=-1.
 Damping current iteration by 5.00D-01
 RMSDP=2.92D-05 MaxDP=1.67D-03 DE=-1.62D-04 OVMax= 3.95D-03

 Cycle  19  Pass 1  IDiag  1:
 E= -1926.18714163420     Delta-E=       -0.000093691656 Rises=F Damp=T
 DIIS: error= 1.56D-03 at cycle  19 NSaved=   8.
 NSaved= 8 IEnMin= 8 EnMin= -1926.18714163420     IErMin= 8 ErrMin= 1.56D-03
 ErrMax= 1.56D-03  0.00D+00 EMaxC= 1.00D+00 BMatC= 2.51D-04 BMatP= 1.28D-04
 IDIUse=1 WtCom= 1.00D+00 WtEn= 0.00D+00
 Coeff-Com: -0.245D+01 0.583D+01-0.465D+01 0.121D+01 0.598D+01-0.630D+01
 Coeff-Com:  0.158D+00 0.122D+01
 Coeff:     -0.245D+01 0.583D+01-0.465D+01 0.121D+01 0.598D+01-0.630D+01
 Coeff:      0.158D+00 0.122D+01
 Gap=     0.231 Goal=   None    Shift=    0.500
 Gap=     0.092 Goal=   None    Shift=    0.500
 GapD=    0.092 DampG=0.500 DampE=1.000 DampFc=0.5000 IDamp=-1.
 Damping current iteration by 5.00D-01
 RMSDP=2.50D-05 MaxDP=1.64D-03 DE=-9.37D-05 OVMax= 2.35D-03

 Cycle  20  Pass 1  IDiag  1:
 E= -1926.18718374240     Delta-E=       -0.000042108203 Rises=F Damp=T
 DIIS: error= 1.46D-03 at cycle  20 NSaved=   9.
 NSaved= 9 IEnMin= 9 EnMin= -1926.18718374240     IErMin= 9 ErrMin= 1.46D-03
 ErrMax= 1.46D-03  0.00D+00 EMaxC= 1.00D+00 BMatC= 3.48D-04 BMatP= 1.28D-04
 IDIUse=1 WtCom= 1.00D+00 WtEn= 0.00D+00
 Coeff-Com: -0.146D+01 0.345D+01-0.418D+01 0.206D+01 0.759D+01-0.838D+01
 Coeff-Com:  0.471D+01-0.659D+01 0.379D+01
 Coeff:     -0.146D+01 0.345D+01-0.418D+01 0.206D+01 0.759D+01-0.838D+01
 Coeff:      0.471D+01-0.659D+01 0.379D+01
 Gap=     0.231 Goal=   None    Shift=    0.500
 Gap=     0.092 Goal=   None    Shift=    0.500
 GapD=    0.092 DampG=0.500 DampE=1.000 DampFc=0.5000 IDamp=-1.
 Damping current iteration by 5.00D-01
 RMSDP=2.18D-05 MaxDP=1.67D-03 DE=-4.21D-05 OVMax= 1.30D-03

 Cycle  21  Pass 1  IDiag  1:
 E= -1926.18719362194     Delta-E=       -0.000009879534 Rises=F Damp=T
 DIIS: error= 1.38D-03 at cycle  21 NSaved=  10.
 NSaved=10 IEnMin=10 EnMin= -1926.18719362194     IErMin=10 ErrMin= 1.38D-03
 ErrMax= 1.38D-03  0.00D+00 EMaxC= 1.00D+00 BMatC= 4.49D-04 BMatP= 1.28D-04
 IDIUse=1 WtCom= 1.00D+00 WtEn= 0.00D+00
 Coeff-Com:  0.206D+00-0.142D+01-0.152D+01 0.601D+01 0.321D+01-0.887D+01
 Coeff-Com:  0.869D+01-0.630D+01-0.382D+01 0.481D+01
 Coeff:      0.206D+00-0.142D+01-0.152D+01 0.601D+01 0.321D+01-0.887D+01
 Coeff:      0.869D+01-0.630D+01-0.382D+01 0.481D+01
 Gap=     0.230 Goal=   None    Shift=    0.500
 Gap=     0.092 Goal=   None    Shift=    0.500
 GapD=    0.092 DampG=0.500 DampE=1.000 DampFc=0.5000 IDamp=-1.
 Damping current iteration by 5.00D-01
 RMSDP=2.01D-05 MaxDP=1.72D-03 DE=-9.88D-06 OVMax= 7.60D-04

 Cycle  22  Pass 1  IDiag  1:
 E= -1926.18718042786     Delta-E=        0.000013194073 Rises=F Damp=T
 DIIS: error= 1.31D-03 at cycle  22 NSaved=  11.
 NSaved=11 IEnMin=10 EnMin= -1926.18719362194     IErMin=11 ErrMin= 1.31D-03
 ErrMax= 1.31D-03  0.00D+00 EMaxC= 1.00D+00 BMatC= 5.48D-04 BMatP= 1.28D-04
 IDIUse=1 WtCom= 1.00D+00 WtEn= 0.00D+00
 Large coefficients: NSaved= 11 BigCof=   11.90 CofMax=   10.00 Det=-1.59D-09
 Inversion failed.  Reducing to 10 matrices.
 Large coefficients: NSaved= 10 BigCof=   12.02 CofMax=   10.00 Det=-6.21D-10
 Inversion failed.  Reducing to  9 matrices.
 Large coefficients: NSaved=  9 BigCof=   10.38 CofMax=   10.00 Det=-9.45D-10
 Inversion failed.  Reducing to  8 matrices.
 Large coefficients: NSaved=  8 BigCof=   11.63 CofMax=   10.00 Det=-7.99D-10
 Inversion failed.  Reducing to  7 matrices.
 Large coefficients: NSaved=  7 BigCof=   12.79 CofMax=   10.00 Det=-7.99D-10
 Inversion failed.  Reducing to  6 matrices.
 Coeff-Com:  0.542D+00 0.349D+01-0.253D+00-0.451D+01-0.275D+01 0.448D+01
 Coeff:      0.542D+00 0.349D+01-0.253D+00-0.451D+01-0.275D+01 0.448D+01
 Gap=     0.234 Goal=   None    Shift=    0.000
 Gap=     0.092 Goal=   None    Shift=    0.000
 GapD=    0.092 DampG=0.500 DampE=1.000 DampFc=0.5000 IDamp=-1.
 Damping current iteration by 5.00D-01
 RMSDP=9.09D-05 MaxDP=4.33D-03 DE= 1.32D-05 OVMax= 3.67D-02

 Cycle  23  Pass 1  IDiag  1:
 E= -1926.18741473851     Delta-E=       -0.000234310645 Rises=F Damp=T
 DIIS: error= 1.23D-03 at cycle  23 NSaved=   7.
 NSaved= 7 IEnMin= 7 EnMin= -1926.18741473851     IErMin= 7 ErrMin= 1.23D-03
 ErrMax= 1.23D-03  0.00D+00 EMaxC= 1.00D+00 BMatC= 6.59D-04 BMatP= 1.44D-04
 IDIUse=1 WtCom= 1.00D+00 WtEn= 0.00D+00
 Coeff-Com:  0.233D+01-0.860D+00 0.176D+00 0.744D+00-0.339D+01 0.566D+00
 Coeff-Com:  0.144D+01
 Coeff:      0.233D+01-0.860D+00 0.176D+00 0.744D+00-0.339D+01 0.566D+00
 Coeff:      0.144D+01
 Gap=     0.237 Goal=   None    Shift=    0.500
 Gap=     0.093 Goal=   None    Shift=    0.500
 GapD=    0.093 DampG=0.500 DampE=1.000 DampFc=0.5000 IDamp=-1.
 Damping current iteration by 5.00D-01
 RMSDP=6.67D-05 MaxDP=3.52D-03 DE=-2.34D-04 OVMax= 4.00D-03

 Cycle  24  Pass 1  IDiag  1:
 E= -1926.18762008167     Delta-E=       -0.000205343161 Rises=F Damp=T
 DIIS: error= 1.23D-03 at cycle  24 NSaved=   8.
 NSaved= 8 IEnMin= 8 EnMin= -1926.18762008167     IErMin= 7 ErrMin= 1.23D-03
 ErrMax= 1.23D-03  0.00D+00 EMaxC= 1.00D+00 BMatC= 6.30D-04 BMatP= 1.44D-04
 IDIUse=1 WtCom= 1.00D+00 WtEn= 0.00D+00
 Coeff-Com:  0.169D+01 0.148D+01-0.186D+01 0.700D+00-0.327D+01 0.494D+00
 Coeff-Com:  0.281D+01-0.104D+01
 Coeff:      0.169D+01 0.148D+01-0.186D+01 0.700D+00-0.327D+01 0.494D+00
 Coeff:      0.281D+01-0.104D+01
 Gap=     0.236 Goal=   None    Shift=    0.500
 Gap=     0.093 Goal=   None    Shift=    0.500
 GapD=    0.093 DampG=0.500 DampE=1.000 DampFc=0.5000 IDamp=-1.
 Damping current iteration by 5.00D-01
 RMSDP=3.96D-05 MaxDP=2.35D-03 DE=-2.05D-04 OVMax= 2.09D-03

 Cycle  25  Pass 1  IDiag  1:
 E= -1926.18775209711     Delta-E=       -0.000132015442 Rises=F Damp=T
 DIIS: error= 1.23D-03 at cycle  25 NSaved=   9.
 NSaved= 9 IEnMin= 9 EnMin= -1926.18775209711     IErMin= 7 ErrMin= 1.23D-03
 ErrMax= 1.23D-03  0.00D+00 EMaxC= 1.00D+00 BMatC= 6.24D-04 BMatP= 1.44D-04
 IDIUse=1 WtCom= 1.00D+00 WtEn= 0.00D+00
 Large coefficients: NSaved=  9 BigCof=   20.74 CofMax=   10.00 Det=-1.63D-09
 Inversion failed.  Reducing to  8 matrices.
 Large coefficients: NSaved=  8 BigCof=   23.81 CofMax=   10.00 Det=-7.95D-10
 Inversion failed.  Reducing to  7 matrices.
 Large coefficients: NSaved=  7 BigCof=   12.27 CofMax=   10.00 Det=-5.07D-09
 Inversion failed.  Reducing to  6 matrices.
 Coeff-Com:  0.749D+01-0.716D+01-0.999D+00 0.876D+00 0.105D+01-0.254D+00
 Coeff:      0.749D+01-0.716D+01-0.999D+00 0.876D+00 0.105D+01-0.254D+00
 Gap=     0.240 Goal=   None    Shift=    0.500
 Gap=     0.094 Goal=   None    Shift=    0.500
 GapD=    0.094 DampG=0.500 DampE=1.000 DampFc=0.5000 IDamp=-1.
 Damping current iteration by 5.00D-01
 RMSDP=6.46D-05 MaxDP=4.27D-03 DE=-1.32D-04 OVMax= 8.59D-03

 Cycle  26  Pass 1  IDiag  1:
 E= -1926.18793214705     Delta-E=       -0.000180049939 Rises=F Damp=T
 DIIS: error= 1.31D-03 at cycle  26 NSaved=   7.
 NSaved= 7 IEnMin= 7 EnMin= -1926.18793214705     IErMin= 4 ErrMin= 1.23D-03
 ErrMax= 1.31D-03  0.00D+00 EMaxC= 1.00D+00 BMatC= 5.01D-04 BMatP= 3.48D-04
 IDIUse=1 WtCom= 1.00D+00 WtEn= 0.00D+00
 Coeff-Com:  0.779D+01-0.811D+01-0.454D+00 0.155D+01 0.349D-01-0.253D+00
 Coeff-Com:  0.445D+00
 Coeff:      0.779D+01-0.811D+01-0.454D+00 0.155D+01 0.349D-01-0.253D+00
 Coeff:      0.445D+00
 Gap=     0.240 Goal=   None    Shift=    0.500
 Gap=     0.094 Goal=   None    Shift=    0.500
 GapD=    0.094 DampG=0.500 DampE=1.000 DampFc=0.5000 IDamp=-1.
 Damping current iteration by 5.00D-01
 RMSDP=6.05D-05 MaxDP=4.30D-03 DE=-1.80D-04 OVMax= 7.54D-03

 Cycle  27  Pass 1  IDiag  1:
 E= -1926.18809943090     Delta-E=       -0.000167283850 Rises=F Damp=T
 DIIS: error= 1.37D-03 at cycle  27 NSaved=   8.
 NSaved= 8 IEnMin= 8 EnMin= -1926.18809943090     IErMin= 4 ErrMin= 1.23D-03
 ErrMax= 1.37D-03  0.00D+00 EMaxC= 1.00D+00 BMatC= 4.25D-04 BMatP= 3.48D-04
 IDIUse=1 WtCom= 1.00D+00 WtEn= 0.00D+00
 Large coefficients: NSaved=  8 BigCof=   38.59 CofMax=   10.00 Det=-1.68D-09
 Inversion failed.  Reducing to  7 matrices.
 Large coefficients: NSaved=  7 BigCof=   17.79 CofMax=   10.00 Det=-2.98D-09
 Inversion failed.  Reducing to  6 matrices.
 Large coefficients: NSaved=  6 BigCof=   13.27 CofMax=   10.00 Det=-9.64D-09
 Inversion failed.  Reducing to  5 matrices.
 Large coefficients: NSaved=  5 BigCof=   18.13 CofMax=   10.00 Det=-1.05D-08
 Inversion failed.  Reducing to  4 matrices.
 Large coefficients: NSaved=  4 BigCof=   10.60 CofMax=   10.00 Det=-2.84D-08
 Inversion failed.  Reducing to  3 matrices.
 Large coefficients: NSaved=  3 BigCof=   10.39 CofMax=   10.00 Det=-2.89D-08
 Inversion failed.  Reducing to  2 matrices.
 Coeff-Com: -0.782D+01 0.882D+01
 Coeff:     -0.782D+01 0.882D+01
 Gap=     0.248 Goal=   None    Shift=    0.500
 Gap=     0.096 Goal=   None    Shift=    0.500
 GapD=    0.096 DampG=0.500 DampE=1.000 DampFc=0.5000 IDamp=-1.
 Damping current iteration by 5.00D-01
 RMSDP=1.39D-04 MaxDP=9.44D-03 DE=-1.67D-04 OVMax= 2.12D-02

 Cycle  28  Pass 1  IDiag  1:
 E= -1926.18839460716     Delta-E=       -0.000295176260 Rises=F Damp=T
 DIIS: error= 1.59D-03 at cycle  28 NSaved=   3.
 NSaved= 3 IEnMin= 3 EnMin= -1926.18839460716     IErMin= 1 ErrMin= 1.31D-03
 ErrMax= 1.59D-03  0.00D+00 EMaxC= 1.00D+00 BMatC= 2.10D-04 BMatP= 4.25D-04
 IDIUse=1 WtCom= 1.00D+00 WtEn= 0.00D+00
 Coeff-Com: -0.405D+01 0.407D+01 0.979D+00
 Coeff:     -0.405D+01 0.407D+01 0.979D+00
 Gap=     0.246 Goal=   None    Shift=    0.500
 Gap=     0.096 Goal=   None    Shift=    0.500
 GapD=    0.096 DampG=0.500 DampE=1.000 DampFc=0.5000 IDamp=-1.
 Damping current iteration by 5.00D-01
 RMSDP=1.18D-04 MaxDP=8.37D-03 DE=-2.95D-04 OVMax= 1.53D-02

 Cycle  29  Pass 1  IDiag  1:
 E= -1926.18868170481     Delta-E=       -0.000287097648 Rises=F Damp=T
 DIIS: error= 1.72D-03 at cycle  29 NSaved=   4.
 NSaved= 4 IEnMin= 4 EnMin= -1926.18868170481     IErMin= 1 ErrMin= 1.31D-03
 ErrMax= 1.72D-03  0.00D+00 EMaxC= 1.00D+00 BMatC= 1.56D-04 BMatP= 2.10D-04
 IDIUse=1 WtCom= 1.00D+00 WtEn= 0.00D+00
 Coeff-Com: -0.268D+01 0.288D+01-0.269D+00 0.107D+01
 Coeff:     -0.268D+01 0.288D+01-0.269D+00 0.107D+01
 Gap=     0.246 Goal=   None    Shift=    0.500
 Gap=     0.097 Goal=   None    Shift=    0.500
 GapD=    0.097 DampG=0.500 DampE=1.000 DampFc=0.5000 IDamp=-1.
 Damping current iteration by 5.00D-01
 RMSDP=9.38D-05 MaxDP=6.34D-03 DE=-2.87D-04 OVMax= 1.33D-02

 Cycle  30  Pass 1  IDiag  1:
 E= -1926.18895067433     Delta-E=       -0.000268969527 Rises=F Damp=T
 DIIS: error= 1.76D-03 at cycle  30 NSaved=   5.
 NSaved= 5 IEnMin= 5 EnMin= -1926.18895067433     IErMin= 1 ErrMin= 1.31D-03
 ErrMax= 1.76D-03  0.00D+00 EMaxC= 1.00D+00 BMatC= 1.48D-04 BMatP= 1.56D-04
 IDIUse=1 WtCom= 1.00D+00 WtEn= 0.00D+00
 Coeff-Com: -0.286D+01 0.334D+01-0.138D+01 0.333D+01-0.143D+01
 Coeff:     -0.286D+01 0.334D+01-0.138D+01 0.333D+01-0.143D+01
 Gap=     0.245 Goal=   None    Shift=    0.500
 Gap=     0.097 Goal=   None    Shift=    0.500
 GapD=    0.097 DampG=0.500 DampE=1.000 DampFc=0.5000 IDamp=-1.
 Damping current iteration by 5.00D-01
 RMSDP=6.37D-05 MaxDP=3.55D-03 DE=-2.69D-04 OVMax= 9.44D-03

 Cycle  31  Pass 1  IDiag  1:
 E= -1926.18917203890     Delta-E=       -0.000221364562 Rises=F Damp=T
 DIIS: error= 1.72D-03 at cycle  31 NSaved=   6.
 NSaved= 6 IEnMin= 6 EnMin= -1926.18917203890     IErMin= 1 ErrMin= 1.31D-03
 ErrMax= 1.72D-03  0.00D+00 EMaxC= 1.00D+00 BMatC= 1.63D-04 BMatP= 1.48D-04
 IDIUse=1 WtCom= 1.00D+00 WtEn= 0.00D+00
 Large coefficients: NSaved=  6 BigCof=   13.67 CofMax=   10.00 Det=-3.41D-09
 Inversion failed.  Reducing to  5 matrices.
 Coeff-Com:  0.287D+00-0.310D+00-0.164D+01 0.465D+01-0.199D+01
 Coeff:      0.287D+00-0.310D+00-0.164D+01 0.465D+01-0.199D+01
 Gap=     0.245 Goal=   None    Shift=    0.500
 Gap=     0.097 Goal=   None    Shift=    0.500
 GapD=    0.097 DampG=0.500 DampE=1.000 DampFc=0.5000 IDamp=-1.
 Damping current iteration by 5.00D-01
 RMSDP=4.92D-05 MaxDP=2.73D-03 DE=-2.21D-04 OVMax= 8.36D-03

 Cycle  32  Pass 1  IDiag  1:
 E= -1926.18935058662     Delta-E=       -0.000178547726 Rises=F Damp=T
 DIIS: error= 1.65D-03 at cycle  32 NSaved=   6.
 NSaved= 6 IEnMin= 6 EnMin= -1926.18935058662     IErMin= 1 ErrMin= 1.37D-03
 ErrMax= 1.65D-03  0.00D+00 EMaxC= 1.00D+00 BMatC= 1.93D-04 BMatP= 1.48D-04
 IDIUse=1 WtCom= 1.00D+00 WtEn= 0.00D+00
 Coeff-Com:  0.333D+00-0.291D+01 0.415D+01 0.230D+01-0.631D+01 0.343D+01
 Coeff:      0.333D+00-0.291D+01 0.415D+01 0.230D+01-0.631D+01 0.343D+01
 Gap=     0.246 Goal=   None    Shift=    0.500
 Gap=     0.097 Goal=   None    Shift=    0.500
 GapD=    0.097 DampG=0.500 DampE=1.000 DampFc=0.5000 IDamp=-1.
 Damping current iteration by 5.00D-01
 RMSDP=5.01D-05 MaxDP=2.43D-03 DE=-1.79D-04 OVMax= 9.48D-03

 >>>>>>>>>> Convergence criterion not met.
 SCF Done:  E(ULC-wHPBE) =  -1926.18935059     A.U. after   33 cycles
            NFock= 32  Conv=0.50D-04     -V/T= 2.0033
 <Sx>= 0.0000 <Sy>= 0.0000 <Sz>= 0.5000 <S**2>= 0.7588 S= 0.5044
 <L.S>= 0.000000000000E+00
 KE= 1.919883170708D+03 PE=-1.015285212225D+04 EE= 3.479533320882D+03
 Annihilation of the first spin contaminant:
 S**2 before annihilation     0.7586,   after     0.7496
 Leave Link  502 at Mon Jan 18 22:29:01 2021, MaxMem=  4026531840 cpu:           16989.3 elap:            2129.3
 (Enter /opt/ohpc/pub/libs/gaussian/g16-A.03/sandybridge/g16/l508.exe)
 Integral symmetry usage will be decided dynamically.
 Tight linear equation convergence will be used.
 ULC-wHPBE wavefunction.
 Quadratic Convergence SCF Method.
 Line search only if initial step raises energy.
 FoFJK:  IHMeth= 1 ICntrl=       0 DoSepK=T KAlg= 0 I1Cent=           0 FoldK=F
 IRaf=         1 NMat=       1 IRICut=       1 DoRegI=T DoRafI=F ISym2E= 1 IDoP0=0 IntGTp=1.
 FoFCou: FMM=F IPFlag=           0 FMFlag=      100000 FMFlg1=           0
         NFxFlg=           0 DoJE=T BraDBF=F KetDBF=F FulRan=T
         wScrn=  0.000000 ICntrl=       500 IOpCl=  0 I1Cent=           0 NGrid=           0
         NMat0=    1 NMatS0=      1 NMatT0=    0 NMatD0=    1 NMtDS0=    0 NMtDT0=    0
 Petite list used in FoFCou.
 Iteration   1 EE= -1926.18971359345                                    Grad=1.090D-02 Max rot=    0.3606 deg.
 Gradient too large for Newton-Raphson -- use scaled steepest descent instead.
     ILin= 1 X=0.000D+00 Y=-1.926189713593D+03 DE= 0.00D+00 F= -2.70D-04
     ILin= 2 X=3.000D-01 Y=-1.926189791299D+03 DE=-7.77D-05 F= -2.48D-04
     ILin= 3 X=6.000D-01 Y=-1.926189862358D+03 DE=-1.49D-04 F= -2.26D-04
     ILin= 4 X=1.200D+00 Y=-1.926189984564D+03 DE=-2.71D-04 F= -1.82D-04
     ILin= 5 X=2.400D+00 Y=-1.926190149517D+03 DE=-4.36D-04 F= -9.34D-05
     ILin= 6 X=4.800D+00 Y=-1.926190162735D+03 DE=-4.49D-04 F=  8.23D-05
     Accept linear search using points  5 and  6.
     An  expanding polynomial of degree  6 produced  3.8284
 Iteration   2 EE= -1926.19020816281     Delta-E=       -0.000494569354 Grad=2.824D-02 Max rot=    0.6620 deg.
 Gradient too large for Newton-Raphson -- use scaled steepest descent instead.
     ILin= 1 X=0.000D+00 Y=-1.926190208163D+03 DE= 0.00D+00 F= -1.33D-03
     ILin= 2 X=1.100D+00 Y=-1.926190627513D+03 DE=-4.19D-04 F=  5.68D-04
     Accept linear search using points  1 and  2.
     An  expanding polynomial of degree  2 produced  0.7977
 Iteration   3 EE= -1926.19072032279     Delta-E=       -0.000512159985 Grad=1.242D-02 Max rot=    0.3796 deg.
 Gradient too large for Newton-Raphson -- use scaled steepest descent instead.
     ILin= 1 X=0.000D+00 Y=-1.926190720323D+03 DE= 0.00D+00 F= -3.00D-04
     ILin= 2 X=1.700D+00 Y=-1.926191035593D+03 DE=-3.15D-04 F= -7.13D-05
     ILin= 3 X=3.500D+00 Y=-1.926190946352D+03 DE=-2.26D-04 F=  1.71D-04
     An  expanding polynomial of degree  3 produced  2.2308
 Iteration   4 EE= -1926.19105454413     Delta-E=       -0.000334221339 Grad=2.270D-02 Max rot=    0.5341 deg.
 Gradient too large for Newton-Raphson -- use scaled steepest descent instead.
     ILin= 1 X=0.000D+00 Y=-1.926191054544D+03 DE= 0.00D+00 F= -7.88D-04
     ILin= 2 X=1.300D+00 Y=-1.926191279884D+03 DE=-2.25D-04 F=  4.41D-04
     Accept linear search using points  1 and  2.
     An  expanding polynomial of degree  2 produced  0.9044
 Iteration   5 EE= -1926.19138042363     Delta-E=       -0.000325879492 Grad=1.414D-02 Max rot=    0.3560 deg.
 Gradient too large for Newton-Raphson -- use scaled steepest descent instead.
     ILin= 1 X=0.000D+00 Y=-1.926191380424D+03 DE= 0.00D+00 F= -3.52D-04
     ILin= 2 X=1.400D+00 Y=-1.926191646205D+03 DE=-2.66D-04 F= -2.78D-05
     Reject lnstep minimum 1.441D+00 FVal=-1.926191646619D+03 Lims=  0.00D+00  1.40D+00
     ILin= 3 X=2.800D+00 Y=-1.926191457929D+03 DE=-7.75D-05 F=  2.97D-04
     An  expanding polynomial of degree  3 produced  1.5195
     Minimum is close to point  2 DX=  1.19D-01 DF= -1.65D-06 DXR=  7.86D-02 DFR=  6.22D-03 which will be used.
 Iteration   6 EE= -1926.19164620471     Delta-E=       -0.000265781084 Grad=1.575D-02 Max rot=    0.4859 deg.
 Gradient too large for Newton-Raphson -- use scaled steepest descent instead.
     ILin= 1 X=0.000D+00 Y=-1.926191646205D+03 DE= 0.00D+00 F= -4.52D-04
     ILin= 2 X=1.200D+00 Y=-1.926191898387D+03 DE=-2.52D-04 F=  3.21D-05
     Accept linear search using points  1 and  2.
     An  expanding polynomial of degree  2 produced  1.1483
     Minimum is close to point  2 DX= -5.17D-02 DF= -6.86D-07 DXR=  4.50D-02 DFR=  2.72D-03 which will be used.
 Iteration   7 EE= -1926.19189838736     Delta-E=       -0.000252182646 Grad=1.693D-02 Max rot=    0.3383 deg.
 Gradient too large for Newton-Raphson -- use scaled steepest descent instead.
     ILin= 1 X=0.000D+00 Y=-1.926191898387D+03 DE= 0.00D+00 F= -4.46D-04
     ILin= 2 X=1.300D+00 Y=-1.926192141867D+03 DE=-2.43D-04 F=  7.19D-05
     Accept linear search using points  1 and  2.
     An  expanding polynomial of degree  2 produced  1.1908
     Minimum is close to point  2 DX= -1.09D-01 DF= -2.98D-06 DXR=  9.17D-02 DFR=  1.22D-02 which will be used.
 Iteration   8 EE= -1926.19214186679     Delta-E=       -0.000243479435 Grad=1.769D-02 Max rot=    0.4868 deg.
 Gradient too large for Newton-Raphson -- use scaled steepest descent instead.
     ILin= 1 X=0.000D+00 Y=-1.926192141867D+03 DE= 0.00D+00 F= -5.26D-04
     ILin= 2 X=1.200D+00 Y=-1.926192386105D+03 DE=-2.44D-04 F=  1.19D-04
     Accept linear search using points  1 and  2.
     An  expanding polynomial of degree  2 produced  1.0352
 Iteration   9 EE= -1926.19239838772     Delta-E=       -0.000256520928 Grad=1.495D-02 Max rot=    0.3472 deg.
 Gradient too large for Newton-Raphson -- use scaled steepest descent instead.
     ILin= 1 X=0.000D+00 Y=-1.926192398388D+03 DE= 0.00D+00 F= -3.69D-04
     ILin= 2 X=1.100D+00 Y=-1.926192634381D+03 DE=-2.36D-04 F= -5.96D-05
     Reject lnstep minimum 1.240D+00 FVal=-1.926192638226D+03 Lims=  0.00D+00  1.10D+00
     ILin= 3 X=2.200D+00 Y=-1.926192529182D+03 DE=-1.31D-04 F=  2.51D-04
     An  expanding polynomial of degree  3 produced  1.3108
 Iteration  10 EE= -1926.19264067376     Delta-E=       -0.000242286041 Grad=1.562D-02 Max rot=    0.4653 deg.
 Gradient too large for Newton-Raphson -- use scaled steepest descent instead.
     ILin= 1 X=0.000D+00 Y=-1.926192640674D+03 DE= 0.00D+00 F= -4.32D-04
     ILin= 2 X=1.200D+00 Y=-1.926192876165D+03 DE=-2.35D-04 F=  3.93D-05
     Accept linear search using points  1 and  2.
     An  expanding polynomial of degree  2 produced  1.1336
     Minimum is close to point  2 DX= -6.64D-02 DF= -1.08D-06 DXR=  5.86D-02 DFR=  4.58D-03 which will be used.
 Iteration  11 EE= -1926.19287616489     Delta-E=       -0.000235491130 Grad=1.671D-02 Max rot=    0.3323 deg.
 Gradient too large for Newton-Raphson -- use scaled steepest descent instead.
     ILin= 1 X=0.000D+00 Y=-1.926192876165D+03 DE= 0.00D+00 F= -4.27D-04
     ILin= 2 X=1.200D+00 Y=-1.926193107219D+03 DE=-2.31D-04 F=  4.25D-05
     Accept linear search using points  1 and  2.
     An  expanding polynomial of degree  2 produced  1.1274
     Minimum is close to point  2 DX= -7.26D-02 DF= -1.28D-06 DXR=  6.44D-02 DFR=  5.52D-03 which will be used.
 Iteration  12 EE= -1926.19310721869     Delta-E=       -0.000231053799 Grad=1.554D-02 Max rot=    0.4547 deg.
[...]
    17   Atom       -0.001776     -0.000336      0.002112
    18   Atom        0.000538     -0.000216     -0.000322
    19   Atom        0.000636      0.000756     -0.001392
    20   Atom        0.000311     -0.000111     -0.000199
    21   Atom        0.000389     -0.000181     -0.000207
    22   Atom        0.000242     -0.000148     -0.000093
    23   Atom        0.003335      0.007265     -0.010600
    24   Atom       -0.419740     -0.473795      0.893535
    25   Atom       -0.010236     -0.007458      0.017694
    26   Atom        0.010947     -0.007980     -0.002967
    27   Atom       -0.023501      0.032585     -0.009083
    28   Atom        0.010460     -0.001436     -0.009024
    29   Atom        0.004544      0.007258     -0.011802
    30   Atom       -0.037403     -0.011936      0.049338
    31   Atom        0.001307     -0.000573     -0.000734
    32   Atom        0.001938     -0.001253     -0.000685
    33   Atom        0.000642     -0.000209     -0.000433
    34   Atom        0.000384      0.000067     -0.000451
    35   Atom       -0.013851      0.002447      0.011404
    36   Atom        0.077816     -0.043135     -0.034681
    37   Atom        0.050191     -0.018026     -0.032165
    38   Atom       -0.002405      0.006063     -0.003657
    39   Atom       -0.010204      0.012937     -0.002733
    40   Atom        0.038213     -0.042606      0.004393
    41   Atom       -0.000818     -0.001595      0.002413
    42   Atom       -0.000877     -0.001535      0.002412
    43   Atom       -0.001217      0.000521      0.000696
    44   Atom       -0.001345      0.000756      0.000588
    45   Atom        0.084820     -0.075831     -0.008988
    46   Atom        0.000798     -0.003364      0.002566
    47   Atom       -0.057235     -0.008872      0.066108
    48   Atom       -0.004072      0.002930      0.001142
 --------------------------------------------------------
                        XY            XZ            YZ
 --------------------------------------------------------
     1   Atom        0.000805     -0.000953     -0.001580
     2   Atom       -0.001307      0.003167      0.000450
     3   Atom        0.005631     -0.036739     -0.033474
     4   Atom        0.004114     -0.002817     -0.002425
     5   Atom       -0.004182     -0.000543      0.021122
     6   Atom       -0.005981      0.002791     -0.098363
     7   Atom        0.000397      0.000007      0.000259
     8   Atom       -0.000203      0.001233      0.001270
     9   Atom        0.000651      0.000661      0.000678
    10   Atom        0.012001     -0.009066     -0.074263
    11   Atom       -0.000296      0.000272      0.027259
    12   Atom       -0.004487      0.001884     -0.099340
    13   Atom       -0.006408      0.002132      0.006351
    14   Atom        0.001106     -0.000052      0.004874
    15   Atom        0.000258      0.000107      0.001653
    16   Atom        0.004854      0.003909      0.003714
    17   Atom        0.000739     -0.000565     -0.002801
    18   Atom       -0.000337     -0.000050      0.000081
    19   Atom       -0.001384     -0.000210      0.000431
    20   Atom       -0.000071      0.000078      0.000023
    21   Atom        0.000220      0.000254      0.000153
    22   Atom        0.000319      0.000261      0.000061
    23   Atom        0.011614     -0.000847     -0.003824
    24   Atom        0.010706      0.278632      0.052816
    25   Atom        0.010799     -0.002868      0.005279
    26   Atom       -0.038870     -0.041071      0.036895
    27   Atom       -0.042972     -0.030699      0.050098
    28   Atom        0.004545      0.002242     -0.013638
    29   Atom        0.006125      0.008727     -0.008523
    30   Atom       -0.020979     -0.039030      0.063739
    31   Atom       -0.002270      0.003228     -0.003410
    32   Atom       -0.002066      0.004045     -0.002521
    33   Atom        0.000603      0.001210     -0.001419
    34   Atom        0.000697      0.001056     -0.001578
    35   Atom       -0.001868      0.013838      0.007600
    36   Atom        0.013252      0.033144      0.006899
    37   Atom        0.043907      0.028121      0.010394
    38   Atom       -0.008499     -0.009637     -0.005886
    39   Atom       -0.001588     -0.014608     -0.000927
    40   Atom        0.023327      0.073877      0.019777
    41   Atom        0.000675     -0.004487     -0.002525
    42   Atom        0.000429     -0.004597     -0.001068
    43   Atom       -0.000784     -0.001626     -0.000244
    44   Atom       -0.000658     -0.001453     -0.000440
    45   Atom        0.045679      0.116341      0.032696
    46   Atom       -0.002100     -0.004599      0.003231
    47   Atom       -0.049244     -0.069800      0.107952
    48   Atom       -0.002186      0.001018     -0.005064
 --------------------------------------------------------


 ---------------------------------------------------------------------------------
              Anisotropic Spin Dipole Couplings in Principal Axis System
 ---------------------------------------------------------------------------------

       Atom             a.u.   MegaHertz   Gauss  10(-4) cm-1        Axes

              Baa    -0.0017    -0.222    -0.079    -0.074 -0.0273  0.7872  0.6160
     1 C(13)  Bbb    -0.0006    -0.085    -0.030    -0.028  0.8713 -0.2833  0.4007
              Bcc     0.0023     0.307     0.109     0.102 -0.4900 -0.5477  0.6782
 
              Baa    -0.0043    -0.573    -0.205    -0.191  0.4986  0.8335 -0.2380
     2 C(13)  Bbb    -0.0013    -0.175    -0.062    -0.058  0.7338 -0.5520 -0.3961
              Bcc     0.0056     0.748     0.267     0.250  0.4615 -0.0228  0.8868
 
              Baa    -0.0612    -2.509    -0.895    -0.837  0.9468  0.1851  0.2632
     3 S(33)  Bbb    -0.0495    -2.029    -0.724    -0.677 -0.2329  0.9587  0.1634
              Bcc     0.1107     4.539     1.620     1.514 -0.2220 -0.2160  0.9508
 
              Baa    -0.0049    -0.654    -0.233    -0.218  0.8146 -0.5578  0.1589
     4 C(13)  Bbb    -0.0014    -0.188    -0.067    -0.063  0.2233  0.5546  0.8016
              Bcc     0.0063     0.842     0.300     0.281  0.5352  0.6175 -0.5763
 
              Baa    -0.0322    -4.316    -1.540    -1.440 -0.0347 -0.5110  0.8589
     5 C(13)  Bbb     0.0122     1.638     0.584     0.546  0.7092  0.5929  0.3814
              Bcc     0.0200     2.678     0.956     0.893  0.7041 -0.6224 -0.3418
 
              Baa    -0.0859   -11.532    -4.115    -3.847  0.3357  0.8428  0.4208
     6 C(13)  Bbb    -0.0731    -9.807    -3.499    -3.271  0.9417 -0.2897 -0.1710
              Bcc     0.1590    21.339     7.614     7.118  0.0223 -0.4536  0.8909
 
              Baa    -0.0010    -0.137    -0.049    -0.046  0.0467 -0.2320  0.9716
     7 C(13)  Bbb     0.0000     0.002     0.001     0.001 -0.4338  0.8715  0.2289
              Bcc     0.0010     0.135     0.048     0.045  0.8998  0.4321  0.0599
 
              Baa    -0.0021    -0.287    -0.102    -0.096 -0.3395 -0.5585  0.7569
     8 C(13)  Bbb     0.0004     0.054     0.019     0.018 -0.5088  0.7858  0.3516
              Bcc     0.0017     0.233     0.083     0.078  0.7911  0.2657  0.5509
 
              Baa    -0.0011    -0.561    -0.200    -0.187 -0.0708 -0.6097  0.7894
     9 H(1)   Bbb    -0.0004    -0.222    -0.079    -0.074 -0.6256  0.6435  0.4410
              Bcc     0.0015     0.784     0.280     0.261  0.7769  0.4627  0.4270
 
              Baa    -0.0525    -7.049    -2.515    -2.351 -0.5607  0.6411  0.5241
    10 C(13)  Bbb    -0.0470    -6.312    -2.252    -2.105  0.8219  0.3541  0.4461
              Bcc     0.0996    13.361     4.768     4.457 -0.1004 -0.6809  0.7255
 
              Baa    -0.0446    -5.987    -2.136    -1.997 -0.0055 -0.4792  0.8777
    11 C(13)  Bbb     0.0202     2.710     0.967     0.904  0.0305  0.8772  0.4792
              Bcc     0.0244     3.277     1.169     1.093  0.9995 -0.0295 -0.0098
 
              Baa    -0.0694    -9.317    -3.325    -3.108  0.9061  0.3198  0.2769
    12 C(13)  Bbb    -0.0643    -8.634    -3.081    -2.880 -0.4225  0.6499  0.6318
              Bcc     0.1338    17.951     6.405     5.988  0.0220 -0.6895  0.7240
 
              Baa    -0.0179    -2.402    -0.857    -0.801  0.2478  0.9301 -0.2709
    13 C(13)  Bbb     0.0077     1.028     0.367     0.343 -0.0995  0.3026  0.9479
              Bcc     0.0102     1.374     0.490     0.458  0.9637 -0.2079  0.1676
 
              Baa    -0.0043    -2.320    -0.828    -0.774  0.3818 -0.5089  0.7716
    14 H(1)   Bbb    -0.0026    -1.385    -0.494    -0.462  0.9194  0.1239 -0.3732
              Bcc     0.0069     3.705     1.322     1.236  0.0943  0.8519  0.5152
 
              Baa    -0.0028    -1.496    -0.534    -0.499  0.0129 -0.5833  0.8121
    15 H(1)   Bbb     0.0006     0.339     0.121     0.113 -0.1801  0.7975  0.5757
              Bcc     0.0022     1.157     0.413     0.386  0.9836  0.1537  0.0948
 
              Baa    -0.0051    -2.742    -0.978    -0.915 -0.6181  0.0110  0.7860
    16 H(1)   Bbb    -0.0036    -1.896    -0.676    -0.632 -0.5338  0.7281 -0.4300
              Bcc     0.0087     4.638     1.655     1.547  0.5770  0.6854  0.4442
 
              Baa    -0.0024    -0.318    -0.114    -0.106 -0.5462  0.7396  0.3933
    17 C(13)  Bbb    -0.0017    -0.229    -0.082    -0.076  0.8244  0.3913  0.4090
              Bcc     0.0041     0.547     0.195     0.182 -0.1486 -0.5476  0.8234
 
              Baa    -0.0004    -0.210    -0.075    -0.070  0.2266  0.7232 -0.6524
    18 H(1)   Bbb    -0.0003    -0.148    -0.053    -0.050  0.2898  0.5894  0.7540
              Bcc     0.0007     0.359     0.128     0.120  0.9299 -0.3600 -0.0760
 
              Baa    -0.0015    -0.788    -0.281    -0.263 -0.0442 -0.2156  0.9755
    19 H(1)   Bbb    -0.0007    -0.354    -0.126    -0.118  0.7309  0.6586  0.1787
              Bcc     0.0021     1.142     0.408     0.381 -0.6810  0.7209  0.1285
 
              Baa    -0.0002    -0.118    -0.042    -0.039 -0.1780 -0.3096  0.9341
    20 H(1)   Bbb    -0.0001    -0.059    -0.021    -0.020  0.0975  0.9390  0.3298
              Bcc     0.0003     0.177     0.063     0.059  0.9792 -0.1497  0.1369
 
              Baa    -0.0004    -0.188    -0.067    -0.063 -0.0997 -0.5903  0.8010
    21 H(1)   Bbb    -0.0002    -0.118    -0.042    -0.039 -0.4688  0.7379  0.4855
              Bcc     0.0006     0.305     0.109     0.102  0.8777  0.3270  0.3503
 
              Baa    -0.0004    -0.191    -0.068    -0.064 -0.5577  0.7381  0.3798
    22 H(1)   Bbb    -0.0002    -0.091    -0.032    -0.030 -0.1251 -0.5270  0.8406
              Bcc     0.0005     0.282     0.101     0.094  0.8206  0.4213  0.3862
 
              Baa    -0.0117    -0.478    -0.171    -0.159 -0.1788  0.2992  0.9373
    23 S(33)  Bbb    -0.0059    -0.240    -0.086    -0.080  0.7529 -0.5717  0.3261
              Bcc     0.0175     0.718     0.256     0.239  0.6334  0.7640 -0.1230
 
              Baa    -0.4764   -18.374    -6.556    -6.129  0.9777  0.0607 -0.2012
    24 N(14)  Bbb    -0.4758   -18.352    -6.548    -6.121 -0.0671  0.9974 -0.0248
              Bcc     0.9522    36.726    13.105    12.250  0.1992  0.0378  0.9792
 
              Baa    -0.0206    -2.760    -0.985    -0.921  0.7338 -0.6633  0.1465
    25 C(13)  Bbb     0.0018     0.241     0.086     0.080  0.6788  0.7248 -0.1182
              Bcc     0.0188     2.520     0.899     0.840 -0.0278  0.1862  0.9821
 
              Baa    -0.0425    -5.699    -2.033    -1.901  0.0354  0.7484 -0.6622
    26 C(13)  Bbb    -0.0362    -4.862    -1.735    -1.622  0.7669  0.4045  0.4982
              Bcc     0.0787    10.561     3.768     3.523  0.6408 -0.5255 -0.5597
 
              Baa    -0.0484    -6.488    -2.315    -2.164  0.8783  0.1964  0.4360
    27 C(13)  Bbb    -0.0421    -5.651    -2.016    -1.885 -0.2280 -0.6294  0.7429
              Bcc     0.0905    12.139     4.332     4.049 -0.4203  0.7518  0.5080
 
              Baa    -0.0201    -2.692    -0.961    -0.898 -0.1478  0.6075  0.7805
    28 C(13)  Bbb     0.0075     1.011     0.361     0.337 -0.5211  0.6229 -0.5835
              Bcc     0.0125     1.681     0.600     0.561  0.8406  0.4929 -0.2245
 
              Baa    -0.0195    -2.622    -0.936    -0.875 -0.3974  0.3594  0.8443
    29 C(13)  Bbb     0.0073     0.973     0.347     0.325  0.7346 -0.4269  0.5274
              Bcc     0.0123     1.649     0.588     0.550  0.5500  0.8298 -0.0943
 
              Baa    -0.0546    -7.321    -2.612    -2.442  0.6319 -0.5319  0.5637
    30 C(13)  Bbb    -0.0488    -6.542    -2.335    -2.182  0.7147  0.6813 -0.1583
              Bcc     0.1033    13.864     4.947     4.625 -0.2998  0.5029  0.8107
 
              Baa    -0.0042    -2.252    -0.803    -0.751 -0.2083  0.5957  0.7757
    31 H(1)   Bbb    -0.0018    -0.950    -0.339    -0.317  0.7390  0.6154 -0.2741
              Bcc     0.0060     3.202     1.142     1.068  0.6407 -0.5162  0.5684
 
              Baa    -0.0040    -2.152    -0.768    -0.718 -0.3952  0.4382  0.8073
    32 H(1)   Bbb    -0.0022    -1.167    -0.417    -0.389  0.5646  0.8091 -0.1627
              Bcc     0.0062     3.320     1.185     1.107  0.7245 -0.3916  0.5672
 
              Baa    -0.0023    -1.238    -0.442    -0.413 -0.4058  0.5867  0.7008
    33 H(1)   Bbb     0.0008     0.432     0.154     0.144  0.5831  0.7566 -0.2958
              Bcc     0.0015     0.806     0.288     0.269  0.7038 -0.2887  0.6491
 
              Baa    -0.0024    -1.263    -0.451    -0.421 -0.4162  0.5757  0.7038
    34 H(1)   Bbb     0.0009     0.490     0.175     0.164  0.8730  0.4694  0.1323
              Bcc     0.0014     0.773     0.276     0.258  0.2542 -0.6695  0.6980
 
              Baa    -0.0210    -2.815    -1.004    -0.939  0.8808  0.2082 -0.4253
    35 C(13)  Bbb     0.0012     0.158     0.056     0.053 -0.3293  0.9147 -0.2341
              Bcc     0.0198     2.657     0.948     0.886  0.3403  0.3462  0.8743
 
              Baa    -0.0474    -6.365    -2.271    -2.123  0.0908  0.7578 -0.6462
    36 C(13)  Bbb    -0.0410    -5.508    -1.965    -1.837 -0.2714  0.6431  0.7161
              Bcc     0.0885    11.873     4.236     3.960  0.9582  0.1103  0.2640
 
              Baa    -0.0428    -5.738    -2.048    -1.914 -0.4627  0.5194  0.7184
    37 C(13)  Bbb    -0.0369    -4.949    -1.766    -1.651 -0.1669  0.7448 -0.6460
              Bcc     0.0796    10.687     3.814     3.565  0.8707  0.4189  0.2579
 
              Baa    -0.0171    -2.299    -0.820    -0.767  0.6525  0.4021  0.6423
    38 C(13)  Bbb     0.0058     0.779     0.278     0.260 -0.5412 -0.3461  0.7664
              Bcc     0.0113     1.520     0.542     0.507 -0.5305  0.8477  0.0082
 
              Baa    -0.0216    -2.904    -1.036    -0.969  0.7890  0.0526  0.6121
    39 C(13)  Bbb     0.0086     1.154     0.412     0.385 -0.6098 -0.0543  0.7907
              Bcc     0.0130     1.751     0.625     0.584 -0.0748  0.9971  0.0107
 
              Baa    -0.0546    -7.331    -2.616    -2.445 -0.5907 -0.1560  0.7916
    40 C(13)  Bbb    -0.0489    -6.556    -2.339    -2.187 -0.2575  0.9663 -0.0017
              Bcc     0.1035    13.887     4.955     4.632  0.7647  0.2048  0.6110
 
              Baa    -0.0043    -2.320    -0.828    -0.774  0.6963  0.3849  0.6058
    41 H(1)   Bbb    -0.0020    -1.059    -0.378    -0.353 -0.4869  0.8734  0.0048
              Bcc     0.0063     3.379     1.206     1.127 -0.5273 -0.2983  0.7956
 
              Baa    -0.0041    -2.211    -0.789    -0.737  0.8059  0.1060  0.5825
    42 H(1)   Bbb    -0.0017    -0.895    -0.319    -0.299 -0.1737  0.9829  0.0614
              Bcc     0.0058     3.106     1.108     1.036 -0.5660 -0.1507  0.8105
 
              Baa    -0.0024    -1.264    -0.451    -0.422  0.8422  0.2679  0.4679
    43 H(1)   Bbb     0.0007     0.379     0.135     0.127 -0.1390  0.9464 -0.2916
              Bcc     0.0017     0.885     0.316     0.295 -0.5210  0.1805  0.8343
 
              Baa    -0.0023    -1.241    -0.443    -0.414  0.8515  0.2478  0.4622
    44 H(1)   Bbb     0.0009     0.504     0.180     0.168 -0.2979  0.9539  0.0375
              Bcc     0.0014     0.737     0.263     0.246 -0.4316 -0.1696  0.8860
 
              Baa    -0.0895     6.476     2.311     2.160  0.1958  0.7769 -0.5984
    45 O(17)  Bbb    -0.0864     6.250     2.230     2.085 -0.5554  0.5908  0.5853
              Bcc     0.1759   -12.727    -4.541    -4.245  0.8082  0.2177  0.5471
 
              Baa    -0.0048    -2.554    -0.911    -0.852  0.0268  0.9212 -0.3881
    46 H(1)   Bbb    -0.0029    -1.551    -0.553    -0.517  0.8060  0.2097  0.5535
              Bcc     0.0077     4.105     1.465     1.369 -0.5913  0.3277  0.7369
 
              Baa    -0.0888     6.423     2.292     2.143  0.9336  0.1188  0.3380
    47 O(17)  Bbb    -0.0856     6.196     2.211     2.067  0.0928  0.8310 -0.5485
              Bcc     0.1744   -12.619    -4.503    -4.209 -0.3460  0.5435  0.7648
 
              Baa    -0.0048    -2.541    -0.907    -0.848  0.9204  0.3608  0.1508
    48 H(1)   Bbb    -0.0029    -1.537    -0.548    -0.513 -0.3386  0.5425  0.7688
              Bcc     0.0076     4.078     1.455     1.360 -0.1956  0.7586 -0.6215
 

 ---------------------------------------------------------------------------------

 No NMR shielding tensors so no spin-rotation constants.
 Leave Link  601 at Tue Jan 19 00:33:16 2021, MaxMem=  4026531840 cpu:               6.6 elap:               0.9
 (Enter /opt/ohpc/pub/libs/gaussian/g16-A.03/sandybridge/g16/l9999.exe)

 Test job not archived.
 1\1\GINC-CASCADEB025\SP\ULC-wHPBE\TZVP\C24H19N1O2S2(1+,2)\RDU230\19-Ja
 n-2021\0\\#P LC-wHPBE/TZVP iop(3/107=0176500000, 3/108=0176500000) scf
 =(conver=6,fermi,ndamp=35,noincfock,novaracc,vshift=500,xqc)\\H19 C24 
 S2 N1 O2\\1,2\C,0,-6.54463,-1.193879,0.12701\C,0,-5.283469,-0.647909,0
 .131523\S,0,-3.665919,-1.107322,1.042984\C,0,-4.996815,0.486583,-0.537
 83\C,0,-1.475687,0.036886,0.221747\C,0,-1.772288,-1.094442,0.892846\C,
 0,-7.517398,-0.549399,-0.618903\C,0,-5.951198,1.159916,-1.262339\H,0,-
 2.843406,1.345523,-1.332578\C,0,-0.186077,0.430997,-0.028463\C,0,-0.77
 363,-1.912541,1.366813\C,0,0.53691,-1.552052,1.124661\C,0,0.845585,-0.
 387156,0.425435\H,0,0.045427,1.33981,-0.567415\H,0,-0.986976,-2.816418
 ,1.923251\H,0,1.342687,-2.175375,1.48462\C,0,-7.223748,0.615229,-1.306
 247\H,0,-6.782458,-2.097666,0.673346\H,0,-3.815781,-2.43941,0.928305\H
 ,0,-8.517553,-0.958288,-0.663525\H,0,-5.730059,2.077989,-1.791552\H,0,
 -7.997253,1.105431,-1.881471\S,0,-3.166075,0.851646,-0.124057\N,0,2.18
 2887,-0.044483,0.184905\C,0,3.146505,-1.044921,-0.067172\C,0,4.392012,
 -0.989098,0.539344\C,0,2.878694,-2.090316,-0.930362\C,0,5.345494,-1.94
 6131,0.285899\C,0,3.822608,-3.066997,-1.170354\C,0,5.062274,-2.995295,
 -0.567641\H,0,4.612943,-0.17489,1.215121\H,0,1.913696,-2.145516,-1.414
 069\H,0,6.317156,-1.901598,0.755555\H,0,3.591387,-3.881585,-1.84538\C,
 0,2.575405,1.310294,0.123192\C,0,3.391681,1.763268,-0.894977\C,0,2.164
 04,2.211964,1.09371\C,0,3.796835,3.081396,-0.942072\C,0,2.544098,3.531
 176,1.038879\C,0,3.368807,3.972023,0.020733\H,0,3.723839,1.07184,-1.65
 6403\H,0,1.529535,1.868488,1.898614\H,0,4.442764,3.41523,-1.744528\H,0
 ,2.220724,4.234697,1.791974\O,0,3.726245,5.28132,0.019257\H,0,4.294203
 ,5.466041,-0.728132\O,0,6.032969,-3.920806,-0.776143\H,0,5.721078,-4.5
 93785,-1.380389\\Version=EM64L-G16RevA.03\State=2-A\HF=-1926.1984224\S
 2=0.763785\S2-1=0.\S2A=0.750169\RMSD=1.006e-07\Dipole=2.8396937,-0.562
 5246,-1.1926398\Quadrupole=28.585789,0.9641714,-29.5499604,4.8851395,-
 5.4340092,-3.4753118\PG=C01 [X(C24H19N1O2S2)]\\@


 MAN IS THE MEASURE OF ALL THINGS.
  -- PROTAGORAS (5TH CENTURY B.C.)
 Job cpu time:       0 days 21 hours 15 minutes  5.7 seconds.
 Elapsed time:       0 days  2 hours 39 minutes 55.3 seconds.
 File lengths (MBytes):  RWF=    264 Int=      0 D2E=      0 Chk=     36 Scr=      8
 Normal termination of Gaussian 16 at Tue Jan 19 00:33:17 2021.
