 Entering Gaussian System, Link 0=g16
 Input=mol_ta_ma_half_tune_c10.gjf
 Output=mol_ta_ma_half_tune_c10.log
 Initial command:
 /opt/ohpc/pub/libs/gaussian/g16-A.03/sandybridge/g16/l1.exe "/mnt/gpfs2_4m/scratch/rdu230/ondemand/projects/init_structures/wtuning/mol_ta_ma_half/tuning_mol_ta_ma_half_ocycle0/Gau-190870.inp" -scrdir="/mnt/gpfs2_4m/scratch/rdu230/ondemand/projects/init_structures/wtuning/mol_ta_ma_half/tuning_mol_ta_ma_half_ocycle0/"
 Entering Link 1 = /opt/ohpc/pub/libs/gaussian/g16-A.03/sandybridge/g16/l1.exe PID=    190871.
  
 Copyright (c) 1988,1990,1992,1993,1995,1998,2003,2009,2016,
            Gaussian, Inc.  All Rights Reserved.
  
 This is part of the Gaussian(R) 16 program.  It is based on
 the Gaussian(R) 09 system (copyright 2009, Gaussian, Inc.),
 the Gaussian(R) 03 system (copyright 2003, Gaussian, Inc.),
 the Gaussian(R) 98 system (copyright 1998, Gaussian, Inc.),
 the Gaussian(R) 94 system (copyright 1995, Gaussian, Inc.),
 the Gaussian 92(TM) system (copyright 1992, Gaussian, Inc.),
 the Gaussian 90(TM) system (copyright 1990, Gaussian, Inc.),
 the Gaussian 88(TM) system (copyright 1988, Gaussian, Inc.),
 the Gaussian 86(TM) system (copyright 1986, Carnegie Mellon
 University), and the Gaussian 82(TM) system (copyright 1983,
 Carnegie Mellon University). Gaussian is a federally registered
 trademark of Gaussian, Inc.
  
 This software contains proprietary and confidential information,
 including trade secrets, belonging to Gaussian, Inc.
  
 This software is provided under written license and may be
 used, copied, transmitted, or stored only in accord with that
 written license.
  
 The following legend is applicable only to US Government
 contracts under FAR:
  
                    RESTRICTED RIGHTS LEGEND
  
 Use, reproduction and disclosure by the US Government is
 subject to restrictions as set forth in subparagraphs (a)
 and (c) of the Commercial Computer Software - Restricted
 Rights clause in FAR 52.227-19.
  
 Gaussian, Inc.
 340 Quinnipiac St., Bldg. 40, Wallingford CT 06492
  
  
 ---------------------------------------------------------------
 Warning -- This program may not be used in any manner that
 competes with the business of Gaussian, Inc. or will provide
 assistance to any competitor of Gaussian, Inc.  The licensee
 of this program is prohibited from giving any competitor of
 Gaussian, Inc. access to this program.  By using this program,
 the user acknowledges that Gaussian, Inc. is engaged in the
 business of creating and licensing software in the field of
 computational chemistry and represents and warrants to the
 licensee that it is not a competitor of Gaussian, Inc. and that
 it will not use this program in any manner prohibited above.
 ---------------------------------------------------------------
  

 Cite this work as:
 Gaussian 16, Revision A.03,
 M. J. Frisch, G. W. Trucks, H. B. Schlegel, G. E. Scuseria, 
 M. A. Robb, J. R. Cheeseman, G. Scalmani, V. Barone, 
 G. A. Petersson, H. Nakatsuji, X. Li, M. Caricato, A. V. Marenich, 
 J. Bloino, B. G. Janesko, R. Gomperts, B. Mennucci, H. P. Hratchian, 
 J. V. Ortiz, A. F. Izmaylov, J. L. Sonnenberg, D. Williams-Young, 
 F. Ding, F. Lipparini, F. Egidi, J. Goings, B. Peng, A. Petrone, 
 T. Henderson, D. Ranasinghe, V. G. Zakrzewski, J. Gao, N. Rega, 
 G. Zheng, W. Liang, M. Hada, M. Ehara, K. Toyota, R. Fukuda, 
 J. Hasegawa, M. Ishida, T. Nakajima, Y. Honda, O. Kitao, H. Nakai, 
 T. Vreven, K. Throssell, J. A. Montgomery, Jr., J. E. Peralta, 
 F. Ogliaro, M. J. Bearpark, J. J. Heyd, E. N. Brothers, K. N. Kudin, 
 V. N. Staroverov, T. A. Keith, R. Kobayashi, J. Normand, 
 K. Raghavachari, A. P. Rendell, J. C. Burant, S. S. Iyengar, 
 J. Tomasi, M. Cossi, J. M. Millam, M. Klene, C. Adamo, R. Cammi, 
 J. W. Ochterski, R. L. Martin, K. Morokuma, O. Farkas, 
 J. B. Foresman, and D. J. Fox, Gaussian, Inc., Wallingford CT, 2016.
 
 ******************************************
 Gaussian 16:  EM64L-G16RevA.03 25-Dec-2016
                19-Jan-2021 
 ******************************************
 %mem=30GB
 %nproc=8
 Will use up to    8 processors via shared memory.
 ----------------------------------------------------------------------
 #P LC-wHPBE/TZVP iop(3/107=0177800000, 3/108=0177800000) scf=(conver=6
 ,fermi,ndamp=35,noincfock,novaracc,vshift=500,xqc)
 ----------------------------------------------------------------------
 1/38=1,172=1/1;
 2/12=2,17=6,18=5,40=1/2;
 3/5=19,7=101,11=2,25=1,30=1,74=-71,107=177800000,108=177800000/1,2,3;
 4//1;
 5/5=100002,6=6,8=3,10=500,13=1,18=-1,22=13,38=1,93=35/2,8;
 6/7=2,8=2,9=2,10=2,28=1/1;
 99/5=1,9=1/99;
 Leave Link    1 at Tue Jan 19 04:00:31 2021, MaxMem=  4026531840 cpu:               1.0 elap:               0.2
 (Enter /opt/ohpc/pub/libs/gaussian/g16-A.03/sandybridge/g16/l101.exe)
 ----------------
 H19 C24 S2 N1 O2
 ----------------
 Symbolic Z-matrix:
 Charge =  1 Multiplicity = 2
 C                    -6.54463  -1.19388   0.12701 
 C                    -5.28347  -0.64791   0.13152 
 S                    -3.66592  -1.10732   1.04298 
 C                    -4.99682   0.48658  -0.53783 
 C                    -1.47569   0.03689   0.22175 
 C                    -1.77229  -1.09444   0.89285 
 C                    -7.5174   -0.5494   -0.6189 
 C                    -5.9512    1.15992  -1.26234 
 H                    -2.84341   1.34552  -1.33258 
 C                    -0.18608   0.431    -0.02846 
 C                    -0.77363  -1.91254   1.36681 
 C                     0.53691  -1.55205   1.12466 
 C                     0.84559  -0.38716   0.42544 
 H                     0.04543   1.33981  -0.56742 
 H                    -0.98698  -2.81642   1.92325 
 H                     1.34269  -2.17537   1.48462 
 C                    -7.22375   0.61523  -1.30625 
 H                    -6.78246  -2.09767   0.67335 
 H                    -3.81578  -2.43941   0.92831 
 H                    -8.51755  -0.95829  -0.66353 
 H                    -5.73006   2.07799  -1.79155 
 H                    -7.99725   1.10543  -1.88147 
 S                    -3.16608   0.85165  -0.12406 
 N                     2.18289  -0.04448   0.18491 
 C                     3.1465   -1.04492  -0.06717 
 C                     4.39201  -0.9891    0.53934 
 C                     2.87869  -2.09032  -0.93036 
 C                     5.34549  -1.94613   0.2859 
 C                     3.82261  -3.067    -1.17035 
 C                     5.06227  -2.9953   -0.56764 
 H                     4.61294  -0.17489   1.21512 
 H                     1.9137   -2.14552  -1.41407 
 H                     6.31716  -1.9016    0.75556 
 H                     3.59139  -3.88159  -1.84538 
 C                     2.5754    1.31029   0.12319 
 C                     3.39168   1.76327  -0.89498 
 C                     2.16404   2.21196   1.09371 
 C                     3.79684   3.0814   -0.94207 
 C                     2.5441    3.53118   1.03888 
 C                     3.36881   3.97202   0.02073 
 H                     3.72384   1.07184  -1.6564 
 H                     1.52954   1.86849   1.89861 
 H                     4.44276   3.41523  -1.74453 
 H                     2.22072   4.2347    1.79197 
 O                     3.72625   5.28132   0.01926 
 H                     4.2942    5.46604  -0.72813 
 O                     6.03297  -3.92081  -0.77614 
 H                     5.72108  -4.59379  -1.38039 
 
 ITRead=  0  0  0  0  0  0  0  0  0  0  0  0  0  0  0  0  0  0  0  0
 ITRead=  0  0  0  0  0  0  0  0  0  0  0  0  0  0  0  0  0  0  0  0
 ITRead=  0  0  0  0  0  0  0  0
 MicOpt= -1 -1 -1 -1 -1 -1 -1 -1 -1 -1 -1 -1 -1 -1 -1 -1 -1 -1 -1 -1
 MicOpt= -1 -1 -1 -1 -1 -1 -1 -1 -1 -1 -1 -1 -1 -1 -1 -1 -1 -1 -1 -1
 MicOpt= -1 -1 -1 -1 -1 -1 -1 -1
 NAtoms=     48 NQM=       48 NQMF=       0 NMMI=      0 NMMIF=      0
                NMic=       0 NMicF=      0.
                    Isotopes and Nuclear Properties:
 (Nuclear quadrupole moments (NQMom) in fm**2, nuclear magnetic moments (NMagM)
  in nuclear magnetons)

  Atom         1           2           3           4           5           6           7           8           9          10
 IAtWgt=          12          12          32          12          12          12          12          12           1          12
 AtmWgt=  12.0000000  12.0000000  31.9720718  12.0000000  12.0000000  12.0000000  12.0000000  12.0000000   1.0078250  12.0000000
 NucSpn=           0           0           0           0           0           0           0           0           1           0
 AtZEff=  -0.0000000  -0.0000000  -0.0000000  -0.0000000  -0.0000000  -0.0000000  -0.0000000  -0.0000000  -0.0000000  -0.0000000
 NQMom=    0.0000000   0.0000000   0.0000000   0.0000000   0.0000000   0.0000000   0.0000000   0.0000000   0.0000000   0.0000000
 NMagM=    0.0000000   0.0000000   0.0000000   0.0000000   0.0000000   0.0000000   0.0000000   0.0000000   2.7928460   0.0000000
 AtZNuc=   6.0000000   6.0000000  16.0000000   6.0000000   6.0000000   6.0000000   6.0000000   6.0000000   1.0000000   6.0000000

  Atom        11          12          13          14          15          16          17          18          19          20
 IAtWgt=          12          12          12           1           1           1          12           1           1           1
 AtmWgt=  12.0000000  12.0000000  12.0000000   1.0078250   1.0078250   1.0078250  12.0000000   1.0078250   1.0078250   1.0078250
 NucSpn=           0           0           0           1           1           1           0           1           1           1
 AtZEff=  -0.0000000  -0.0000000  -0.0000000  -0.0000000  -0.0000000  -0.0000000  -0.0000000  -0.0000000  -0.0000000  -0.0000000
 NQMom=    0.0000000   0.0000000   0.0000000   0.0000000   0.0000000   0.0000000   0.0000000   0.0000000   0.0000000   0.0000000
 NMagM=    0.0000000   0.0000000   0.0000000   2.7928460   2.7928460   2.7928460   0.0000000   2.7928460   2.7928460   2.7928460
 AtZNuc=   6.0000000   6.0000000   6.0000000   1.0000000   1.0000000   1.0000000   6.0000000   1.0000000   1.0000000   1.0000000

  Atom        21          22          23          24          25          26          27          28          29          30
 IAtWgt=           1           1          32          14          12          12          12          12          12          12
 AtmWgt=   1.0078250   1.0078250  31.9720718  14.0030740  12.0000000  12.0000000  12.0000000  12.0000000  12.0000000  12.0000000
 NucSpn=           1           1           0           2           0           0           0           0           0           0
 AtZEff=  -0.0000000  -0.0000000  -0.0000000  -0.0000000  -0.0000000  -0.0000000  -0.0000000  -0.0000000  -0.0000000  -0.0000000
 NQMom=    0.0000000   0.0000000   0.0000000   2.0440000   0.0000000   0.0000000   0.0000000   0.0000000   0.0000000   0.0000000
 NMagM=    2.7928460   2.7928460   0.0000000   0.4037610   0.0000000   0.0000000   0.0000000   0.0000000   0.0000000   0.0000000
 AtZNuc=   1.0000000   1.0000000  16.0000000   7.0000000   6.0000000   6.0000000   6.0000000   6.0000000   6.0000000   6.0000000

  Atom        31          32          33          34          35          36          37          38          39          40
 IAtWgt=           1           1           1           1          12          12          12          12          12          12
 AtmWgt=   1.0078250   1.0078250   1.0078250   1.0078250  12.0000000  12.0000000  12.0000000  12.0000000  12.0000000  12.0000000
 NucSpn=           1           1           1           1           0           0           0           0           0           0
 AtZEff=  -0.0000000  -0.0000000  -0.0000000  -0.0000000  -0.0000000  -0.0000000  -0.0000000  -0.0000000  -0.0000000  -0.0000000
 NQMom=    0.0000000   0.0000000   0.0000000   0.0000000   0.0000000   0.0000000   0.0000000   0.0000000   0.0000000   0.0000000
 NMagM=    2.7928460   2.7928460   2.7928460   2.7928460   0.0000000   0.0000000   0.0000000   0.0000000   0.0000000   0.0000000
 AtZNuc=   1.0000000   1.0000000   1.0000000   1.0000000   6.0000000   6.0000000   6.0000000   6.0000000   6.0000000   6.0000000

  Atom        41          42          43          44          45          46          47          48
 IAtWgt=           1           1           1           1          16           1          16           1
 AtmWgt=   1.0078250   1.0078250   1.0078250   1.0078250  15.9949146   1.0078250  15.9949146   1.0078250
 NucSpn=           1           1           1           1           0           1           0           1
 AtZEff=  -0.0000000  -0.0000000  -0.0000000  -0.0000000  -0.0000000  -0.0000000  -0.0000000  -0.0000000
 NQMom=    0.0000000   0.0000000   0.0000000   0.0000000   0.0000000   0.0000000   0.0000000   0.0000000
 NMagM=    2.7928460   2.7928460   2.7928460   2.7928460   0.0000000   2.7928460   0.0000000   2.7928460
 AtZNuc=   1.0000000   1.0000000   1.0000000   1.0000000   8.0000000   1.0000000   8.0000000   1.0000000
 Leave Link  101 at Tue Jan 19 04:00:31 2021, MaxMem=  4026531840 cpu:               0.9 elap:               0.1
 (Enter /opt/ohpc/pub/libs/gaussian/g16-A.03/sandybridge/g16/l202.exe)
                          Input orientation:                          
 ---------------------------------------------------------------------
 Center     Atomic      Atomic             Coordinates (Angstroms)
 Number     Number       Type             X           Y           Z
 ---------------------------------------------------------------------
      1          6           0       -6.544630   -1.193879    0.127010
      2          6           0       -5.283469   -0.647909    0.131523
      3         16           0       -3.665919   -1.107322    1.042984
      4          6           0       -4.996815    0.486583   -0.537830
      5          6           0       -1.475687    0.036886    0.221747
      6          6           0       -1.772288   -1.094442    0.892846
      7          6           0       -7.517398   -0.549399   -0.618903
      8          6           0       -5.951198    1.159916   -1.262339
      9          1           0       -2.843406    1.345523   -1.332578
     10          6           0       -0.186077    0.430997   -0.028463
     11          6           0       -0.773630   -1.912541    1.366813
     12          6           0        0.536910   -1.552052    1.124661
     13          6           0        0.845585   -0.387156    0.425435
     14          1           0        0.045427    1.339810   -0.567415
     15          1           0       -0.986976   -2.816418    1.923251
     16          1           0        1.342687   -2.175375    1.484620
     17          6           0       -7.223748    0.615229   -1.306247
     18          1           0       -6.782458   -2.097666    0.673346
     19          1           0       -3.815781   -2.439410    0.928305
     20          1           0       -8.517553   -0.958288   -0.663525
     21          1           0       -5.730059    2.077989   -1.791552
     22          1           0       -7.997253    1.105431   -1.881471
     23         16           0       -3.166075    0.851646   -0.124057
     24          7           0        2.182887   -0.044483    0.184905
     25          6           0        3.146505   -1.044921   -0.067172
     26          6           0        4.392012   -0.989098    0.539344
     27          6           0        2.878694   -2.090316   -0.930362
     28          6           0        5.345494   -1.946131    0.285899
     29          6           0        3.822608   -3.066997   -1.170354
     30          6           0        5.062274   -2.995295   -0.567641
     31          1           0        4.612943   -0.174890    1.215121
     32          1           0        1.913696   -2.145516   -1.414069
     33          1           0        6.317156   -1.901598    0.755555
     34          1           0        3.591387   -3.881585   -1.845380
     35          6           0        2.575405    1.310294    0.123192
     36          6           0        3.391681    1.763268   -0.894977
     37          6           0        2.164040    2.211964    1.093710
     38          6           0        3.796835    3.081396   -0.942072
     39          6           0        2.544098    3.531176    1.038879
     40          6           0        3.368807    3.972023    0.020733
     41          1           0        3.723839    1.071840   -1.656403
     42          1           0        1.529535    1.868488    1.898614
     43          1           0        4.442764    3.415230   -1.744528
     44          1           0        2.220724    4.234697    1.791974
     45          8           0        3.726245    5.281320    0.019257
     46          1           0        4.294203    5.466041   -0.728132
     47          8           0        6.032969   -3.920806   -0.776143
     48          1           0        5.721078   -4.593785   -1.380389
 ---------------------------------------------------------------------
                    Distance matrix (angstroms):
                    1          2          3          4          5
     1  C    0.000000
     2  C    1.374275   0.000000
     3  S    3.022164   1.912666   0.000000
     4  C    2.379432   1.348064   2.609749   0.000000
     5  C    5.217082   3.869921   2.603989   3.630086   0.000000
     6  C    4.834422   3.620414   1.899617   3.865753   1.348425
     7  C    1.384925   2.358661   4.231671   2.726384   6.128025
     8  C    2.796927   2.378433   3.959467   1.374459   4.847051
     9  H    4.719960   3.474373   3.512303   2.450831   2.449309
    10  C    6.564723   5.212777   3.952686   4.837948   1.371504
    11  C    5.946262   4.843953   3.019698   5.217159   2.367346
    12  C    7.160433   5.973325   4.227083   6.127154   2.718552
    13  C    7.440103   6.141635   4.610171   5.985394   2.368460
    14  H    7.094410   5.730329   4.728206   5.114008   2.152713
    15  H    6.061900   5.135423   3.297365   5.748525   3.357871
    16  H    8.063263   6.933251   5.140225   7.166981   3.798971
    17  C    2.405888   2.725323   4.598284   2.359289   5.975739
    18  H    1.082532   2.154608   3.290931   3.366573   5.737776
    19  H    3.104841   2.449172   1.345388   3.479343   3.479555
    20  H    2.138428   3.344807   5.145166   3.807761   7.166726
    21  H    3.879372   3.365736   4.737243   2.154539   5.130220
    22  H    3.380967   3.806701   5.675312   3.345291   6.935138
    23  S    3.957504   2.607172   2.334392   1.912090   1.908095
    24  N    8.803069   7.490891   6.006202   7.235503   3.659664
    25  C    9.694225   8.441656   6.902569   8.299439   4.755885
    26  C   10.946328   9.690081   8.074521   9.564937   5.965183
    27  C    9.524740   8.356377   6.905963   8.295669   4.981263
    28  C   11.914956  10.709065   9.081979  10.656453   7.103871
    29  C   10.614676   9.511441   8.050915   9.529441   6.296345
    30  C   11.766387  10.631719   9.074134  10.644700   7.249979
    31  H   11.256721   9.966790   8.332984   9.790701   6.172767
    32  H    8.650076   7.512048   6.184421   7.446536   4.350482
    33  H   12.896568  11.684847  10.018746  11.635385   8.048048
    34  H   10.670189   9.650278   8.289009   9.723569   6.730726
    35  C    9.457586   8.099168   6.756109   7.645519   4.247661
    36  C   10.417267   9.062323   7.861660   8.492605   5.283819
    37  C    9.400809   8.035550   6.708849   7.544316   4.328845
    38  C   11.241299   9.874829   8.785130   9.177404   6.198629
    39  C   10.284096   8.919577   7.751128   8.283775   5.388547
    40  C   11.179180   9.809074   8.736825   9.079863   6.244584
    41  H   10.665622   9.342688   8.163575   8.811557   5.624380
    42  H    8.815260   7.474750   6.048164   7.102054   3.898462
    43  H   12.061068  10.706459   9.694041   9.956844   7.092779
    44  H   10.443801   9.105485   7.984405   8.459859   5.809534
    45  O   12.142104  10.786255   9.823790   9.969535   7.389532
    46  H   12.750141  11.395227  10.474230  10.542971   7.979325
    47  O   12.901466  11.815138  10.261254  11.880152   8.546287
    48  H   12.817145  11.787954  10.302615  11.890890   8.706514
                    6          7          8          9         10
     6  C    0.000000
     7  C    5.965630   0.000000
     8  C    5.214426   2.405982   0.000000
     9  H    3.471777   5.093747   3.114122   0.000000
    10  C    2.385758   7.420112   5.940572   3.098140   0.000000
    11  C    1.375227   7.160980   6.569600   4.710166   2.790015
    12  C    2.365489   8.301639   7.426176   5.085322   2.405180
    13  C    2.751724   8.429499   7.172048   4.438631   1.392740
    14  H    3.370761   7.795389   6.039436   2.988455   1.081667
    15  H    2.154913   7.365347   7.113559   5.600760   3.872510
    16  H    3.349878   9.250390   8.477659   6.152780   3.379307
    17  C    6.121879   1.383846   1.384917   4.440880   7.155102
    18  H    5.114337   2.146433   3.879396   5.603161   7.099219
    19  H    2.446643   4.434858   4.723778   4.514734   4.725399
    20  H    6.923830   1.081430   3.381057   6.160448   8.470355
    21  H    5.738838   3.387160   1.082510   3.013292   6.046222
    22  H    7.161457   2.136071   2.138372   5.188551   8.056238
    23  S    2.600768   4.598023   3.024504   1.344824   3.011058
    24  N    4.152951   9.746619   8.349157   5.431251   2.425613
    25  C    5.011847  10.689657   9.437051   6.572253   3.644988
    26  C    6.175326  11.973676  10.716637   7.829803   4.826797
    27  C    5.093867  10.514284   9.414946   6.686494   4.069799
    28  C    7.194205  12.970101  11.817776   8.972878   6.028917
    29  C    6.280974  11.629193  10.649063   7.995773   5.441455
    30  C    7.242755  12.815349  11.791732   9.051387   6.290896
    31  H    6.459149  12.273918  10.932547   8.024934   4.994416
    32  H    4.473599   9.598198   8.532612   5.901187   3.601023
    33  H    8.130772  13.968266  12.804580   9.940824   6.953253
    34  H    6.635892  11.662453  10.808219   8.306153   6.014049
    35  C    5.027679  10.289501   8.639749   5.611062   2.902059
    36  C    6.166798  11.154938   9.369545   6.264369   3.914862
    37  C    5.144642  10.212170   8.515566   5.631351   3.155022
    38  C    7.198589  11.886925   9.940765   6.874485   4.870614
    39  C    6.328417  10.983307   9.115291   6.279020   4.266636
    40  C    7.270523  11.805162   9.819201   6.879066   5.017817
    41  H    6.434195  11.404834   9.683459   6.580917   4.283493
    42  H    4.548907   9.696962   8.151998   5.462299   2.953529
    43  H    8.119098  12.650328  10.646755   7.585622   5.768596
    44  H    6.719546  11.114447   9.250049   6.614799   4.855390
    45  O    8.464477  12.681642  10.596290   7.776778   6.231707
    46  H    9.081290  13.255616  11.126380   8.263745   6.775995
    47  O    8.467343  13.964367  13.025758  10.336047   7.627172
    48  H    8.576919  13.863411  13.013879  10.422478   7.872142
                   11         12         13         14         15
    11  C    0.000000
    12  C    1.380618   0.000000
    13  C    2.415543   1.393262   0.000000
    14  H    3.871677   3.386376   2.146722   0.000000
    15  H    1.082651   2.135087   3.391614   4.954140   0.000000
    16  H    2.135827   1.080453   2.136986   4.272032   2.455741
    17  C    7.425557   8.416308   8.313702   7.342465   7.816853
    18  H    6.051544   7.353538   7.821403   7.744401   5.972142
    19  H    3.118423   4.446558   5.117906   5.606122   3.022282
    20  H    8.062333   9.248430   9.443536   8.866517   8.176408
    21  H    7.103928   7.807458   7.364174   5.949761   7.762204
    22  H    8.475862   9.430323   9.259882   8.152691   8.888239
    23  S    3.948065   4.587936   4.234382   3.278508   4.732297
    24  N    3.691550   2.421806   1.401305   2.655370   4.555601
    25  C    4.263395   2.913354   2.443266   3.943839   4.917891
    26  C    5.312373   3.939711   3.598952   5.053863   5.847034
    27  C    4.318343   3.161772   2.978669   4.463731   4.859397
    28  C    6.213951   4.897071   4.764352   6.294145   6.598371
    29  C    5.375443   4.284619   4.311700   5.835287   5.724096
    30  C    6.242775   5.042396   5.056585   6.630376   6.544461
    31  H    5.661944   4.303348   3.855081   5.131662   6.232031
    32  H    3.874184   2.948371   2.759795   4.044101   4.472327
    33  H    7.117092   5.802557   5.686880   7.182727   7.453238
    34  H    5.766168   4.855687   4.990698   6.439720   6.024829
    35  C    4.811371   3.653960   2.442328   2.622708   5.741126
    36  C    5.998090   4.818714   3.584748   3.388809   6.934592
    37  C    5.071098   4.100771   2.990040   2.829931   5.991800
    38  C    7.152587   6.030534   4.755082   4.152897   8.116596
    39  C    6.383488   5.465837   4.314462   3.691290   7.317277
    40  C    7.321189   6.305054   5.053006   4.280107   8.287059
    41  H    6.186565   4.977514   3.840191   3.845571   7.079848
    42  H    4.459099   3.644777   2.779564   2.926325   5.318062
    43  H    8.079378   6.939873   5.666266   5.002953   9.042572
    44  H    6.850945   6.063580   5.011982   4.321921   7.747567
    45  O    8.591648   7.621598   6.371405   5.424768   9.561015
    46  H    9.193215   8.173354   6.890834   5.924838  10.174469
    47  O    7.413176   6.279388   6.390573   7.972974   7.601712
    48  H    7.544363   6.511760   6.687837   8.251151   7.685770
                   16         17         18         19         20
    16  H    0.000000
    17  C    9.431872   0.000000
    18  H    8.165916   3.387230   0.000000
    19  H    5.195093   5.092964   2.997160   0.000000
    20  H   10.164653   2.136113   2.469000   5.180184   0.000000
    21  H    8.879648   2.146228   4.961790   5.609722   4.273353
    22  H   10.456038   1.081430   4.273482   6.159988   2.452150
    23  S    5.663888   4.232987   4.734186   3.515769   5.674963
    24  N    2.633609   9.546912   9.210404   6.501718  10.772850
    25  C    2.634339  10.575138  10.012040   7.170007  11.679614
    26  C    3.405757  11.870381  11.230123   8.344014  12.965520
    27  C    2.863336  10.465209   9.793354   6.956472  11.455441
    28  C    4.184728  12.925995  12.135085   9.197009  13.930589
    29  C    3.740840  11.644709  10.807694   7.946271  12.529290
    30  C    4.326589  12.826837  11.943344   9.020351  13.732090
    31  H    3.843064  12.128019  11.569172   8.732337  13.287323
    32  H    2.954546   9.546006   8.943304   6.196773  10.525388
    33  H    5.035060  13.926289  13.101339  10.148670  14.932254
    34  H    4.365399  11.725150  10.823262   8.039859  12.512748
    35  C    3.939920   9.927226   9.974290   7.453573  11.349850
    36  C    5.037238  10.685245  10.994524   8.540162  12.218441
    37  C    4.480644   9.820383   9.939288   7.577658  11.279840
    38  C    6.288507  11.299020  11.889226   9.587989  12.963055
    39  C    5.848658  10.460075  10.899639   8.724000  12.058756
    40  C    6.636161  11.190673  11.845472   9.672046  12.886494
    41  H    5.106889  10.962699  11.218546   8.709504  12.448249
    42  H    4.069291   9.405411   9.290903   6.933389  10.747055
    43  H    7.161895  12.005815  12.737494  10.470168  13.721007
    44  H    6.477225  10.578165  11.063789   9.040410  12.178143
    45  O    7.964354  11.976298  12.857298  10.831352  13.758978
    46  H    8.485220  12.511107  13.485779  11.446038  14.332385
    47  O    5.491477  14.021311  13.025361  10.104333  14.849474
    48  H    5.764312  13.953775  12.914598  10.046048  14.712897
                   21         22         23         24         25
    21  H    0.000000
    22  H    2.468628   0.000000
    23  S    3.295219   5.147154   0.000000
    24  N    8.427692  10.451194   5.432301   0.000000
    25  C    9.566579  11.493435   6.591576   1.411729   0.000000
    26  C   10.830347  12.796143   7.807248   2.428612   1.386458
    27  C    9.603491  11.375572   6.770857   2.431748   1.381908
    28  C   11.965668  13.857793   8.968970   3.691686   2.402580
    29  C   10.867852  12.554838   8.080358   3.696079   2.400608
    30  C   11.987936  13.751122   9.094034   4.191001   2.779316
    31  H   11.004237  13.047802   7.959918   2.642636   2.133464
    32  H    8.741137  10.440978   6.037482   2.653963   2.131961
    33  H   12.940644  14.862652   9.913916   4.568008   3.385824
    34  H   11.063850  12.616188   8.427913   4.563911   3.377367
    35  C    8.557823  10.762980   5.765074   1.411843   2.430932
    36  C    9.171098  11.450491   6.665548   2.428022   2.937907
    37  C    8.405920  10.645562   5.634141   2.432660   3.594466
    38  C    9.617180  11.995308   7.356837   3.694053   4.267888
    39  C    8.864805  11.204140   6.413921   3.693925   4.746252
    40  C    9.468955  11.875313   7.243093   4.191143   5.022636
    41  H    9.508248  11.723301   7.061691   2.647853   2.709178
    42  H    8.146344  10.277694   5.212861   2.650118   3.868702
    43  H   10.260446  12.653377   8.190990   4.560633   4.938295
    44  H    8.983763  11.300157   6.643328   4.571158   5.673435
    45  O   10.147021  12.589330   8.194304   5.547393   6.353337
    46  H   10.634641  13.092937   8.792798   5.971362   6.644299
    47  O   13.243316  14.944294  10.383830   5.547308   4.135823
    48  H   13.259342  14.863538  10.498218   5.972026   4.576833
                   26         27         28         29         30
    26  C    0.000000
    27  C    2.379674   0.000000
    28  C    1.374509   2.754121   0.000000
    29  C    2.750446   1.379303   2.386670   0.000000
    30  C    2.387361   2.391354   1.381843   1.380281   0.000000
    31  H    1.080935   3.358508   2.130112   3.831371   3.366723
    32  H    3.360830   1.080852   3.834955   2.133652   3.369289
    33  H    2.141397   3.834182   1.080133   3.360067   2.126441
    34  H    3.833326   2.133971   3.371235   1.082902   2.140476
    35  C    2.959805   3.572969   4.278337   4.731749   5.019947
    36  C    3.260898   3.887739   4.355628   4.857262   5.053905
    37  C    3.939287   4.808036   5.297543   5.978651   6.186711
    38  C    4.372385   5.252592   5.402063   6.152683   6.218336
    39  C    4.908890   5.965822   6.198039   7.074686   7.177530
    40  C    5.092016   6.156033   6.245170   7.153490   7.194271
    41  H    3.084676   3.352706   3.938331   4.168449   4.417963
    42  H    4.266988   5.049303   5.631493   6.247860   6.497618
    43  H    4.961527   5.781022   5.803598   6.537089   6.547036
    44  H    5.794101   6.917357   7.087671   8.040905   8.118804
    45  O    6.327075   7.480718   7.411418   8.433200   8.404271
    46  H    6.579125   7.690455   7.554718   8.557494   8.497641
    47  O    3.608068   3.650196   2.345186   2.402101   1.357311
    48  H    4.294829   3.814319   3.150817   2.445278   1.910432
                   31         32         33         34         35
    31  H    0.000000
    32  H    4.252287   0.000000
    33  H    2.469223   4.915000   0.000000
    34  H    4.914248   2.452471   4.256175   0.000000
    35  C    2.747661   3.839746   4.971603   5.644741   0.000000
    36  C    3.114555   4.210996   4.971308   5.727784   1.381362
    37  C    3.421833   5.033812   5.855264   6.914254   1.387132
    38  C    3.990352   5.575805   5.836453   7.024335   2.400725
    39  C    4.248071   6.216043   6.620519   8.022767   2.402453
    40  C    4.491250   6.449829   6.613029   8.075338   2.779350
    41  H    3.254304   3.699557   4.624302   4.958798   2.131366
    42  H    3.761643   5.218590   6.200117   7.164640   2.134841
    43  H    4.655904   6.117784   6.167043   7.347008   3.377301
    44  H    5.049745   7.147034   7.450439   8.999061   3.385671
    45  O    5.655665   7.778024   7.671327   9.351678   4.135732
    46  H    5.974774   8.004569   7.783044   9.440355   4.577035
    47  O    4.473644   4.530675   2.550306   2.665732   6.334663
    48  H    5.243212   4.526733   3.487899   2.293257   6.856687
                   36         37         38         39         40
    36  C    0.000000
    37  C    2.379770   0.000000
    38  C    1.379793   2.750698   0.000000
    39  C    2.753851   1.373962   2.386591   0.000000
    40  C    2.391160   2.387583   1.379644   1.382430   0.000000
    41  H    1.080820   3.360949   2.133990   3.834667   3.368960
    42  H    3.358989   1.080945   3.831617   2.129088   3.366633
    43  H    2.134360   3.833540   1.082869   3.371310   2.139988
    44  H    3.833902   2.140615   3.359946   1.080123   2.127061
    45  O    3.650267   3.607753   2.401833   2.345230   1.357211
    46  H    3.814828   4.294848   2.445338   3.151015   1.910300
    47  O    6.268909   7.488380   7.352459   8.426064   8.368364
    48  H    6.787771   8.067955   7.924849   9.053234   8.992741
                   41         42         43         44         45
    41  H    0.000000
    42  H    4.252971   0.000000
    43  H    2.452773   4.914448   0.000000
    44  H    4.914705   2.467399   4.256270   0.000000
    45  O    4.530735   4.472688   2.665826   2.550400   0.000000
    46  H    4.527251   5.242668   2.293678   3.488045   0.956707
    47  O    5.570768   7.807123   7.568616   9.361659   9.520124
    48  H    6.013689   8.371491   8.118559  10.012915  10.171336
                   46         47         48
    46  H    0.000000
    47  O    9.546649   0.000000
    48  H   10.181430   0.956708   0.000000
 Stoichiometry    C24H19NO2S2(1+,2)
 Framework group  C1[X(C24H19NO2S2)]
 Deg. of freedom   138
 Full point group                 C1      NOp   1
 Largest Abelian subgroup         C1      NOp   1
 Largest concise Abelian subgroup C1      NOp   1
                         Standard orientation:                         
 ---------------------------------------------------------------------
 Center     Atomic      Atomic             Coordinates (Angstroms)
 Number     Number       Type             X           Y           Z
 ---------------------------------------------------------------------
      1          6           0        6.544630   -1.193879   -0.127010
      2          6           0        5.283469   -0.647909   -0.131523
      3         16           0        3.665919   -1.107322   -1.042984
      4          6           0        4.996815    0.486583    0.537830
      5          6           0        1.475687    0.036886   -0.221747
      6          6           0        1.772288   -1.094442   -0.892846
      7          6           0        7.517398   -0.549399    0.618903
      8          6           0        5.951198    1.159916    1.262339
      9          1           0        2.843406    1.345523    1.332578
     10          6           0        0.186077    0.430997    0.028463
     11          6           0        0.773630   -1.912541   -1.366813
     12          6           0       -0.536910   -1.552052   -1.124661
     13          6           0       -0.845585   -0.387156   -0.425435
     14          1           0       -0.045427    1.339810    0.567415
     15          1           0        0.986976   -2.816418   -1.923251
     16          1           0       -1.342687   -2.175375   -1.484620
     17          6           0        7.223748    0.615229    1.306247
     18          1           0        6.782458   -2.097666   -0.673346
     19          1           0        3.815781   -2.439410   -0.928305
     20          1           0        8.517553   -0.958288    0.663525
     21          1           0        5.730059    2.077989    1.791552
     22          1           0        7.997253    1.105431    1.881471
     23         16           0        3.166075    0.851646    0.124057
     24          7           0       -2.182887   -0.044483   -0.184905
     25          6           0       -3.146505   -1.044921    0.067172
     26          6           0       -4.392012   -0.989098   -0.539344
     27          6           0       -2.878694   -2.090316    0.930362
     28          6           0       -5.345494   -1.946131   -0.285899
     29          6           0       -3.822608   -3.066997    1.170354
     30          6           0       -5.062274   -2.995295    0.567641
     31          1           0       -4.612943   -0.174890   -1.215121
     32          1           0       -1.913696   -2.145516    1.414069
     33          1           0       -6.317156   -1.901598   -0.755555
     34          1           0       -3.591387   -3.881585    1.845380
     35          6           0       -2.575405    1.310294   -0.123192
     36          6           0       -3.391681    1.763268    0.894977
     37          6           0       -2.164040    2.211964   -1.093710
     38          6           0       -3.796835    3.081396    0.942072
     39          6           0       -2.544098    3.531176   -1.038879
     40          6           0       -3.368807    3.972023   -0.020733
     41          1           0       -3.723839    1.071840    1.656403
     42          1           0       -1.529535    1.868488   -1.898614
     43          1           0       -4.442764    3.415230    1.744528
     44          1           0       -2.220724    4.234697   -1.791974
     45          8           0       -3.726245    5.281320   -0.019257
     46          1           0       -4.294203    5.466041    0.728132
     47          8           0       -6.032969   -3.920806    0.776143
     48          1           0       -5.721078   -4.593785    1.380389
 ---------------------------------------------------------------------
 Rotational constants (GHZ):           0.2280536           0.0702108           0.0568934
 Leave Link  202 at Tue Jan 19 04:00:31 2021, MaxMem=  4026531840 cpu:               0.3 elap:               0.1
 (Enter /opt/ohpc/pub/libs/gaussian/g16-A.03/sandybridge/g16/l301.exe)
 Standard basis: TZVP (5D, 7F)
 Ernie: Thresh=  0.10000D-02 Tol=  0.10000D-05 Strict=F.
 There are   700 symmetry adapted cartesian basis functions of A   symmetry.
 There are   671 symmetry adapted basis functions of A   symmetry.
   671 basis functions,  1191 primitive gaussians,   700 cartesian basis functions
   109 alpha electrons      108 beta electrons
       nuclear repulsion energy      2827.2462800785 Hartrees.
 IExCor=33909 DFT=T Ex+Corr=LC-wHPBE ExCW=0 ScaHFX=  1.000000
 ScaDFX=  1.000000  1.000000  1.000000  1.000000 ScalE2=  1.000000  1.000000
 IRadAn=      5 IRanWt=     -1 IRanGd=            0 ICorTp=0 IEmpDi=  4
 HFx  wShort=  0.000000 wLong=  0.177800 cFull=  0.000000 cShort=  0.000000 cLong=  1.000000
 DFx  wShort=  0.000000 wLong=  0.177800 cFull=  0.000000 cShort=  1.000000 cLong=  0.000000
 NAtoms=   48 NActive=   48 NUniq=   48 SFac= 1.00D+00 NAtFMM=   60 NAOKFM=F Big=F
 Integral buffers will be    131072 words long.
 Raffenetti 2 integral format.
 Two-electron integral symmetry is turned on.
 Leave Link  301 at Tue Jan 19 04:00:31 2021, MaxMem=  4026531840 cpu:               0.5 elap:               0.1
 (Enter /opt/ohpc/pub/libs/gaussian/g16-A.03/sandybridge/g16/l302.exe)
 NPDir=0 NMtPBC=     1 NCelOv=     1 NCel=       1 NClECP=     1 NCelD=      1
         NCelK=      1 NCelE2=     1 NClLst=     1 CellRange=     0.0.
 One-electron integrals computed using PRISM.
 One-electron integral symmetry used in STVInt
 NBasis=   671 RedAO= T EigKep=  6.34D-06  NBF=   671
 NBsUse=   671 1.00D-06 EigRej= -1.00D+00 NBFU=   671
 Precomputing XC quadrature grid using
 IXCGrd= 4 IRadAn=           5 IRanWt=          -1 IRanGd=           0 AccXCQ= 0.00D+00.
 Generated NRdTot=       0 NPtTot=           0 NUsed=           0 NTot=          32
 NSgBfM=   657   657   657   657   657 MxSgAt=    48 MxSgA2=    48.
 Leave Link  302 at Tue Jan 19 04:00:32 2021, MaxMem=  4026531840 cpu:              10.8 elap:               1.4
 (Enter /opt/ohpc/pub/libs/gaussian/g16-A.03/sandybridge/g16/l303.exe)
 DipDrv:  MaxL=1.
 Leave Link  303 at Tue Jan 19 04:00:32 2021, MaxMem=  4026531840 cpu:               0.9 elap:               0.1
 (Enter /opt/ohpc/pub/libs/gaussian/g16-A.03/sandybridge/g16/l401.exe)
 ExpMin= 9.52D-02 ExpMax= 6.07D+04 ExpMxC= 2.07D+03 IAcc=3 IRadAn=         5 AccDes= 0.00D+00
 Harris functional with IExCor=33909 and IRadAn=       5 diagonalized for initial guess.
 HarFok:  IExCor=33909 AccDes= 0.00D+00 IRadAn=         5 IDoV= 1 UseB2=F ITyADJ=14
 ICtDFT=  3500011 ScaDFX=  1.000000  1.000000  1.000000  1.000000
 FoFCou: FMM=F IPFlag=           0 FMFlag=      100000 FMFlg1=           0
         NFxFlg=           0 DoJE=T BraDBF=F KetDBF=T FulRan=T
         wScrn=  0.000000 ICntrl=       500 IOpCl=  0 I1Cent=   200000004 NGrid=           0
         NMat0=    1 NMatS0=      1 NMatT0=    0 NMatD0=    1 NMtDS0=    0 NMtDT0=    0
 Petite list used in FoFCou.
 Harris En= -1905.45945112424    
 JPrj=0 DoOrth=F DoCkMO=F.
 Initial guess <Sx>= 0.0000 <Sy>= 0.0000 <Sz>= 0.5000 <S**2>= 0.7500 S= 0.5000
 Leave Link  401 at Tue Jan 19 04:00:40 2021, MaxMem=  4026531840 cpu:              61.2 elap:               7.7
 (Enter /opt/ohpc/pub/libs/gaussian/g16-A.03/sandybridge/g16/l502.exe)
 Integral symmetry usage will be decided dynamically.
 UHF open shell SCF:
 Using DIIS extrapolation, IDIIS=    10.
 NGot=  4026531840 LenX=  4025539370 LenY=  4025048670
 Requested convergence on RMS density matrix=1.00D-06 within  32 cycles.
 Requested convergence on MAX density matrix=1.00D-04.
 Requested convergence on             energy=1.00D-04.
 Virtual orbitals will be shifted by   0.500 hartree.
 No special actions if energy rises.
 Dynamic level shift is on during FON iterations.

 Cycle   1  Pass 1  IDiag  1:
 FoFJK:  IHMeth= 1 ICntrl=       0 DoSepK=T KAlg= 0 I1Cent=           0 FoldK=F
 IRaf=         1 NMat=       1 IRICut=       1 DoRegI=T DoRafI=F ISym2E= 0 IDoP0=0 IntGTp=1.
 FoFCou: FMM=F IPFlag=           0 FMFlag=      100000 FMFlg1=           0
         NFxFlg=           0 DoJE=T BraDBF=F KetDBF=F FulRan=T
         wScrn=  0.000000 ICntrl=       500 IOpCl=  0 I1Cent=           0 NGrid=           0
         NMat0=    1 NMatS0=      1 NMatT0=    0 NMatD0=    1 NMtDS0=    0 NMtDT0=    0
 Symmetry not used in FoFCou.
 E= -1925.52447499740    
 DIIS: error= 1.97D-02 at cycle   1 NSaved=   1.
 NSaved= 1 IEnMin= 1 EnMin= -1925.52447499740     IErMin= 1 ErrMin= 1.97D-02
 ErrMax= 1.97D-02  0.00D+00 EMaxC= 1.00D+00 BMatC= 2.69D+00 BMatP= 2.69D+00
 IDIUse=1 WtCom= 1.00D+00 WtEn= 0.00D+00
 Coeff-Com:  0.100D+01
 Coeff:      0.100D+01
 Gap=     0.514 Goal=   None    Shift=    0.500
 T= 1244. Gap= 0.524 NK=0 IS=  110 IE=  671 IFin=  109
          NO(<0.9)=   0  NV(>0.1)=   0    109.00e < EF      0.00e >EF  Err=0.0D+00
 Gap=    -0.020 Goal=   None    Shift=    0.500
 T= 1244. Gap= 0.414 NK=0 IS=  109 IE=  671 IFin=  108
          NO(<0.9)=   0  NV(>0.1)=   0    108.00e < EF      0.00e >EF  Err=0.0D+00
 GapD=   -0.020 DampG=0.250 DampE=0.500 DampFc=0.1250 IDamp=-1.
 Damping current iteration by 1.25D-01
 RMSDP=4.28D-03 MaxDP=3.84D-01              OVMax= 1.04D-01

 Cycle   2  Pass 1  IDiag  1:
 E= -1925.65494618211     Delta-E=       -0.130471184709 Rises=F Damp=T
 DIIS: error= 1.70D-02 at cycle   2 NSaved=   2.
 NSaved= 2 IEnMin= 2 EnMin= -1925.65494618211     IErMin= 2 ErrMin= 1.70D-02
 ErrMax= 1.70D-02  0.00D+00 EMaxC= 1.00D+00 BMatC= 1.87D+00 BMatP= 2.69D+00
 IDIUse=1 WtCom= 1.00D+00 WtEn= 0.00D+00
 Coeff-Com: -0.477D+01 0.577D+01
 Coeff:     -0.477D+01 0.577D+01
 Gap=     0.213 Goal=   None    Shift=    0.500
 T= 1216. Gap= 0.686 NK=4 IS=  110 IE=  120 IFin=  109
          NO(<0.9)=   0  NV(>0.1)=   0    109.00e < EF      0.00e >EF  Err=0.0D+00
 Gap=     0.076 Goal=   None    Shift=    0.500
 T= 1216. Gap= 0.556 NK=4 IS=  109 IE=  120 IFin=  108
          NO(<0.9)=   0  NV(>0.1)=   0    108.00e < EF      0.00e >EF  Err=0.0D+00
 GapD=    0.076 DampG=0.500 DampE=0.500 DampFc=0.2500 IDamp=-1.
 Damping current iteration by 2.50D-01
 RMSDP=3.50D-03 MaxDP=3.32D-01 DE=-1.30D-01 OVMax= 2.76D-02

 Cycle   3  Pass 1  IDiag  1:
 E= -1925.83756231823     Delta-E=       -0.182616136115 Rises=F Damp=T
 DIIS: error= 1.23D-02 at cycle   3 NSaved=   3.
 NSaved= 3 IEnMin= 3 EnMin= -1925.83756231823     IErMin= 3 ErrMin= 1.23D-02
 ErrMax= 1.23D-02  0.00D+00 EMaxC= 1.00D+00 BMatC= 9.64D-01 BMatP= 1.87D+00
 IDIUse=1 WtCom= 1.00D+00 WtEn= 0.00D+00
 Coeff-Com:  0.123D+00-0.272D+01 0.360D+01
 Coeff:      0.123D+00-0.272D+01 0.360D+01
 Gap=     0.215 Goal=   None    Shift=    0.500
 T= 1132. Gap= 0.714 NK=4 IS=  110 IE=  121 IFin=  109
          NO(<0.9)=   0  NV(>0.1)=   0    109.00e < EF      0.00e >EF  Err=0.0D+00
 Gap=     0.081 Goal=   None    Shift=    0.500
 T= 1132. Gap= 0.580 NK=4 IS=  109 IE=  121 IFin=  108
          NO(<0.9)=   0  NV(>0.1)=   0    108.00e < EF      0.00e >EF  Err=0.0D+00
 GapD=    0.081 DampG=0.500 DampE=0.500 DampFc=0.2500 IDamp=-1.
 Damping current iteration by 2.50D-01
 RMSDP=2.46D-03 MaxDP=2.20D-01 DE=-1.83D-01 OVMax= 1.52D-02

 Cycle   4  Pass 1  IDiag  1:
 E= -1925.94753083322     Delta-E=       -0.109968514992 Rises=F Damp=T
 DIIS: error= 9.25D-03 at cycle   4 NSaved=   4.
 NSaved= 4 IEnMin= 4 EnMin= -1925.94753083322     IErMin= 4 ErrMin= 9.25D-03
 ErrMax= 9.25D-03  0.00D+00 EMaxC= 1.00D+00 BMatC= 5.20D-01 BMatP= 9.64D-01
 IDIUse=1 WtCom= 1.00D+00 WtEn= 0.00D+00
 Coeff-Com:  0.499D+00-0.735D+00-0.268D+01 0.392D+01
 Coeff:      0.499D+00-0.735D+00-0.268D+01 0.392D+01
 Gap=     0.216 Goal=   None    Shift=    0.500
 T=  988. Gap= 0.716 NK=4 IS=  110 IE=  121 IFin=  109
          NO(<0.9)=   0  NV(>0.1)=   0    109.00e < EF      0.00e >EF  Err=0.0D+00
 Gap=     0.082 Goal=   None    Shift=    0.500
 T=  988. Gap= 0.582 NK=4 IS=  109 IE=  121 IFin=  108
          NO(<0.9)=   0  NV(>0.1)=   0    108.00e < EF      0.00e >EF  Err=0.0D+00
 GapD=    0.082 DampG=0.500 DampE=1.000 DampFc=0.5000 IDamp=-1.
 Damping current iteration by 5.00D-01
 RMSDP=1.75D-03 MaxDP=1.40D-01 DE=-1.10D-01 OVMax= 1.39D-02

 Cycle   5  Pass 1  IDiag  1:
 E= -1926.08179274075     Delta-E=       -0.134261907530 Rises=F Damp=T
 DIIS: error= 4.78D-03 at cycle   5 NSaved=   5.
 NSaved= 5 IEnMin= 5 EnMin= -1926.08179274075     IErMin= 5 ErrMin= 4.78D-03
 ErrMax= 4.78D-03  0.00D+00 EMaxC= 1.00D+00 BMatC= 1.24D-01 BMatP= 5.20D-01
 IDIUse=1 WtCom= 1.00D+00 WtEn= 0.00D+00
 Coeff-Com:  0.538D-01 0.318D+00-0.658D+00-0.892D+00 0.218D+01
 Coeff:      0.538D-01 0.318D+00-0.658D+00-0.892D+00 0.218D+01
 Gap=     0.218 Goal=   None    Shift=    0.500
 T=  760. Gap= 0.718 NK=4 IS=  110 IE=  121 IFin=  109
          NO(<0.9)=   0  NV(>0.1)=   0    109.00e < EF      0.00e >EF  Err=0.0D+00
 Gap=     0.084 Goal=   None    Shift=    0.500
 T=  760. Gap= 0.584 NK=4 IS=  109 IE=  121 IFin=  108
          NO(<0.9)=   0  NV(>0.1)=   0    108.00e < EF      0.00e >EF  Err=0.0D+00
 GapD=    0.084 DampG=0.500 DampE=1.000 DampFc=0.5000 IDamp=-1.
 Damping current iteration by 5.00D-01
 RMSDP=8.48D-04 MaxDP=6.06D-02 DE=-1.34D-01 OVMax= 1.36D-02

 Cycle   6  Pass 1  IDiag  1:
 E= -1926.13721877289     Delta-E=       -0.055426032137 Rises=F Damp=T
 DIIS: error= 2.58D-03 at cycle   6 NSaved=   6.
 NSaved= 6 IEnMin= 6 EnMin= -1926.13721877289     IErMin= 6 ErrMin= 2.58D-03
 ErrMax= 2.58D-03  0.00D+00 EMaxC= 1.00D+00 BMatC= 3.07D-02 BMatP= 1.24D-01
 IDIUse=1 WtCom= 1.00D+00 WtEn= 0.00D+00
 Coeff-Com: -0.597D-01 0.190D+00 0.895D-01-0.131D+00-0.176D+01 0.267D+01
 Coeff:     -0.597D-01 0.190D+00 0.895D-01-0.131D+00-0.176D+01 0.267D+01
 Gap=     0.221 Goal=   None    Shift=    0.500
 T=  482. Gap= 0.721 NK=4 IS=  110 IE=  121 IFin=  109
          NO(<0.9)=   0  NV(>0.1)=   0    109.00e < EF      0.00e >EF  Err=0.0D+00
 Gap=     0.086 Goal=   None    Shift=    0.500
 T=  482. Gap= 0.586 NK=4 IS=  109 IE=  121 IFin=  108
          NO(<0.9)=   0  NV(>0.1)=   0    108.00e < EF      0.00e >EF  Err=0.0D+00
 GapD=    0.086 DampG=0.500 DampE=1.000 DampFc=0.5000 IDamp=-1.
 Damping current iteration by 5.00D-01
 RMSDP=4.32D-04 MaxDP=2.86D-02 DE=-5.54D-02 OVMax= 1.33D-02

 Cycle   7  Pass 1  IDiag  1:
 E= -1926.16246858784     Delta-E=       -0.025249814950 Rises=F Damp=T
 DIIS: error= 2.05D-03 at cycle   7 NSaved=   7.
 NSaved= 7 IEnMin= 7 EnMin= -1926.16246858784     IErMin= 7 ErrMin= 2.05D-03
 ErrMax= 2.05D-03  0.00D+00 EMaxC= 1.00D+00 BMatC= 7.82D-03 BMatP= 3.07D-02
 IDIUse=1 WtCom= 1.00D+00 WtEn= 0.00D+00
 Coeff-Com: -0.155D-01-0.999D-01 0.272D+00 0.347D+00-0.709D+00-0.239D+01
 Coeff-Com:  0.360D+01
 Coeff:     -0.155D-01-0.999D-01 0.272D+00 0.347D+00-0.709D+00-0.239D+01
 Coeff:      0.360D+01
 Gap=     0.223 Goal=   None    Shift=    0.500
 T=  141. Gap= 0.723 NK=4 IS=  110 IE=  121 IFin=  109
          NO(<0.9)=   0  NV(>0.1)=   0    109.00e < EF      0.00e >EF  Err=0.0D+00
 Gap=     0.087 Goal=   None    Shift=    0.500
 T=  141. Gap= 0.587 NK=4 IS=  109 IE=  121 IFin=  108
          NO(<0.9)=   0  NV(>0.1)=   0    108.00e < EF      0.00e >EF  Err=0.0D+00
 GapD=    0.087 DampG=0.500 DampE=1.000 DampFc=0.5000 IDamp=-1.
 Damping current iteration by 5.00D-01
 RMSDP=2.50D-04 MaxDP=1.40D-02 DE=-2.52D-02 OVMax= 1.49D-02

 Cycle   8  Pass 1  IDiag  1:
 E= -1926.17467762470     Delta-E=       -0.012209036865 Rises=F Damp=T
 DIIS: error= 1.91D-03 at cycle   8 NSaved=   8.
 NSaved= 8 IEnMin= 8 EnMin= -1926.17467762470     IErMin= 8 ErrMin= 1.91D-03
 ErrMax= 1.91D-03  0.00D+00 EMaxC= 1.00D+00 BMatC= 2.14D-03 BMatP= 7.82D-03
 IDIUse=1 WtCom= 1.00D+00 WtEn= 0.00D+00
 Coeff-Com:  0.182D-01-0.126D+00 0.122D+00 0.153D+00 0.628D+00-0.232D+01
 Coeff-Com: -0.360D+00 0.288D+01
 Coeff:      0.182D-01-0.126D+00 0.122D+00 0.153D+00 0.628D+00-0.232D+01
 Coeff:     -0.360D+00 0.288D+01
 Gap=     0.226 Goal=   None    Shift=    0.500
 Gap=     0.088 Goal=   None    Shift=    0.500
 GapD=    0.088 DampG=0.500 DampE=1.000 DampFc=0.5000 IDamp=-1.
 Damping current iteration by 5.00D-01
 RMSDP=1.77D-04 MaxDP=1.24D-02 DE=-1.22D-02 OVMax= 1.51D-02

 Cycle   9  Pass 1  IDiag  1:
 E= -1926.18082707997     Delta-E=       -0.006149455265 Rises=F Damp=T
 DIIS: error= 1.84D-03 at cycle   9 NSaved=   9.
 NSaved= 9 IEnMin= 9 EnMin= -1926.18082707997     IErMin= 9 ErrMin= 1.84D-03
 ErrMax= 1.84D-03  0.00D+00 EMaxC= 1.00D+00 BMatC= 6.88D-04 BMatP= 2.14D-03
 IDIUse=1 WtCom= 1.00D+00 WtEn= 0.00D+00
 Coeff-Com: -0.548D-03-0.116D-01 0.224D-01-0.524D-01 0.407D+00-0.407D+00
 Coeff-Com: -0.516D+00-0.139D+01 0.295D+01
 Coeff:     -0.548D-03-0.116D-01 0.224D-01-0.524D-01 0.407D+00-0.407D+00
 Coeff:     -0.516D+00-0.139D+01 0.295D+01
 Gap=     0.227 Goal=   None    Shift=    0.500
 Gap=     0.088 Goal=   None    Shift=    0.500
 GapD=    0.088 DampG=0.500 DampE=1.000 DampFc=0.5000 IDamp=-1.
 Damping current iteration by 5.00D-01
 RMSDP=1.38D-04 MaxDP=1.26D-02 DE=-6.15D-03 OVMax= 1.49D-02

 Cycle  10  Pass 1  IDiag  1:
 E= -1926.18403349040     Delta-E=       -0.003206410432 Rises=F Damp=T
 DIIS: error= 1.80D-03 at cycle  10 NSaved=  10.
 NSaved=10 IEnMin=10 EnMin= -1926.18403349040     IErMin=10 ErrMin= 1.80D-03
 ErrMax= 1.80D-03  0.00D+00 EMaxC= 1.00D+00 BMatC= 2.93D-04 BMatP= 6.88D-04
 IDIUse=1 WtCom= 1.00D+00 WtEn= 0.00D+00
 Coeff-Com: -0.175D-01 0.354D-01 0.495D-01-0.106D-01-0.569D+00 0.899D+00
 Coeff-Com:  0.627D+00-0.787D+00-0.423D+01 0.500D+01
 Coeff:     -0.175D-01 0.354D-01 0.495D-01-0.106D-01-0.569D+00 0.899D+00
 Coeff:      0.627D+00-0.787D+00-0.423D+01 0.500D+01
 Gap=     0.230 Goal=   None    Shift=    0.500
 Gap=     0.089 Goal=   None    Shift=    0.500
 GapD=    0.089 DampG=0.500 DampE=1.000 DampFc=0.5000 IDamp=-1.
 Damping current iteration by 5.00D-01
 RMSDP=1.25D-04 MaxDP=1.20D-02 DE=-3.21D-03 OVMax= 1.63D-02

 Cycle  11  Pass 1  IDiag  1:
 E= -1926.18578533945     Delta-E=       -0.001751849057 Rises=F Damp=T
 DIIS: error= 1.80D-03 at cycle  11 NSaved=  11.
 NSaved=11 IEnMin=11 EnMin= -1926.18578533945     IErMin=10 ErrMin= 1.80D-03
 ErrMax= 1.80D-03  0.00D+00 EMaxC= 1.00D+00 BMatC= 1.82D-04 BMatP= 2.93D-04
 IDIUse=1 WtCom= 1.00D+00 WtEn= 0.00D+00
 Coeff-Com: -0.201D-01 0.223D-01 0.107D+00-0.504D-02-0.781D+00 0.997D+00
 Coeff-Com:  0.692D+00 0.114D+00-0.486D+01 0.317D+01 0.156D+01
 Coeff:     -0.201D-01 0.223D-01 0.107D+00-0.504D-02-0.781D+00 0.997D+00
 Coeff:      0.692D+00 0.114D+00-0.486D+01 0.317D+01 0.156D+01
 Gap=     0.231 Goal=   None    Shift=    0.500
 Gap=     0.090 Goal=   None    Shift=    0.500
 GapD=    0.090 DampG=0.500 DampE=1.000 DampFc=0.5000 IDamp=-1.
 Damping current iteration by 5.00D-01
 RMSDP=1.10D-04 MaxDP=1.01D-02 DE=-1.75D-03 OVMax= 1.54D-02

 Cycle  12  Pass 1  IDiag  1:
 E= -1926.18680512688     Delta-E=       -0.001019787427 Rises=F Damp=T
 DIIS: error= 1.80D-03 at cycle  12 NSaved=  12.
 NSaved=12 IEnMin=12 EnMin= -1926.18680512688     IErMin=12 ErrMin= 1.80D-03
 ErrMax= 1.80D-03  0.00D+00 EMaxC= 1.00D+00 BMatC= 1.46D-04 BMatP= 1.82D-04
 IDIUse=1 WtCom= 1.00D+00 WtEn= 0.00D+00
 Coeff-Com: -0.139D-01-0.164D-01 0.137D+00 0.149D-01-0.398D+00-0.118D+00
 Coeff-Com:  0.650D+00 0.110D+01-0.224D+01 0.128D+01-0.373D+01 0.434D+01
 Coeff:     -0.139D-01-0.164D-01 0.137D+00 0.149D-01-0.398D+00-0.118D+00
 Coeff:      0.650D+00 0.110D+01-0.224D+01 0.128D+01-0.373D+01 0.434D+01
 Gap=     0.233 Goal=   None    Shift=    0.500
 Gap=     0.091 Goal=   None    Shift=    0.500
 GapD=    0.091 DampG=0.500 DampE=1.000 DampFc=0.5000 IDamp=-1.
 Damping current iteration by 5.00D-01
 RMSDP=1.06D-04 MaxDP=8.50D-03 DE=-1.02D-03 OVMax= 1.65D-02

 Cycle  13  Pass 1  IDiag  1:
 E= -1926.18745831901     Delta-E=       -0.000653192132 Rises=F Damp=T
 DIIS: error= 1.81D-03 at cycle  13 NSaved=  13.
 NSaved=13 IEnMin=13 EnMin= -1926.18745831901     IErMin=12 ErrMin= 1.80D-03
 ErrMax= 1.81D-03  0.00D+00 EMaxC= 1.00D+00 BMatC= 1.34D-04 BMatP= 1.46D-04
 IDIUse=1 WtCom= 1.00D+00 WtEn= 0.00D+00
 Coeff-Com: -0.136D-01-0.160D-01 0.133D+00 0.141D-01-0.370D+00-0.154D+00
 Coeff-Com:  0.619D+00 0.107D+01-0.205D+01 0.131D+01-0.383D+01 0.395D+01
 Coeff-Com:  0.324D+00
 Coeff:     -0.136D-01-0.160D-01 0.133D+00 0.141D-01-0.370D+00-0.154D+00
 Coeff:      0.619D+00 0.107D+01-0.205D+01 0.131D+01-0.383D+01 0.395D+01
 Coeff:      0.324D+00
 Gap=     0.233 Goal=   None    Shift=    0.500
 Gap=     0.091 Goal=   None    Shift=    0.500
 GapD=    0.091 DampG=0.500 DampE=1.000 DampFc=0.5000 IDamp=-1.
 Damping current iteration by 5.00D-01
 RMSDP=8.96D-05 MaxDP=6.46D-03 DE=-6.53D-04 OVMax= 1.42D-02

 Cycle  14  Pass 1  IDiag  1:
 E= -1926.18791337161     Delta-E=       -0.000455052601 Rises=F Damp=T
 DIIS: error= 1.80D-03 at cycle  14 NSaved=  14.
 NSaved=14 IEnMin=14 EnMin= -1926.18791337161     IErMin=12 ErrMin= 1.80D-03
 ErrMax= 1.80D-03  0.00D+00 EMaxC= 1.00D+00 BMatC= 1.27D-04 BMatP= 1.34D-04
 IDIUse=1 WtCom= 1.00D+00 WtEn= 0.00D+00
 Coeff-Com: -0.138D-01-0.866D-02 0.102D+00 0.366D-01-0.313D+00-0.292D+00
 Coeff-Com:  0.808D+00 0.712D+00-0.132D+01-0.809D+00 0.533D-01 0.274D+01
 Coeff-Com: -0.306D+01 0.237D+01
 Coeff:     -0.138D-01-0.866D-02 0.102D+00 0.366D-01-0.313D+00-0.292D+00
 Coeff:      0.808D+00 0.712D+00-0.132D+01-0.809D+00 0.533D-01 0.274D+01
 Coeff:     -0.306D+01 0.237D+01
 Gap=     0.234 Goal=   None    Shift=    0.500
 Gap=     0.092 Goal=   None    Shift=    0.500
 GapD=    0.092 DampG=0.500 DampE=1.000 DampFc=0.5000 IDamp=-1.
 Damping current iteration by 5.00D-01
 RMSDP=7.67D-05 MaxDP=4.85D-03 DE=-4.55D-04 OVMax= 1.29D-02

 Cycle  15  Pass 1  IDiag  1:
 E= -1926.18825396694     Delta-E=       -0.000340595324 Rises=F Damp=T
 DIIS: error= 1.78D-03 at cycle  15 NSaved=  15.
 NSaved=15 IEnMin=15 EnMin= -1926.18825396694     IErMin=15 ErrMin= 1.78D-03
 ErrMax= 1.78D-03  0.00D+00 EMaxC= 1.00D+00 BMatC= 1.24D-04 BMatP= 1.27D-04
 IDIUse=1 WtCom= 1.00D+00 WtEn= 0.00D+00
 Coeff-Com: -0.141D-01-0.554D-02 0.948D-01 0.374D-01-0.303D+00-0.270D+00
 Coeff-Com:  0.780D+00 0.616D+00-0.108D+01-0.156D+01 0.190D+01-0.143D+00
 Coeff-Com:  0.199D+01-0.404D+01 0.301D+01
 Coeff:     -0.141D-01-0.554D-02 0.948D-01 0.374D-01-0.303D+00-0.270D+00
 Coeff:      0.780D+00 0.616D+00-0.108D+01-0.156D+01 0.190D+01-0.143D+00
 Coeff:      0.199D+01-0.404D+01 0.301D+01
 Gap=     0.235 Goal=   None    Shift=    0.500
 Gap=     0.092 Goal=   None    Shift=    0.500
 GapD=    0.092 DampG=0.500 DampE=1.000 DampFc=0.5000 IDamp=-1.
 Damping current iteration by 5.00D-01
 RMSDP=6.71D-05 MaxDP=3.65D-03 DE=-3.41D-04 OVMax= 1.18D-02

 Cycle  16  Pass 1  IDiag  1:
 E= -1926.18852470822     Delta-E=       -0.000270741280 Rises=F Damp=T
 DIIS: error= 1.75D-03 at cycle  16 NSaved=  16.
 NSaved=16 IEnMin=16 EnMin= -1926.18852470822     IErMin=16 ErrMin= 1.75D-03
 ErrMax= 1.75D-03  0.00D+00 EMaxC= 1.00D+00 BMatC= 1.28D-04 BMatP= 1.24D-04
 IDIUse=1 WtCom= 1.00D+00 WtEn= 0.00D+00
 Coeff-Com: -0.141D-01-0.753D-02 0.101D+00 0.352D-01-0.316D+00-0.242D+00
 Coeff-Com:  0.737D+00 0.706D+00-0.122D+01-0.122D+01 0.130D+01-0.695D+00
 Coeff-Com:  0.402D+01-0.382D+01-0.170D+00 0.180D+01
 Coeff:     -0.141D-01-0.753D-02 0.101D+00 0.352D-01-0.316D+00-0.242D+00
 Coeff:      0.737D+00 0.706D+00-0.122D+01-0.122D+01 0.130D+01-0.695D+00
 Coeff:      0.402D+01-0.382D+01-0.170D+00 0.180D+01
 Gap=     0.235 Goal=   None    Shift=    0.500
 Gap=     0.092 Goal=   None    Shift=    0.500
 GapD=    0.092 DampG=0.500 DampE=1.000 DampFc=0.5000 IDamp=-1.
 Damping current iteration by 5.00D-01
 RMSDP=5.68D-05 MaxDP=2.90D-03 DE=-2.71D-04 OVMax= 1.03D-02

 Cycle  17  Pass 1  IDiag  1:
 E= -1926.18874482163     Delta-E=       -0.000220113413 Rises=F Damp=T
 DIIS: error= 1.70D-03 at cycle  17 NSaved=  17.
 NSaved=17 IEnMin=17 EnMin= -1926.18874482163     IErMin=17 ErrMin= 1.70D-03
 ErrMax= 1.70D-03  0.00D+00 EMaxC= 1.00D+00 BMatC= 1.40D-04 BMatP= 1.24D-04
 IDIUse=1 WtCom= 1.00D+00 WtEn= 0.00D+00
 Large coefficients: NSaved= 17 BigCof=   33.36 CofMax=   10.00 Det=-9.18D-10
 Inversion failed.  Reducing to 16 matrices.
 Large coefficients: NSaved= 16 BigCof=   33.25 CofMax=   10.00 Det=-9.18D-10
 Inversion failed.  Reducing to 15 matrices.
 Large coefficients: NSaved= 15 BigCof=   32.27 CofMax=   10.00 Det=-9.19D-10
 Inversion failed.  Reducing to 14 matrices.
 Large coefficients: NSaved= 14 BigCof=   32.91 CofMax=   10.00 Det=-9.26D-10
 Inversion failed.  Reducing to 13 matrices.
 Large coefficients: NSaved= 13 BigCof=   35.78 CofMax=   10.00 Det=-9.56D-10
 Inversion failed.  Reducing to 12 matrices.
 Large coefficients: NSaved= 12 BigCof=   25.97 CofMax=   10.00 Det=-1.05D-09
 Inversion failed.  Reducing to 11 matrices.
 Large coefficients: NSaved= 11 BigCof=   19.30 CofMax=   10.00 Det=-1.22D-09
 Inversion failed.  Reducing to 10 matrices.
 Large coefficients: NSaved= 10 BigCof=   19.55 CofMax=   10.00 Det=-1.24D-09
 Inversion failed.  Reducing to  9 matrices.
 Large coefficients: NSaved=  9 BigCof=   20.23 CofMax=   10.00 Det=-1.27D-09
 Inversion failed.  Reducing to  8 matrices.
 Large coefficients: NSaved=  8 BigCof=   16.42 CofMax=   10.00 Det=-1.34D-09
 Inversion failed.  Reducing to  7 matrices.
 Large coefficients: NSaved=  7 BigCof=   10.55 CofMax=   10.00 Det=-1.58D-09
 Inversion failed.  Reducing to  6 matrices.
 Coeff-Com: -0.225D+01 0.540D+01-0.351D+01 0.385D+01-0.580D+01 0.331D+01
 Coeff:     -0.225D+01 0.540D+01-0.351D+01 0.385D+01-0.580D+01 0.331D+01
 Gap=     0.234 Goal=   None    Shift=    0.500
 Gap=     0.092 Goal=   None    Shift=    0.500
 GapD=    0.092 DampG=0.500 DampE=1.000 DampFc=0.5000 IDamp=-1.
 Damping current iteration by 5.00D-01
 RMSDP=3.89D-05 MaxDP=2.25D-03 DE=-2.20D-04 OVMax= 6.63D-03

 Cycle  18  Pass 1  IDiag  1:
 E= -1926.18890167981     Delta-E=       -0.000156858177 Rises=F Damp=T
 DIIS: error= 1.63D-03 at cycle  18 NSaved=   7.
 NSaved= 7 IEnMin= 7 EnMin= -1926.18890167981     IErMin= 7 ErrMin= 1.63D-03
 ErrMax= 1.63D-03  0.00D+00 EMaxC= 1.00D+00 BMatC= 1.74D-04 BMatP= 1.24D-04
 IDIUse=1 WtCom= 1.00D+00 WtEn= 0.00D+00
 Coeff-Com: -0.220D+01 0.469D+01-0.350D+01 0.450D+01-0.160D+01-0.300D+01
 Coeff-Com:  0.211D+01
 Coeff:     -0.220D+01 0.469D+01-0.350D+01 0.450D+01-0.160D+01-0.300D+01
 Coeff:      0.211D+01
 Gap=     0.232 Goal=   None    Shift=    0.500
 Gap=     0.092 Goal=   None    Shift=    0.500
 GapD=    0.092 DampG=0.500 DampE=1.000 DampFc=0.5000 IDamp=-1.
 Damping current iteration by 5.00D-01
 RMSDP=2.87D-05 MaxDP=1.64D-03 DE=-1.57D-04 OVMax= 3.76D-03

 Cycle  19  Pass 1  IDiag  1:
 E= -1926.18899103685     Delta-E=       -0.000089357040 Rises=F Damp=T
 DIIS: error= 1.54D-03 at cycle  19 NSaved=   8.
 NSaved= 8 IEnMin= 8 EnMin= -1926.18899103685     IErMin= 8 ErrMin= 1.54D-03
 ErrMax= 1.54D-03  0.00D+00 EMaxC= 1.00D+00 BMatC= 2.45D-04 BMatP= 1.24D-04
 IDIUse=1 WtCom= 1.00D+00 WtEn= 0.00D+00
 Coeff-Com: -0.225D+01 0.539D+01-0.507D+01 0.141D+01 0.820D+01-0.807D+01
 Coeff-Com: -0.248D+00 0.163D+01
 Coeff:     -0.225D+01 0.539D+01-0.507D+01 0.141D+01 0.820D+01-0.807D+01
 Coeff:     -0.248D+00 0.163D+01
 Gap=     0.231 Goal=   None    Shift=    0.500
 Gap=     0.092 Goal=   None    Shift=    0.500
 GapD=    0.092 DampG=0.500 DampE=1.000 DampFc=0.5000 IDamp=-1.
 Damping current iteration by 5.00D-01
 RMSDP=2.59D-05 MaxDP=1.77D-03 DE=-8.94D-05 OVMax= 1.88D-03

 Cycle  20  Pass 1  IDiag  1:
 E= -1926.18902524611     Delta-E=       -0.000034209257 Rises=F Damp=T
 DIIS: error= 1.44D-03 at cycle  20 NSaved=   9.
 NSaved= 9 IEnMin= 9 EnMin= -1926.18902524611     IErMin= 9 ErrMin= 1.44D-03
 ErrMax= 1.44D-03  0.00D+00 EMaxC= 1.00D+00 BMatC= 3.45D-04 BMatP= 1.24D-04
 IDIUse=1 WtCom= 1.00D+00 WtEn= 0.00D+00
 Large coefficients: NSaved=  9 BigCof=   13.36 CofMax=   10.00 Det=-1.90D-09
 Inversion failed.  Reducing to  8 matrices.
 Large coefficients: NSaved=  8 BigCof=   14.41 CofMax=   10.00 Det=-5.96D-10
 Inversion failed.  Reducing to  7 matrices.
 Large coefficients: NSaved=  7 BigCof=   14.20 CofMax=   10.00 Det=-9.84D-10
 Inversion failed.  Reducing to  6 matrices.
 Large coefficients: NSaved=  6 BigCof=   18.72 CofMax=   10.00 Det=-1.04D-09
 Inversion failed.  Reducing to  5 matrices.
 Large coefficients: NSaved=  5 BigCof=   13.22 CofMax=   10.00 Det=-4.23D-09
 Inversion failed.  Reducing to  4 matrices.
 Large coefficients: NSaved=  4 BigCof=   14.16 CofMax=   10.00 Det=-4.28D-09
 Inversion failed.  Reducing to  3 matrices.
 Large coefficients: NSaved=  3 BigCof=   15.69 CofMax=   10.00 Det=-5.61D-09
 Inversion failed.  Reducing to  2 matrices.
 Coeff-Com:  0.382D+01-0.282D+01
 Coeff:      0.382D+01-0.282D+01
 Gap=     0.237 Goal=   None    Shift=    0.500
 Gap=     0.093 Goal=   None    Shift=    0.500
 GapD=    0.093 DampG=0.500 DampE=1.000 DampFc=0.5000 IDamp=-1.
 Damping current iteration by 5.00D-01
 RMSDP=4.01D-05 MaxDP=2.25D-03 DE=-3.42D-05 OVMax= 9.44D-03

 Cycle  21  Pass 1  IDiag  1:
 E= -1926.18914364046     Delta-E=       -0.000118394358 Rises=F Damp=T
 DIIS: error= 1.45D-03 at cycle  21 NSaved=   3.
 NSaved= 3 IEnMin= 3 EnMin= -1926.18914364046     IErMin= 2 ErrMin= 1.44D-03
 ErrMax= 1.45D-03  0.00D+00 EMaxC= 1.00D+00 BMatC= 3.23D-04 BMatP= 2.45D-04
 IDIUse=1 WtCom= 1.00D+00 WtEn= 0.00D+00
 Coeff-Com:  0.367D+01-0.342D+01 0.748D+00
 Coeff:      0.367D+01-0.342D+01 0.748D+00
 Gap=     0.237 Goal=   None    Shift=    0.500
 Gap=     0.093 Goal=   None    Shift=    0.500
 GapD=    0.093 DampG=0.500 DampE=1.000 DampFc=0.5000 IDamp=-1.
 Damping current iteration by 5.00D-01
 RMSDP=5.03D-05 MaxDP=2.86D-03 DE=-1.18D-04 OVMax= 8.80D-03

 Cycle  22  Pass 1  IDiag  1:
 E= -1926.18928287146     Delta-E=       -0.000139230996 Rises=F Damp=T
 DIIS: error= 1.47D-03 at cycle  22 NSaved=   4.
 NSaved= 4 IEnMin= 4 EnMin= -1926.18928287146     IErMin= 2 ErrMin= 1.44D-03
 ErrMax= 1.47D-03  0.00D+00 EMaxC= 1.00D+00 BMatC= 2.94D-04 BMatP= 2.45D-04
 IDIUse=1 WtCom= 1.00D+00 WtEn= 0.00D+00
 Coeff-Com:  0.423D+01-0.495D+01 0.433D+01-0.261D+01
 Coeff:      0.423D+01-0.495D+01 0.433D+01-0.261D+01
 Gap=     0.236 Goal=   None    Shift=    0.500
 Gap=     0.093 Goal=   None    Shift=    0.500
 GapD=    0.093 DampG=0.500 DampE=1.000 DampFc=0.5000 IDamp=-1.
 Damping current iteration by 5.00D-01
 RMSDP=3.15D-05 MaxDP=1.65D-03 DE=-1.39D-04 OVMax= 4.83D-03

 Cycle  23  Pass 1  IDiag  1:
 E= -1926.18938131351     Delta-E=       -0.000098442049 Rises=F Damp=T
 DIIS: error= 1.45D-03 at cycle  23 NSaved=   5.
 NSaved= 5 IEnMin= 5 EnMin= -1926.18938131351     IErMin= 2 ErrMin= 1.44D-03
 ErrMax= 1.45D-03  0.00D+00 EMaxC= 1.00D+00 BMatC= 3.24D-04 BMatP= 2.45D-04
 IDIUse=1 WtCom= 1.00D+00 WtEn= 0.00D+00
 Coeff-Com:  0.540D+01-0.742D+01 0.831D+01-0.756D+01 0.227D+01
 Coeff:      0.540D+01-0.742D+01 0.831D+01-0.756D+01 0.227D+01
 Gap=     0.235 Goal=   None    Shift=    0.500
 Gap=     0.093 Goal=   None    Shift=    0.500
 GapD=    0.093 DampG=0.500 DampE=1.000 DampFc=0.5000 IDamp=-1.
 Damping current iteration by 5.00D-01
 RMSDP=2.19D-05 MaxDP=1.30D-03 DE=-9.84D-05 OVMax= 3.69D-03

 Cycle  24  Pass 1  IDiag  1:
 E= -1926.18944780772     Delta-E=       -0.000066494209 Rises=F Damp=T
 DIIS: error= 1.40D-03 at cycle  24 NSaved=   6.
 NSaved= 6 IEnMin= 6 EnMin= -1926.18944780772     IErMin= 6 ErrMin= 1.40D-03
 ErrMax= 1.40D-03  0.00D+00 EMaxC= 1.00D+00 BMatC= 3.79D-04 BMatP= 2.45D-04
 IDIUse=1 WtCom= 1.00D+00 WtEn= 0.00D+00
 Large coefficients: NSaved=  6 BigCof=   18.38 CofMax=   10.00 Det=-3.28D-09
 Inversion failed.  Reducing to  5 matrices.
 Coeff-Com:  0.225D+01-0.445D+01 0.357D+01 0.602D+01-0.638D+01
 Coeff:      0.225D+01-0.445D+01 0.357D+01 0.602D+01-0.638D+01
 Gap=     0.236 Goal=   None    Shift=    0.500
 Gap=     0.094 Goal=   None    Shift=    0.500
 GapD=    0.094 DampG=0.500 DampE=1.000 DampFc=0.5000 IDamp=-1.
 Damping current iteration by 5.00D-01
 RMSDP=2.24D-05 MaxDP=1.10D-03 DE=-6.65D-05 OVMax= 4.67D-03

 Cycle  25  Pass 1  IDiag  1:
 E= -1926.18951886732     Delta-E=       -0.000071059601 Rises=F Damp=T
 DIIS: error= 1.38D-03 at cycle  25 NSaved=   6.
 NSaved= 6 IEnMin= 6 EnMin= -1926.18951886732     IErMin= 6 ErrMin= 1.38D-03
 ErrMax= 1.38D-03  0.00D+00 EMaxC= 1.00D+00 BMatC= 4.05D-04 BMatP= 2.94D-04
 IDIUse=1 WtCom= 1.00D+00 WtEn= 0.00D+00
 Coeff-Com:  0.239D+01-0.453D+01 0.367D+01 0.622D+01-0.759D+01 0.846D+00
 Coeff:      0.239D+01-0.453D+01 0.367D+01 0.622D+01-0.759D+01 0.846D+00
 Gap=     0.236 Goal=   None    Shift=    0.500
 Gap=     0.094 Goal=   None    Shift=    0.500
 GapD=    0.094 DampG=0.500 DampE=1.000 DampFc=0.5000 IDamp=-1.
 Damping current iteration by 5.00D-01
 RMSDP=2.00D-05 MaxDP=1.01D-03 DE=-7.11D-05 OVMax= 3.89D-03

 Cycle  26  Pass 1  IDiag  1:
 E= -1926.18958147766     Delta-E=       -0.000062610343 Rises=F Damp=T
 DIIS: error= 1.35D-03 at cycle  26 NSaved=   7.
 NSaved= 7 IEnMin= 7 EnMin= -1926.18958147766     IErMin= 7 ErrMin= 1.35D-03
 ErrMax= 1.35D-03  0.00D+00 EMaxC= 1.00D+00 BMatC= 4.31D-04 BMatP= 2.94D-04
 IDIUse=1 WtCom= 1.00D+00 WtEn= 0.00D+00
 Coeff-Com:  0.263D+01-0.494D+01 0.466D+01 0.556D+01-0.415D+01-0.814D+01
 Coeff-Com:  0.538D+01
 Coeff:      0.263D+01-0.494D+01 0.466D+01 0.556D+01-0.415D+01-0.814D+01
 Coeff:      0.538D+01
 Gap=     0.236 Goal=   None    Shift=    0.500
 Gap=     0.094 Goal=   None    Shift=    0.500
 GapD=    0.094 DampG=0.500 DampE=1.000 DampFc=0.5000 IDamp=-1.
 Damping current iteration by 5.00D-01
 RMSDP=1.66D-05 MaxDP=9.12D-04 DE=-6.26D-05 OVMax= 3.21D-03

 Cycle  27  Pass 1  IDiag  1:
 E= -1926.18963227438     Delta-E=       -0.000050796721 Rises=F Damp=T
 DIIS: error= 1.33D-03 at cycle  27 NSaved=   8.
 NSaved= 8 IEnMin= 8 EnMin= -1926.18963227438     IErMin= 8 ErrMin= 1.33D-03
 ErrMax= 1.33D-03  0.00D+00 EMaxC= 1.00D+00 BMatC= 4.62D-04 BMatP= 2.94D-04
 IDIUse=1 WtCom= 1.00D+00 WtEn= 0.00D+00
 Coeff-Com:  0.271D+01-0.497D+01 0.471D+01 0.535D+01-0.420D+01-0.961D+01
 Coeff-Com:  0.886D+01-0.185D+01
 Coeff:      0.271D+01-0.497D+01 0.471D+01 0.535D+01-0.420D+01-0.961D+01
 Coeff:      0.886D+01-0.185D+01
 Gap=     0.236 Goal=   None    Shift=    0.500
 Gap=     0.094 Goal=   None    Shift=    0.500
 GapD=    0.094 DampG=0.500 DampE=1.000 DampFc=0.5000 IDamp=-1.
 Damping current iteration by 5.00D-01
 RMSDP=1.36D-05 MaxDP=7.84D-04 DE=-5.08D-05 OVMax= 2.69D-03

 Cycle  28  Pass 1  IDiag  1:
 E= -1926.18967265282     Delta-E=       -0.000040378436 Rises=F Damp=T
 DIIS: error= 1.30D-03 at cycle  28 NSaved=   9.
 NSaved= 9 IEnMin= 9 EnMin= -1926.18967265282     IErMin= 9 ErrMin= 1.30D-03
 ErrMax= 1.30D-03  0.00D+00 EMaxC= 1.00D+00 BMatC= 4.96D-04 BMatP= 2.94D-04
 IDIUse=1 WtCom= 1.00D+00 WtEn= 0.00D+00
 Large coefficients: NSaved=  9 BigCof=   92.42 CofMax=   10.00 Det=-7.21D-11
 Inversion failed.  Reducing to  8 matrices.
 Large coefficients: NSaved=  8 BigCof=   14.07 CofMax=   10.00 Det=-1.98D-10
 Inversion failed.  Reducing to  7 matrices.
 Large coefficients: NSaved=  7 BigCof=   21.40 CofMax=   10.00 Det=-2.22D-10
 Inversion failed.  Reducing to  6 matrices.
 Large coefficients: NSaved=  6 BigCof=   24.36 CofMax=   10.00 Det=-2.62D-10
 Inversion failed.  Reducing to  5 matrices.
 Large coefficients: NSaved=  5 BigCof=   35.95 CofMax=   10.00 Det=-2.65D-10
 Inversion failed.  Reducing to  4 matrices.
 Large coefficients: NSaved=  4 BigCof=   35.64 CofMax=   10.00 Det=-2.65D-10
 Inversion failed.  Reducing to  3 matrices.
 Large coefficients: NSaved=  3 BigCof=   37.89 CofMax=   10.00 Det=-3.32D-10
 Inversion failed.  Reducing to  2 matrices.
 Large coefficients: NSaved=  2 BigCof=   21.12 CofMax=   10.00 Det=-8.19D-07
 Coeff-Com:  0.211D+02-0.201D+02
 Coeff:      0.211D+02-0.201D+02
 Gap=     0.235 Goal=   None    Shift=    0.500
 Gap=     0.094 Goal=   None    Shift=    0.500
 GapD=    0.094 DampG=0.500 DampE=1.000 DampFc=0.5000 IDamp=-1.
 Damping current iteration by 5.00D-01
 RMSDP=1.22D-05 MaxDP=6.22D-04 DE=-4.04D-05 OVMax= 1.25D-03

 Cycle  29  Pass 1  IDiag  1:
 E= -1926.18968730248     Delta-E=       -0.000014649665 Rises=F Damp=T
 DIIS: error= 1.26D-03 at cycle  29 NSaved=   3.
 NSaved= 3 IEnMin= 3 EnMin= -1926.18968730248     IErMin= 3 ErrMin= 1.26D-03
 ErrMax= 1.26D-03  0.00D+00 EMaxC= 1.00D+00 BMatC= 5.61D-04 BMatP= 4.62D-04
 IDIUse=1 WtCom= 1.00D+00 WtEn= 0.00D+00
 Large coefficients: NSaved=  3 BigCof=   23.87 CofMax=   10.00 Det=-2.92D-08
 Inversion failed.  Reducing to  2 matrices.
 Large coefficients: NSaved=  2 BigCof=   11.57 CofMax=   10.00 Det=-2.94D-06
 Coeff-Com:  0.116D+02-0.106D+02
 Coeff:      0.116D+02-0.106D+02
 Gap=     0.241 Goal=   None    Shift=    0.500
 Gap=     0.094 Goal=   None    Shift=    0.500
 GapD=    0.094 DampG=0.500 DampE=1.000 DampFc=0.5000 IDamp=-1.
 Damping current iteration by 5.00D-01
 RMSDP=4.27D-05 MaxDP=2.64D-03 DE=-1.46D-05 OVMax= 7.52D-03

 Cycle  30  Pass 1  IDiag  1:
 E= -1926.18980185169     Delta-E=       -0.000114549202 Rises=F Damp=T
 DIIS: error= 1.33D-03 at cycle  30 NSaved=   3.
 NSaved= 3 IEnMin= 3 EnMin= -1926.18980185169     IErMin= 2 ErrMin= 1.26D-03
 ErrMax= 1.33D-03  0.00D+00 EMaxC= 1.00D+00 BMatC= 4.44D-04 BMatP= 4.96D-04
 IDIUse=1 WtCom= 1.00D+00 WtEn= 0.00D+00
 Coeff-Com:  0.909D+01-0.983D+01 0.174D+01
 Coeff:      0.909D+01-0.983D+01 0.174D+01
 Gap=     0.241 Goal=   None    Shift=    0.500
 Gap=     0.095 Goal=   None    Shift=    0.500
 GapD=    0.095 DampG=0.500 DampE=1.000 DampFc=0.5000 IDamp=-1.
 Damping current iteration by 5.00D-01
 RMSDP=5.74D-05 MaxDP=4.00D-03 DE=-1.15D-04 OVMax= 8.75D-03

 Cycle  31  Pass 1  IDiag  1:
 E= -1926.18994710365     Delta-E=       -0.000145251962 Rises=F Damp=T
 DIIS: error= 1.41D-03 at cycle  31 NSaved=   4.
 NSaved= 4 IEnMin= 4 EnMin= -1926.18994710365     IErMin= 2 ErrMin= 1.26D-03
 ErrMax= 1.41D-03  0.00D+00 EMaxC= 1.00D+00 BMatC= 3.48D-04 BMatP= 4.44D-04
 IDIUse=1 WtCom= 1.00D+00 WtEn= 0.00D+00
 Coeff-Com:  0.653D+01-0.709D+01-0.644D-01 0.163D+01
 Coeff:      0.653D+01-0.709D+01-0.644D-01 0.163D+01
 Gap=     0.242 Goal=   None    Shift=    0.500
 Gap=     0.095 Goal=   None    Shift=    0.500
 GapD=    0.095 DampG=0.500 DampE=1.000 DampFc=0.5000 IDamp=-1.
 Damping current iteration by 5.00D-01
 RMSDP=6.57D-05 MaxDP=4.64D-03 DE=-1.45D-04 OVMax= 9.95D-03

 Cycle  32  Pass 1  IDiag  1:
 E= -1926.19011294794     Delta-E=       -0.000165844292 Rises=F Damp=T
 DIIS: error= 1.48D-03 at cycle  32 NSaved=   5.
 NSaved= 5 IEnMin= 5 EnMin= -1926.19011294794     IErMin= 2 ErrMin= 1.26D-03
 ErrMax= 1.48D-03  0.00D+00 EMaxC= 1.00D+00 BMatC= 2.77D-04 BMatP= 3.48D-04
 IDIUse=1 WtCom= 1.00D+00 WtEn= 0.00D+00
 Coeff-Com:  0.509D+01-0.573D+01 0.613D+00-0.481D+00 0.150D+01
 Coeff:      0.509D+01-0.573D+01 0.613D+00-0.481D+00 0.150D+01
 Gap=     0.243 Goal=   None    Shift=    0.500
 Gap=     0.095 Goal=   None    Shift=    0.500
 GapD=    0.095 DampG=0.500 DampE=1.000 DampFc=0.5000 IDamp=-1.
 Damping current iteration by 5.00D-01
 RMSDP=6.76D-05 MaxDP=4.72D-03 DE=-1.66D-04 OVMax= 1.03D-02

 >>>>>>>>>> Convergence criterion not met.
 SCF Done:  E(ULC-wHPBE) =  -1926.19011295     A.U. after   33 cycles
            NFock= 32  Conv=0.68D-04     -V/T= 2.0033
 <Sx>= 0.0000 <Sy>= 0.0000 <Sz>= 0.5000 <S**2>= 0.7574 S= 0.5037
 <L.S>= 0.000000000000E+00
 KE= 1.919876755300D+03 PE=-1.015283887137D+04 EE= 3.479525723042D+03
 Annihilation of the first spin contaminant:
 S**2 before annihilation     0.7573,   after     0.7498
 Leave Link  502 at Tue Jan 19 04:36:10 2021, MaxMem=  4026531840 cpu:           16995.5 elap:            2130.0
 (Enter /opt/ohpc/pub/libs/gaussian/g16-A.03/sandybridge/g16/l508.exe)
 Integral symmetry usage will be decided dynamically.
 Tight linear equation convergence will be used.
 ULC-wHPBE wavefunction.
 Quadratic Convergence SCF Method.
 Line search only if initial step raises energy.
 FoFJK:  IHMeth= 1 ICntrl=       0 DoSepK=T KAlg= 0 I1Cent=           0 FoldK=F
 IRaf=         1 NMat=       1 IRICut=       1 DoRegI=T DoRafI=F ISym2E= 1 IDoP0=0 IntGTp=1.
 FoFCou: FMM=F IPFlag=           0 FMFlag=      100000 FMFlg1=           0
         NFxFlg=           0 DoJE=T BraDBF=F KetDBF=F FulRan=T
         wScrn=  0.000000 ICntrl=       500 IOpCl=  0 I1Cent=           0 NGrid=           0
         NMat0=    1 NMatS0=      1 NMatT0=    0 NMatD0=    1 NMtDS0=    0 NMtDT0=    0
 Petite list used in FoFCou.
 Iteration   1 EE= -1926.19049528372                                    Grad=1.000D-02 Max rot=    0.3637 deg.
 Gradient too large for Newton-Raphson -- use scaled steepest descent instead.
     ILin= 1 X=0.000D+00 Y=-1.926190495284D+03 DE= 0.00D+00 F= -2.45D-04
     ILin= 2 X=3.000D-01 Y=-1.926190566678D+03 DE=-7.14D-05 F= -2.31D-04
     ILin= 3 X=6.000D-01 Y=-1.926190634008D+03 DE=-1.39D-04 F= -2.18D-04
     ILin= 4 X=1.200D+00 Y=-1.926190756516D+03 DE=-2.61D-04 F= -1.91D-04
     ILin= 5 X=2.400D+00 Y=-1.926190953235D+03 DE=-4.58D-04 F= -1.37D-04
     ILin= 6 X=4.800D+00 Y=-1.926191155593D+03 DE=-6.60D-04 F= -3.17D-05
     ILin= 7 X=9.600D+00 Y=-1.926190807949D+03 DE=-3.13D-04 F=  1.76D-04
     An  expanding polynomial of degree  7 produced  5.5260
 Iteration   2 EE= -1926.19116709495     Delta-E=       -0.000671811229 Grad=3.324D-02 Max rot=    0.7077 deg.
 Gradient too large for Newton-Raphson -- use scaled steepest descent instead.
     ILin= 1 X=0.000D+00 Y=-1.926191167095D+03 DE= 0.00D+00 F= -1.80D-03
     ILin= 2 X=1.300D+00 Y=-1.926191447077D+03 DE=-2.80D-04 F=  1.37D-03
     Accept linear search using points  1 and  2.
     An  expanding polynomial of degree  2 produced  0.7769
 Iteration   3 EE= -1926.19182976953     Delta-E=       -0.000662674585 Grad=1.276D-02 Max rot=    0.3842 deg.
 Gradient too large for Newton-Raphson -- use scaled steepest descent instead.
     ILin= 1 X=0.000D+00 Y=-1.926191829770D+03 DE= 0.00D+00 F= -3.06D-04
     ILin= 2 X=2.100D+00 Y=-1.926192156007D+03 DE=-3.26D-04 F= -5.13D-06
     ILin= 3 X=4.100D+00 Y=-1.926191880213D+03 DE=-5.04D-05 F=  2.81D-04
     An  expanding polynomial of degree  3 produced  2.1360
     Minimum is close to point  2 DX=  3.60D-02 DF= -9.27D-08 DXR=  1.69D-02 DFR=  2.84D-04 which will be used.
 Iteration   4 EE= -1926.19215600673     Delta-E=       -0.000326237194 Grad=2.177D-02 Max rot=    0.5231 deg.
 Gradient too large for Newton-Raphson -- use scaled steepest descent instead.
     ILin= 1 X=0.000D+00 Y=-1.926192156007D+03 DE= 0.00D+00 F= -7.28D-04
     ILin= 2 X=1.300D+00 Y=-1.926192390672D+03 DE=-2.35D-04 F=  3.67D-04
     Accept linear search using points  1 and  2.
     An  expanding polynomial of degree  2 produced  0.9429
 Iteration   5 EE= -1926.19246802684     Delta-E=       -0.000312020107 Grad=1.472D-02 Max rot=    0.3550 deg.
 Gradient too large for Newton-Raphson -- use scaled steepest descent instead.
     ILin= 1 X=0.000D+00 Y=-1.926192468027D+03 DE= 0.00D+00 F= -3.71D-04
     ILin= 2 X=1.400D+00 Y=-1.926192733959D+03 DE=-2.66D-04 F= -8.40D-06
     Reject lnstep minimum 1.413D+00 FVal=-1.926192733997D+03 Lims=  0.00D+00  1.40D+00
     ILin= 3 X=2.800D+00 Y=-1.926192491459D+03 DE=-2.34D-05 F=  3.55D-04
     An  expanding polynomial of degree  3 produced  1.4323
     Minimum is close to point  2 DX=  3.23D-02 DF= -1.35D-07 DXR=  2.25D-02 DFR=  5.08D-04 which will be used.
 Iteration   6 EE= -1926.19273395937     Delta-E=       -0.000265932536 Grad=1.650D-02 Max rot=    0.4924 deg.
 Gradient too large for Newton-Raphson -- use scaled steepest descent instead.
     ILin= 1 X=0.000D+00 Y=-1.926192733959D+03 DE= 0.00D+00 F= -4.85D-04
     ILin= 2 X=1.200D+00 Y=-1.926192991665D+03 DE=-2.58D-04 F=  5.58D-05
     Accept linear search using points  1 and  2.
     An  expanding polynomial of degree  2 produced  1.1161
     Minimum is close to point  2 DX= -8.39D-02 DF= -1.93D-06 DXR=  7.52D-02 DFR=  7.49D-03 which will be used.
 Iteration   7 EE= -1926.19299166549     Delta-E=       -0.000257706117 Grad=1.770D-02 Max rot=    0.3385 deg.
 Gradient too large for Newton-Raphson -- use scaled steepest descent instead.
     ILin= 1 X=0.000D+00 Y=-1.926192991665D+03 DE= 0.00D+00 F= -4.78D-04
     ILin= 2 X=1.300D+00 Y=-1.926193239817D+03 DE=-2.48D-04 F=  9.67D-05
     Accept linear search using points  1 and  2.
     An  expanding polynomial of degree  2 produced  1.1614
 Iteration   8 EE= -1926.19324897008     Delta-E=       -0.000257304591 Grad=1.553D-02 Max rot=    0.4795 deg.
 Gradient too large for Newton-Raphson -- use scaled steepest descent instead.
     ILin= 1 X=0.000D+00 Y=-1.926193248970D+03 DE= 0.00D+00 F= -4.40D-04
     ILin= 2 X=1.100D+00 Y=-1.926193501684D+03 DE=-2.53D-04 F= -1.97D-05
     Reject lnstep minimum 1.138D+00 FVal=-1.926193502025D+03 Lims=  0.00D+00  1.10D+00
     ILin= 3 X=2.300D+00 Y=-1.926193250572D+03 DE=-1.60D-06 F=  4.38D-04
     An  expanding polynomial of degree  3 produced  1.1518
     Minimum is close to point  2 DX=  5.18D-02 DF= -5.13D-07 DXR=  4.50D-02 DFR=  2.03D-03 which will be used.
 Iteration   9 EE= -1926.19350168354     Delta-E=       -0.000252713461 Grad=1.473D-02 Max rot=    0.3549 deg.
 Gradient too large for Newton-Raphson -- use scaled steepest descent instead.
     ILin= 1 X=0.000D+00 Y=-1.926193501684D+03 DE= 0.00D+00 F= -3.66D-04
     ILin= 2 X=1.200D+00 Y=-1.926193751893D+03 DE=-2.50D-04 F= -5.09D-05
     Reject lnstep minimum 1.297D+00 FVal=-1.926193753978D+03 Lims=  0.00D+00  1.20D+00
     ILin= 3 X=2.300D+00 Y=-1.926193648692D+03 DE=-1.47D-04 F=  2.39D-04
     An  expanding polynomial of degree  3 produced  1.3931
 Iteration  10 EE= -1926.19375681254     Delta-E=       -0.000255129002 Grad=1.664D-02 Max rot=    0.4782 deg.
 Gradient too large for Newton-Raphson -- use scaled steepest descent instead.
     ILin= 1 X=0.000D+00 Y=-1.926193756813D+03 DE= 0.00D+00 F= -4.79D-04
     ILin= 2 X=1.300D+00 Y=-1.926193994492D+03 DE=-2.38D-04 F=  1.13D-04
     Accept linear search using points  1 and  2.
     An  expanding polynomial of degree  2 produced  1.1369
 Iteration  11 EE= -1926.19400684717     Delta-E=       -0.000250034626 Grad=1.639D-02 Max rot=    0.3424 deg.
 Gradient too large for Newton-Raphson -- use scaled steepest descent instead.
     ILin= 1 X=0.000D+00 Y=-1.926194006847D+03 DE= 0.00D+00 F= -4.20D-04
     ILin= 2 X=1.300D+00 Y=-1.926194247175D+03 DE=-2.40D-04 F=  5.07D-05
     Accept linear search using points  1 and  2.
     An  expanding polynomial of degree  2 produced  1.2194
     Minimum is close to point  2 DX= -8.06D-02 DF= -1.55D-06 DXR=  6.61D-02 DFR=  6.46D-03 which will be used.
 Iteration  12 EE= -1926.19424717505     Delta-E=       -0.000240327878 Grad=1.713D-02 Max rot=    0.4727 deg.
 Gradient too large for Newton-Raphson -- use scaled steepest descent instead.
[...]
    25   Atom       -0.010134     -0.007425      0.017560
    26   Atom        0.010936     -0.008007     -0.002928
    27   Atom       -0.023576      0.032630     -0.009054
    28   Atom        0.010544     -0.001427     -0.009117
    29   Atom        0.004615      0.007281     -0.011896
    30   Atom       -0.037456     -0.011948      0.049404
    31   Atom        0.001306     -0.000574     -0.000732
    32   Atom        0.001942     -0.001256     -0.000685
    33   Atom        0.000633     -0.000200     -0.000433
    34   Atom        0.000394      0.000063     -0.000457
    35   Atom       -0.013997      0.002587      0.011409
    36   Atom        0.077996     -0.043261     -0.034735
    37   Atom        0.050331     -0.018112     -0.032219
    38   Atom       -0.002523      0.006171     -0.003647
    39   Atom       -0.010338      0.013058     -0.002720
    40   Atom        0.038301     -0.042688      0.004386
    41   Atom       -0.000817     -0.001603      0.002420
    42   Atom       -0.000875     -0.001545      0.002420
    43   Atom       -0.001222      0.000533      0.000690
    44   Atom       -0.001344      0.000761      0.000584
    45   Atom        0.084752     -0.075775     -0.008977
    46   Atom        0.000797     -0.003359      0.002562
    47   Atom       -0.057175     -0.008862      0.066037
    48   Atom       -0.004069      0.002929      0.001140
 --------------------------------------------------------
                        XY            XZ            YZ
 --------------------------------------------------------
     1   Atom        0.000806     -0.000952     -0.001571
     2   Atom       -0.001288      0.003214      0.000491
     3   Atom        0.005615     -0.036565     -0.033423
     4   Atom        0.004086     -0.002778     -0.002403
     5   Atom       -0.004172     -0.000626      0.021329
     6   Atom       -0.005885      0.002567     -0.098454
     7   Atom        0.000396      0.000012      0.000269
     8   Atom       -0.000202      0.001223      0.001265
     9   Atom        0.000652      0.000663      0.000673
    10   Atom        0.012072     -0.009132     -0.074592
    11   Atom       -0.000305      0.000279      0.027469
    12   Atom       -0.004541      0.001941     -0.099516
    13   Atom       -0.006407      0.002153      0.006609
    14   Atom        0.001106     -0.000058      0.004889
    15   Atom        0.000262      0.000109      0.001646
    16   Atom        0.004862      0.003917      0.003716
    17   Atom        0.000738     -0.000564     -0.002773
    18   Atom       -0.000337     -0.000050      0.000080
    19   Atom       -0.001383     -0.000209      0.000427
    20   Atom       -0.000070      0.000078      0.000023
    21   Atom        0.000219      0.000253      0.000151
    22   Atom        0.000316      0.000259      0.000061
    23   Atom        0.011569     -0.000818     -0.003699
    24   Atom        0.010735      0.279385      0.052926
    25   Atom        0.010890     -0.002734      0.005082
    26   Atom       -0.038962     -0.041178      0.037015
    27   Atom       -0.043061     -0.030779      0.050237
    28   Atom        0.004623      0.002338     -0.013801
    29   Atom        0.006201      0.008829     -0.008668
    30   Atom       -0.021023     -0.039097      0.063841
    31   Atom       -0.002279      0.003231     -0.003417
    32   Atom       -0.002073      0.004054     -0.002521
    33   Atom        0.000609      0.001203     -0.001425
    34   Atom        0.000706      0.001057     -0.001573
    35   Atom       -0.001943      0.013626      0.007552
    36   Atom        0.013300      0.033280      0.006928
    37   Atom        0.044013      0.028251      0.010437
    38   Atom       -0.008576     -0.009799     -0.005937
    39   Atom       -0.001655     -0.014780     -0.000968
    40   Atom        0.023377      0.074009      0.019813
    41   Atom        0.000679     -0.004493     -0.002534
    42   Atom        0.000431     -0.004605     -0.001066
    43   Atom       -0.000784     -0.001621     -0.000251
    44   Atom       -0.000666     -0.001454     -0.000429
    45   Atom        0.045643      0.116240      0.032671
    46   Atom       -0.002101     -0.004595      0.003231
    47   Atom       -0.049198     -0.069723      0.107831
    48   Atom       -0.002182      0.001015     -0.005059
 --------------------------------------------------------


 ---------------------------------------------------------------------------------
              Anisotropic Spin Dipole Couplings in Principal Axis System
 ---------------------------------------------------------------------------------

       Atom             a.u.   MegaHertz   Gauss  10(-4) cm-1        Axes

              Baa    -0.0017    -0.221    -0.079    -0.074 -0.0275  0.7870  0.6163
     1 C(13)  Bbb    -0.0006    -0.084    -0.030    -0.028  0.8696 -0.2853  0.4030
              Bcc     0.0023     0.306     0.109     0.102 -0.4930 -0.5470  0.6766
 
              Baa    -0.0043    -0.575    -0.205    -0.192  0.4974  0.8323 -0.2446
     2 C(13)  Bbb    -0.0013    -0.177    -0.063    -0.059  0.7317 -0.5540 -0.3971
              Bcc     0.0056     0.752     0.268     0.251  0.4660 -0.0185  0.8846
 
              Baa    -0.0609    -2.499    -0.892    -0.833  0.9471  0.1832  0.2634
     3 S(33)  Bbb    -0.0490    -2.010    -0.717    -0.671 -0.2314  0.9587  0.1651
              Bcc     0.1100     4.509     1.609     1.504 -0.2223 -0.2174  0.9504
 
              Baa    -0.0049    -0.651    -0.232    -0.217  0.8166 -0.5553  0.1576
     4 C(13)  Bbb    -0.0014    -0.183    -0.065    -0.061  0.2223  0.5546  0.8019
              Bcc     0.0062     0.835     0.298     0.278  0.5327  0.6197 -0.5763
 
              Baa    -0.0325    -4.360    -1.556    -1.454 -0.0327 -0.5105  0.8592
     5 C(13)  Bbb     0.0123     1.655     0.591     0.552  0.7094  0.5937  0.3798
              Bcc     0.0202     2.704     0.965     0.902  0.7040 -0.6220 -0.3427
 
              Baa    -0.0861   -11.548    -4.121    -3.852  0.3356  0.8428  0.4209
     6 C(13)  Bbb    -0.0731    -9.815    -3.502    -3.274  0.9418 -0.2901 -0.1700
              Bcc     0.1592    21.363     7.623     7.126  0.0212 -0.4534  0.8910
 
              Baa    -0.0010    -0.138    -0.049    -0.046  0.0444 -0.2379  0.9703
     7 C(13)  Bbb     0.0000     0.002     0.001     0.001 -0.4328  0.8708  0.2333
              Bcc     0.0010     0.136     0.048     0.045  0.9004  0.4303  0.0643
 
              Baa    -0.0021    -0.286    -0.102    -0.095 -0.3387 -0.5585  0.7572
     8 C(13)  Bbb     0.0004     0.055     0.019     0.018 -0.5093  0.7855  0.3516
              Bcc     0.0017     0.231     0.082     0.077  0.7911  0.2666  0.5505
 
              Baa    -0.0010    -0.560    -0.200    -0.187 -0.0714 -0.6091  0.7899
     9 H(1)   Bbb    -0.0004    -0.225    -0.080    -0.075 -0.6233  0.6455  0.4414
              Bcc     0.0015     0.785     0.280     0.262  0.7787  0.4608  0.4257
 
              Baa    -0.0528    -7.082    -2.527    -2.362 -0.5626  0.6406  0.5226
    10 C(13)  Bbb    -0.0473    -6.341    -2.263    -2.115  0.8206  0.3558  0.4473
              Bcc     0.1000    13.423     4.790     4.477 -0.1006 -0.6805  0.7258
 
              Baa    -0.0449    -6.029    -2.151    -2.011 -0.0056 -0.4795  0.8775
    11 C(13)  Bbb     0.0203     2.730     0.974     0.911  0.0315  0.8770  0.4795
              Bcc     0.0246     3.300     1.177     1.101  0.9995 -0.0303 -0.0102
 
              Baa    -0.0696    -9.335    -3.331    -3.114  0.9068  0.3189  0.2756
    12 C(13)  Bbb    -0.0645    -8.649    -3.086    -2.885 -0.4209  0.6504  0.6323
              Bcc     0.1340    17.984     6.417     5.999  0.0224 -0.6894  0.7241
 
              Baa    -0.0180    -2.416    -0.862    -0.806  0.2454  0.9276 -0.2818
    13 C(13)  Bbb     0.0076     1.020     0.364     0.340 -0.0706  0.3070  0.9491
              Bcc     0.0104     1.397     0.498     0.466  0.9668 -0.2130  0.1408
 
              Baa    -0.0044    -2.324    -0.829    -0.775  0.3877 -0.5082  0.7690
    14 H(1)   Bbb    -0.0026    -1.394    -0.497    -0.465  0.9170  0.1280 -0.3777
              Bcc     0.0070     3.718     1.327     1.240  0.0935  0.8517  0.5157
 
              Baa    -0.0028    -1.498    -0.534    -0.500  0.0130 -0.5837  0.8119
    15 H(1)   Bbb     0.0006     0.331     0.118     0.110 -0.1792  0.7975  0.5761
              Bcc     0.0022     1.167     0.416     0.389  0.9837  0.1529  0.0942
 
              Baa    -0.0051    -2.748    -0.980    -0.917 -0.6197  0.0132  0.7847
    16 H(1)   Bbb    -0.0036    -1.897    -0.677    -0.633 -0.5320  0.7280 -0.4324
              Bcc     0.0087     4.645     1.657     1.549  0.5770  0.6855  0.4441
 
              Baa    -0.0024    -0.315    -0.113    -0.105 -0.5471  0.7395  0.3921
    17 C(13)  Bbb    -0.0017    -0.226    -0.081    -0.075  0.8235  0.3917  0.4103
              Bcc     0.0040     0.542     0.193     0.181 -0.1498 -0.5474  0.8233
 
              Baa    -0.0004    -0.210    -0.075    -0.070  0.2274  0.7260 -0.6490
    18 H(1)   Bbb    -0.0003    -0.148    -0.053    -0.049  0.2886  0.5863  0.7570
              Bcc     0.0007     0.358     0.128     0.120  0.9301 -0.3594 -0.0761
 
              Baa    -0.0015    -0.788    -0.281    -0.263 -0.0443 -0.2150  0.9756
    19 H(1)   Bbb    -0.0007    -0.353    -0.126    -0.118  0.7289  0.6609  0.1788
              Bcc     0.0021     1.141     0.407     0.381 -0.6832  0.7190  0.1274
 
              Baa    -0.0002    -0.118    -0.042    -0.039 -0.1782 -0.3103  0.9338
    20 H(1)   Bbb    -0.0001    -0.059    -0.021    -0.020  0.0947  0.9392  0.3302
              Bcc     0.0003     0.177     0.063     0.059  0.9794 -0.1473  0.1379
 
              Baa    -0.0004    -0.187    -0.067    -0.062 -0.1000 -0.5894  0.8016
    21 H(1)   Bbb    -0.0002    -0.118    -0.042    -0.039 -0.4672  0.7391  0.4852
              Bcc     0.0006     0.305     0.109     0.102  0.8785  0.3260  0.3493
 
              Baa    -0.0004    -0.190    -0.068    -0.063 -0.5565  0.7393  0.3792
    22 H(1)   Bbb    -0.0002    -0.091    -0.032    -0.030 -0.1256 -0.5261  0.8411
              Bcc     0.0005     0.280     0.100     0.093  0.8213  0.4204  0.3856
 
              Baa    -0.0115    -0.473    -0.169    -0.158 -0.1788  0.2995  0.9372
    23 S(33)  Bbb    -0.0058    -0.238    -0.085    -0.080  0.7453 -0.5806  0.3278
              Bcc     0.0173     0.711     0.254     0.237  0.6423  0.7571 -0.1194
 
              Baa    -0.4775   -18.417    -6.572    -6.143  0.9779  0.0572 -0.2012
    24 N(14)  Bbb    -0.4769   -18.395    -6.564    -6.136 -0.0636  0.9977 -0.0255
              Bcc     0.9545    36.812    13.136    12.279  0.1992  0.0378  0.9792
 
              Baa    -0.0205    -2.755    -0.983    -0.919  0.7337 -0.6647  0.1414
    25 C(13)  Bbb     0.0020     0.263     0.094     0.088  0.6791  0.7247 -0.1170
              Bcc     0.0186     2.492     0.889     0.831 -0.0246  0.1819  0.9830
 
              Baa    -0.0426    -5.714    -2.039    -1.906  0.0366  0.7492 -0.6613
    26 C(13)  Bbb    -0.0363    -4.875    -1.739    -1.626  0.7671  0.4030  0.4991
              Bcc     0.0789    10.589     3.778     3.532  0.6405 -0.5256 -0.5600
 
              Baa    -0.0485    -6.504    -2.321    -2.170  0.8787  0.1973  0.4347
    27 C(13)  Bbb    -0.0422    -5.664    -2.021    -1.889 -0.2265 -0.6293  0.7434
              Bcc     0.0907    12.168     4.342     4.059 -0.4202  0.7517  0.5083
 
              Baa    -0.0203    -2.725    -0.972    -0.909 -0.1501  0.6072  0.7803
    28 C(13)  Bbb     0.0077     1.028     0.367     0.343 -0.5223  0.6214 -0.5840
              Bcc     0.0126     1.697     0.606     0.566  0.8395  0.4952 -0.2238
 
              Baa    -0.0198    -2.653    -0.947    -0.885 -0.3974  0.3614  0.8435
    29 C(13)  Bbb     0.0074     0.988     0.353     0.330  0.7332 -0.4277  0.5286
              Bcc     0.0124     1.665     0.594     0.555  0.5518  0.8286 -0.0950
 
              Baa    -0.0546    -7.333    -2.616    -2.446  0.6319 -0.5319  0.5638
    30 C(13)  Bbb    -0.0488    -6.553    -2.338    -2.186  0.7147  0.6813 -0.1583
              Bcc     0.1035    13.886     4.955     4.632 -0.2999  0.5030  0.8106
 
              Baa    -0.0042    -2.254    -0.804    -0.752 -0.2074  0.5964  0.7754
    31 H(1)   Bbb    -0.0018    -0.954    -0.340    -0.318  0.7395  0.6144 -0.2748
              Bcc     0.0060     3.208     1.145     1.070  0.6404 -0.5165  0.5685
 
              Baa    -0.0040    -2.154    -0.769    -0.718 -0.3962  0.4368  0.8076
    32 H(1)   Bbb    -0.0022    -1.172    -0.418    -0.391  0.5638  0.8100 -0.1614
              Bcc     0.0062     3.326     1.187     1.109  0.7247 -0.3914  0.5671
 
              Baa    -0.0023    -1.239    -0.442    -0.413 -0.4060  0.5866  0.7008
    33 H(1)   Bbb     0.0008     0.439     0.157     0.146  0.5914  0.7532 -0.2879
              Bcc     0.0015     0.800     0.286     0.267  0.6967 -0.2976  0.6527
 
              Baa    -0.0024    -1.264    -0.451    -0.422 -0.4162  0.5758  0.7037
    34 H(1)   Bbb     0.0009     0.498     0.178     0.166  0.8728  0.4699  0.1318
              Bcc     0.0014     0.766     0.273     0.255  0.2547 -0.6691  0.6982
 
              Baa    -0.0209    -2.810    -1.003    -0.937  0.8831  0.2079 -0.4205
    35 C(13)  Bbb     0.0013     0.176     0.063     0.059 -0.3290  0.9135 -0.2392
              Bcc     0.0196     2.634     0.940     0.879  0.3344  0.3496  0.8752
 
              Baa    -0.0476    -6.382    -2.277    -2.129  0.0905  0.7589 -0.6449
    36 C(13)  Bbb    -0.0412    -5.523    -1.971    -1.842 -0.2719  0.6418  0.7171
              Bcc     0.0887    11.905     4.248     3.971  0.9581  0.1104  0.2645
 
              Baa    -0.0429    -5.755    -2.054    -1.920 -0.4632  0.5208  0.7171
    37 C(13)  Bbb    -0.0370    -4.964    -1.771    -1.656 -0.1656  0.7440 -0.6473
              Bcc     0.0799    10.719     3.825     3.575  0.8706  0.4186  0.2584
 
              Baa    -0.0174    -2.330    -0.831    -0.777  0.6547  0.4004  0.6411
    38 C(13)  Bbb     0.0059     0.795     0.284     0.265 -0.5412 -0.3438  0.7674
              Bcc     0.0114     1.535     0.548     0.512 -0.5276  0.8494  0.0084
 
              Baa    -0.0219    -2.938    -1.048    -0.980  0.7895  0.0543  0.6113
    39 C(13)  Bbb     0.0087     1.170     0.418     0.390 -0.6088 -0.0558  0.7913
              Bcc     0.0132     1.768     0.631     0.590 -0.0771  0.9970  0.0110
 
              Baa    -0.0547    -7.344    -2.621    -2.450 -0.5906 -0.1560  0.7917
    40 C(13)  Bbb    -0.0490    -6.569    -2.344    -2.191 -0.2575  0.9663 -0.0016
              Bcc     0.1037    13.913     4.964     4.641  0.7648  0.2048  0.6109
 
              Baa    -0.0044    -2.323    -0.829    -0.775  0.6954  0.3865  0.6058
    41 H(1)   Bbb    -0.0020    -1.064    -0.380    -0.355 -0.4884  0.8726  0.0040
              Bcc     0.0063     3.387     1.209     1.130 -0.5271 -0.2986  0.7956
 
              Baa    -0.0041    -2.212    -0.789    -0.738  0.8061  0.1050  0.5824
    42 H(1)   Bbb    -0.0017    -0.901    -0.321    -0.300 -0.1726  0.9831  0.0616
              Bcc     0.0058     3.112     1.111     1.038 -0.5661 -0.1501  0.8106
 
              Baa    -0.0024    -1.266    -0.452    -0.422  0.8423  0.2677  0.4679
    43 H(1)   Bbb     0.0007     0.387     0.138     0.129 -0.1404  0.9470 -0.2891
              Bcc     0.0016     0.878     0.313     0.293 -0.5205  0.1778  0.8352
 
              Baa    -0.0023    -1.242    -0.443    -0.414  0.8515  0.2479  0.4620
    44 H(1)   Bbb     0.0010     0.509     0.182     0.170 -0.2862  0.9581  0.0133
              Bcc     0.0014     0.733     0.262     0.244 -0.4394 -0.1435  0.8868
 
              Baa    -0.0894     6.471     2.309     2.159  0.1945  0.7783 -0.5970
    45 O(17)  Bbb    -0.0863     6.245     2.228     2.083 -0.5558  0.5889  0.5867
              Bcc     0.1757   -12.716    -4.537    -4.242  0.8082  0.2177  0.5471
 
              Baa    -0.0048    -2.552    -0.911    -0.851  0.0270  0.9211 -0.3883
    46 H(1)   Bbb    -0.0029    -1.550    -0.553    -0.517  0.8060  0.2097  0.5535
              Bcc     0.0077     4.102     1.464     1.368 -0.5913  0.3279  0.7368
 
              Baa    -0.0887     6.416     2.290     2.140  0.9338  0.1207  0.3367
    47 O(17)  Bbb    -0.0855     6.189     2.208     2.064  0.0907  0.8307 -0.5493
              Bcc     0.1742   -12.606    -4.498    -4.205 -0.3460  0.5435  0.7648
 
              Baa    -0.0048    -2.538    -0.906    -0.847  0.9204  0.3606  0.1509
    48 H(1)   Bbb    -0.0029    -1.536    -0.548    -0.512 -0.3386  0.5425  0.7688
              Bcc     0.0076     4.074     1.454     1.359 -0.1954  0.7587 -0.6215
 

 ---------------------------------------------------------------------------------

 No NMR shielding tensors so no spin-rotation constants.
 Leave Link  601 at Tue Jan 19 06:48:58 2021, MaxMem=  4026531840 cpu:               8.9 elap:               1.6
 (Enter /opt/ohpc/pub/libs/gaussian/g16-A.03/sandybridge/g16/l9999.exe)

 Test job not archived.
 1\1\GINC-CASCADEB025\SP\ULC-wHPBE\TZVP\C24H19N1O2S2(1+,2)\RDU230\19-Ja
 n-2021\0\\#P LC-wHPBE/TZVP iop(3/107=0177800000, 3/108=0177800000) scf
 =(conver=6,fermi,ndamp=35,noincfock,novaracc,vshift=500,xqc)\\H19 C24 
 S2 N1 O2\\1,2\C,0,-6.54463,-1.193879,0.12701\C,0,-5.283469,-0.647909,0
 .131523\S,0,-3.665919,-1.107322,1.042984\C,0,-4.996815,0.486583,-0.537
 83\C,0,-1.475687,0.036886,0.221747\C,0,-1.772288,-1.094442,0.892846\C,
 0,-7.517398,-0.549399,-0.618903\C,0,-5.951198,1.159916,-1.262339\H,0,-
 2.843406,1.345523,-1.332578\C,0,-0.186077,0.430997,-0.028463\C,0,-0.77
 363,-1.912541,1.366813\C,0,0.53691,-1.552052,1.124661\C,0,0.845585,-0.
 387156,0.425435\H,0,0.045427,1.33981,-0.567415\H,0,-0.986976,-2.816418
 ,1.923251\H,0,1.342687,-2.175375,1.48462\C,0,-7.223748,0.615229,-1.306
 247\H,0,-6.782458,-2.097666,0.673346\H,0,-3.815781,-2.43941,0.928305\H
 ,0,-8.517553,-0.958288,-0.663525\H,0,-5.730059,2.077989,-1.791552\H,0,
 -7.997253,1.105431,-1.881471\S,0,-3.166075,0.851646,-0.124057\N,0,2.18
 2887,-0.044483,0.184905\C,0,3.146505,-1.044921,-0.067172\C,0,4.392012,
 -0.989098,0.539344\C,0,2.878694,-2.090316,-0.930362\C,0,5.345494,-1.94
 6131,0.285899\C,0,3.822608,-3.066997,-1.170354\C,0,5.062274,-2.995295,
 -0.567641\H,0,4.612943,-0.17489,1.215121\H,0,1.913696,-2.145516,-1.414
 069\H,0,6.317156,-1.901598,0.755555\H,0,3.591387,-3.881585,-1.84538\C,
 0,2.575405,1.310294,0.123192\C,0,3.391681,1.763268,-0.894977\C,0,2.164
 04,2.211964,1.09371\C,0,3.796835,3.081396,-0.942072\C,0,2.544098,3.531
 176,1.038879\C,0,3.368807,3.972023,0.020733\H,0,3.723839,1.07184,-1.65
 6403\H,0,1.529535,1.868488,1.898614\H,0,4.442764,3.41523,-1.744528\H,0
 ,2.220724,4.234697,1.791974\O,0,3.726245,5.28132,0.019257\H,0,4.294203
 ,5.466041,-0.728132\O,0,6.032969,-3.920806,-0.776143\H,0,5.721078,-4.5
 93785,-1.380389\\Version=EM64L-G16RevA.03\State=2-A\HF=-1926.2003403\S
 2=0.763962\S2-1=0.\S2A=0.750174\RMSD=8.527e-08\Dipole=2.842232,-0.5626
 701,-1.1926407\Quadrupole=28.5674642,0.9685068,-29.5359709,4.8887988,-
 5.4340258,-3.4769884\PG=C01 [X(C24H19N1O2S2)]\\@


 WE HAVE SEEN THAT MAN ON THE AVERAGE DOES NOT LIVE ABOVE
 TWO-AND-TWENTY YEARS.  DURING THESE TWO AND TWENTY
 YEARS HE IS LIABLE TO TWO AND TWENTY THOUSAND EVILS,
 MANY OF WHICH ARE INCURABLE.  YET EVEN IN THIS DREADFUL STATE
 MEN STILL STRUT AND POSE ON THE STAGE OF LIFE.
 THEY MAKE LOVE AT THE RISK OF DESTRUCTION,
 INTRIGUE, CARRY ON WAR, AND FORM PROJECTS, JUST AS IF THEY
 WERE TO LIVE IN LUXURY AND HAPPINESS FOR A THOUSAND
 AGES.

                                              -- VOLTAIRE
 Job cpu time:       0 days 22 hours 23 minutes 26.6 seconds.
 Elapsed time:       0 days  2 hours 48 minutes 28.0 seconds.
 File lengths (MBytes):  RWF=    264 Int=      0 D2E=      0 Chk=     36 Scr=      8
 Normal termination of Gaussian 16 at Tue Jan 19 06:48:59 2021.
