 Entering Gaussian System, Link 0=g16
 Input=mol_ta_ma_half_tune_n5.gjf
 Output=mol_ta_ma_half_tune_n5.log
 Initial command:
 /opt/ohpc/pub/libs/gaussian/g16-A.03/sandybridge/g16/l1.exe "/mnt/gpfs2_4m/scratch/rdu230/ondemand/projects/init_structures/wtuning/mol_ta_ma_half/tuning_mol_ta_ma_half_ocycle0/Gau-206625.inp" -scrdir="/mnt/gpfs2_4m/scratch/rdu230/ondemand/projects/init_structures/wtuning/mol_ta_ma_half/tuning_mol_ta_ma_half_ocycle0/"
 Entering Link 1 = /opt/ohpc/pub/libs/gaussian/g16-A.03/sandybridge/g16/l1.exe PID=    206626.
  
 Copyright (c) 1988,1990,1992,1993,1995,1998,2003,2009,2016,
            Gaussian, Inc.  All Rights Reserved.
  
 This is part of the Gaussian(R) 16 program.  It is based on
 the Gaussian(R) 09 system (copyright 2009, Gaussian, Inc.),
 the Gaussian(R) 03 system (copyright 2003, Gaussian, Inc.),
 the Gaussian(R) 98 system (copyright 1998, Gaussian, Inc.),
 the Gaussian(R) 94 system (copyright 1995, Gaussian, Inc.),
 the Gaussian 92(TM) system (copyright 1992, Gaussian, Inc.),
 the Gaussian 90(TM) system (copyright 1990, Gaussian, Inc.),
 the Gaussian 88(TM) system (copyright 1988, Gaussian, Inc.),
 the Gaussian 86(TM) system (copyright 1986, Carnegie Mellon
 University), and the Gaussian 82(TM) system (copyright 1983,
 Carnegie Mellon University). Gaussian is a federally registered
 trademark of Gaussian, Inc.
  
 This software contains proprietary and confidential information,
 including trade secrets, belonging to Gaussian, Inc.
  
 This software is provided under written license and may be
 used, copied, transmitted, or stored only in accord with that
 written license.
  
 The following legend is applicable only to US Government
 contracts under FAR:
  
                    RESTRICTED RIGHTS LEGEND
  
 Use, reproduction and disclosure by the US Government is
 subject to restrictions as set forth in subparagraphs (a)
 and (c) of the Commercial Computer Software - Restricted
 Rights clause in FAR 52.227-19.
  
 Gaussian, Inc.
 340 Quinnipiac St., Bldg. 40, Wallingford CT 06492
  
  
 ---------------------------------------------------------------
 Warning -- This program may not be used in any manner that
 competes with the business of Gaussian, Inc. or will provide
 assistance to any competitor of Gaussian, Inc.  The licensee
 of this program is prohibited from giving any competitor of
 Gaussian, Inc. access to this program.  By using this program,
 the user acknowledges that Gaussian, Inc. is engaged in the
 business of creating and licensing software in the field of
 computational chemistry and represents and warrants to the
 licensee that it is not a competitor of Gaussian, Inc. and that
 it will not use this program in any manner prohibited above.
 ---------------------------------------------------------------
  

 Cite this work as:
 Gaussian 16, Revision A.03,
 M. J. Frisch, G. W. Trucks, H. B. Schlegel, G. E. Scuseria, 
 M. A. Robb, J. R. Cheeseman, G. Scalmani, V. Barone, 
 G. A. Petersson, H. Nakatsuji, X. Li, M. Caricato, A. V. Marenich, 
 J. Bloino, B. G. Janesko, R. Gomperts, B. Mennucci, H. P. Hratchian, 
 J. V. Ortiz, A. F. Izmaylov, J. L. Sonnenberg, D. Williams-Young, 
 F. Ding, F. Lipparini, F. Egidi, J. Goings, B. Peng, A. Petrone, 
 T. Henderson, D. Ranasinghe, V. G. Zakrzewski, J. Gao, N. Rega, 
 G. Zheng, W. Liang, M. Hada, M. Ehara, K. Toyota, R. Fukuda, 
 J. Hasegawa, M. Ishida, T. Nakajima, Y. Honda, O. Kitao, H. Nakai, 
 T. Vreven, K. Throssell, J. A. Montgomery, Jr., J. E. Peralta, 
 F. Ogliaro, M. J. Bearpark, J. J. Heyd, E. N. Brothers, K. N. Kudin, 
 V. N. Staroverov, T. A. Keith, R. Kobayashi, J. Normand, 
 K. Raghavachari, A. P. Rendell, J. C. Burant, S. S. Iyengar, 
 J. Tomasi, M. Cossi, J. M. Millam, M. Klene, C. Adamo, R. Cammi, 
 J. W. Ochterski, R. L. Martin, K. Morokuma, O. Farkas, 
 J. B. Foresman, and D. J. Fox, Gaussian, Inc., Wallingford CT, 2016.
 
 ******************************************
 Gaussian 16:  EM64L-G16RevA.03 25-Dec-2016
                18-Jan-2021 
 ******************************************
 %mem=30GB
 %nproc=8
 Will use up to    8 processors via shared memory.
 ----------------------------------------------------------------------
 #P LC-wHPBE/TZVP iop(3/107=0183600000, 3/108=0183600000) scf=(conver=6
 ,fermi,ndamp=35,noincfock,novaracc,vshift=500,xqc)
 ----------------------------------------------------------------------
 1/38=1,172=1/1;
 2/12=2,17=6,18=5,40=1/2;
 3/5=19,7=101,11=2,25=1,30=1,74=-71,107=183600000,108=183600000/1,2,3;
 4//1;
 5/5=100002,6=6,8=3,10=500,13=1,18=-1,22=13,38=1,93=35/2,8;
 6/7=2,8=2,9=2,10=2,28=1/1;
 99/5=1,9=1/99;
 Leave Link    1 at Mon Jan 18 14:02:48 2021, MaxMem=  4026531840 cpu:               1.8 elap:               0.3
 (Enter /opt/ohpc/pub/libs/gaussian/g16-A.03/sandybridge/g16/l101.exe)
 ----------------
 H19 C24 S2 N1 O2
 ----------------
 Symbolic Z-matrix:
 Charge =  0 Multiplicity = 1
 C                    -6.54463  -1.19388   0.12701 
 C                    -5.28347  -0.64791   0.13152 
 S                    -3.66592  -1.10732   1.04298 
 C                    -4.99682   0.48658  -0.53783 
 C                    -1.47569   0.03689   0.22175 
 C                    -1.77229  -1.09444   0.89285 
 C                    -7.5174   -0.5494   -0.6189 
 C                    -5.9512    1.15992  -1.26234 
 H                    -2.84341   1.34552  -1.33258 
 C                    -0.18608   0.431    -0.02846 
 C                    -0.77363  -1.91254   1.36681 
 C                     0.53691  -1.55205   1.12466 
 C                     0.84559  -0.38716   0.42544 
 H                     0.04543   1.33981  -0.56742 
 H                    -0.98698  -2.81642   1.92325 
 H                     1.34269  -2.17537   1.48462 
 C                    -7.22375   0.61523  -1.30625 
 H                    -6.78246  -2.09767   0.67335 
 H                    -3.81578  -2.43941   0.92831 
 H                    -8.51755  -0.95829  -0.66353 
 H                    -5.73006   2.07799  -1.79155 
 H                    -7.99725   1.10543  -1.88147 
 S                    -3.16608   0.85165  -0.12406 
 N                     2.18289  -0.04448   0.18491 
 C                     3.1465   -1.04492  -0.06717 
 C                     4.39201  -0.9891    0.53934 
 C                     2.87869  -2.09032  -0.93036 
 C                     5.34549  -1.94613   0.2859 
 C                     3.82261  -3.067    -1.17035 
 C                     5.06227  -2.9953   -0.56764 
 H                     4.61294  -0.17489   1.21512 
 H                     1.9137   -2.14552  -1.41407 
 H                     6.31716  -1.9016    0.75556 
 H                     3.59139  -3.88159  -1.84538 
 C                     2.5754    1.31029   0.12319 
 C                     3.39168   1.76327  -0.89498 
 C                     2.16404   2.21196   1.09371 
 C                     3.79684   3.0814   -0.94207 
 C                     2.5441    3.53118   1.03888 
 C                     3.36881   3.97202   0.02073 
 H                     3.72384   1.07184  -1.6564 
 H                     1.52954   1.86849   1.89861 
 H                     4.44276   3.41523  -1.74453 
 H                     2.22072   4.2347    1.79197 
 O                     3.72625   5.28132   0.01926 
 H                     4.2942    5.46604  -0.72813 
 O                     6.03297  -3.92081  -0.77614 
 H                     5.72108  -4.59379  -1.38039 
 
 ITRead=  0  0  0  0  0  0  0  0  0  0  0  0  0  0  0  0  0  0  0  0
 ITRead=  0  0  0  0  0  0  0  0  0  0  0  0  0  0  0  0  0  0  0  0
 ITRead=  0  0  0  0  0  0  0  0
 MicOpt= -1 -1 -1 -1 -1 -1 -1 -1 -1 -1 -1 -1 -1 -1 -1 -1 -1 -1 -1 -1
 MicOpt= -1 -1 -1 -1 -1 -1 -1 -1 -1 -1 -1 -1 -1 -1 -1 -1 -1 -1 -1 -1
 MicOpt= -1 -1 -1 -1 -1 -1 -1 -1
 NAtoms=     48 NQM=       48 NQMF=       0 NMMI=      0 NMMIF=      0
                NMic=       0 NMicF=      0.
                    Isotopes and Nuclear Properties:
 (Nuclear quadrupole moments (NQMom) in fm**2, nuclear magnetic moments (NMagM)
  in nuclear magnetons)

  Atom         1           2           3           4           5           6           7           8           9          10
 IAtWgt=          12          12          32          12          12          12          12          12           1          12
 AtmWgt=  12.0000000  12.0000000  31.9720718  12.0000000  12.0000000  12.0000000  12.0000000  12.0000000   1.0078250  12.0000000
 NucSpn=           0           0           0           0           0           0           0           0           1           0
 AtZEff=  -0.0000000  -0.0000000  -0.0000000  -0.0000000  -0.0000000  -0.0000000  -0.0000000  -0.0000000  -0.0000000  -0.0000000
 NQMom=    0.0000000   0.0000000   0.0000000   0.0000000   0.0000000   0.0000000   0.0000000   0.0000000   0.0000000   0.0000000
 NMagM=    0.0000000   0.0000000   0.0000000   0.0000000   0.0000000   0.0000000   0.0000000   0.0000000   2.7928460   0.0000000
 AtZNuc=   6.0000000   6.0000000  16.0000000   6.0000000   6.0000000   6.0000000   6.0000000   6.0000000   1.0000000   6.0000000

  Atom        11          12          13          14          15          16          17          18          19          20
 IAtWgt=          12          12          12           1           1           1          12           1           1           1
 AtmWgt=  12.0000000  12.0000000  12.0000000   1.0078250   1.0078250   1.0078250  12.0000000   1.0078250   1.0078250   1.0078250
 NucSpn=           0           0           0           1           1           1           0           1           1           1
 AtZEff=  -0.0000000  -0.0000000  -0.0000000  -0.0000000  -0.0000000  -0.0000000  -0.0000000  -0.0000000  -0.0000000  -0.0000000
 NQMom=    0.0000000   0.0000000   0.0000000   0.0000000   0.0000000   0.0000000   0.0000000   0.0000000   0.0000000   0.0000000
 NMagM=    0.0000000   0.0000000   0.0000000   2.7928460   2.7928460   2.7928460   0.0000000   2.7928460   2.7928460   2.7928460
 AtZNuc=   6.0000000   6.0000000   6.0000000   1.0000000   1.0000000   1.0000000   6.0000000   1.0000000   1.0000000   1.0000000

  Atom        21          22          23          24          25          26          27          28          29          30
 IAtWgt=           1           1          32          14          12          12          12          12          12          12
 AtmWgt=   1.0078250   1.0078250  31.9720718  14.0030740  12.0000000  12.0000000  12.0000000  12.0000000  12.0000000  12.0000000
 NucSpn=           1           1           0           2           0           0           0           0           0           0
 AtZEff=  -0.0000000  -0.0000000  -0.0000000  -0.0000000  -0.0000000  -0.0000000  -0.0000000  -0.0000000  -0.0000000  -0.0000000
 NQMom=    0.0000000   0.0000000   0.0000000   2.0440000   0.0000000   0.0000000   0.0000000   0.0000000   0.0000000   0.0000000
 NMagM=    2.7928460   2.7928460   0.0000000   0.4037610   0.0000000   0.0000000   0.0000000   0.0000000   0.0000000   0.0000000
 AtZNuc=   1.0000000   1.0000000  16.0000000   7.0000000   6.0000000   6.0000000   6.0000000   6.0000000   6.0000000   6.0000000

  Atom        31          32          33          34          35          36          37          38          39          40
 IAtWgt=           1           1           1           1          12          12          12          12          12          12
 AtmWgt=   1.0078250   1.0078250   1.0078250   1.0078250  12.0000000  12.0000000  12.0000000  12.0000000  12.0000000  12.0000000
 NucSpn=           1           1           1           1           0           0           0           0           0           0
 AtZEff=  -0.0000000  -0.0000000  -0.0000000  -0.0000000  -0.0000000  -0.0000000  -0.0000000  -0.0000000  -0.0000000  -0.0000000
 NQMom=    0.0000000   0.0000000   0.0000000   0.0000000   0.0000000   0.0000000   0.0000000   0.0000000   0.0000000   0.0000000
 NMagM=    2.7928460   2.7928460   2.7928460   2.7928460   0.0000000   0.0000000   0.0000000   0.0000000   0.0000000   0.0000000
 AtZNuc=   1.0000000   1.0000000   1.0000000   1.0000000   6.0000000   6.0000000   6.0000000   6.0000000   6.0000000   6.0000000

  Atom        41          42          43          44          45          46          47          48
 IAtWgt=           1           1           1           1          16           1          16           1
 AtmWgt=   1.0078250   1.0078250   1.0078250   1.0078250  15.9949146   1.0078250  15.9949146   1.0078250
 NucSpn=           1           1           1           1           0           1           0           1
 AtZEff=  -0.0000000  -0.0000000  -0.0000000  -0.0000000  -0.0000000  -0.0000000  -0.0000000  -0.0000000
 NQMom=    0.0000000   0.0000000   0.0000000   0.0000000   0.0000000   0.0000000   0.0000000   0.0000000
 NMagM=    2.7928460   2.7928460   2.7928460   2.7928460   0.0000000   2.7928460   0.0000000   2.7928460
 AtZNuc=   1.0000000   1.0000000   1.0000000   1.0000000   8.0000000   1.0000000   8.0000000   1.0000000
 Leave Link  101 at Mon Jan 18 14:02:48 2021, MaxMem=  4026531840 cpu:               0.7 elap:               0.1
 (Enter /opt/ohpc/pub/libs/gaussian/g16-A.03/sandybridge/g16/l202.exe)
                          Input orientation:                          
 ---------------------------------------------------------------------
 Center     Atomic      Atomic             Coordinates (Angstroms)
 Number     Number       Type             X           Y           Z
 ---------------------------------------------------------------------
      1          6           0       -6.544630   -1.193879    0.127010
      2          6           0       -5.283469   -0.647909    0.131523
      3         16           0       -3.665919   -1.107322    1.042984
      4          6           0       -4.996815    0.486583   -0.537830
      5          6           0       -1.475687    0.036886    0.221747
      6          6           0       -1.772288   -1.094442    0.892846
      7          6           0       -7.517398   -0.549399   -0.618903
      8          6           0       -5.951198    1.159916   -1.262339
      9          1           0       -2.843406    1.345523   -1.332578
     10          6           0       -0.186077    0.430997   -0.028463
     11          6           0       -0.773630   -1.912541    1.366813
     12          6           0        0.536910   -1.552052    1.124661
     13          6           0        0.845585   -0.387156    0.425435
     14          1           0        0.045427    1.339810   -0.567415
     15          1           0       -0.986976   -2.816418    1.923251
     16          1           0        1.342687   -2.175375    1.484620
     17          6           0       -7.223748    0.615229   -1.306247
     18          1           0       -6.782458   -2.097666    0.673346
     19          1           0       -3.815781   -2.439410    0.928305
     20          1           0       -8.517553   -0.958288   -0.663525
     21          1           0       -5.730059    2.077989   -1.791552
     22          1           0       -7.997253    1.105431   -1.881471
     23         16           0       -3.166075    0.851646   -0.124057
     24          7           0        2.182887   -0.044483    0.184905
     25          6           0        3.146505   -1.044921   -0.067172
     26          6           0        4.392012   -0.989098    0.539344
     27          6           0        2.878694   -2.090316   -0.930362
     28          6           0        5.345494   -1.946131    0.285899
     29          6           0        3.822608   -3.066997   -1.170354
     30          6           0        5.062274   -2.995295   -0.567641
     31          1           0        4.612943   -0.174890    1.215121
     32          1           0        1.913696   -2.145516   -1.414069
     33          1           0        6.317156   -1.901598    0.755555
     34          1           0        3.591387   -3.881585   -1.845380
     35          6           0        2.575405    1.310294    0.123192
     36          6           0        3.391681    1.763268   -0.894977
     37          6           0        2.164040    2.211964    1.093710
     38          6           0        3.796835    3.081396   -0.942072
     39          6           0        2.544098    3.531176    1.038879
     40          6           0        3.368807    3.972023    0.020733
     41          1           0        3.723839    1.071840   -1.656403
     42          1           0        1.529535    1.868488    1.898614
     43          1           0        4.442764    3.415230   -1.744528
     44          1           0        2.220724    4.234697    1.791974
     45          8           0        3.726245    5.281320    0.019257
     46          1           0        4.294203    5.466041   -0.728132
     47          8           0        6.032969   -3.920806   -0.776143
     48          1           0        5.721078   -4.593785   -1.380389
 ---------------------------------------------------------------------
                    Distance matrix (angstroms):
                    1          2          3          4          5
     1  C    0.000000
     2  C    1.374275   0.000000
     3  S    3.022164   1.912666   0.000000
     4  C    2.379432   1.348064   2.609749   0.000000
     5  C    5.217082   3.869921   2.603989   3.630086   0.000000
     6  C    4.834422   3.620414   1.899617   3.865753   1.348425
     7  C    1.384925   2.358661   4.231671   2.726384   6.128025
     8  C    2.796927   2.378433   3.959467   1.374459   4.847051
     9  H    4.719960   3.474373   3.512303   2.450831   2.449309
    10  C    6.564723   5.212777   3.952686   4.837948   1.371504
    11  C    5.946262   4.843953   3.019698   5.217159   2.367346
    12  C    7.160433   5.973325   4.227083   6.127154   2.718552
    13  C    7.440103   6.141635   4.610171   5.985394   2.368460
    14  H    7.094410   5.730329   4.728206   5.114008   2.152713
    15  H    6.061900   5.135423   3.297365   5.748525   3.357871
    16  H    8.063263   6.933251   5.140225   7.166981   3.798971
    17  C    2.405888   2.725323   4.598284   2.359289   5.975739
    18  H    1.082532   2.154608   3.290931   3.366573   5.737776
    19  H    3.104841   2.449172   1.345388   3.479343   3.479555
    20  H    2.138428   3.344807   5.145166   3.807761   7.166726
    21  H    3.879372   3.365736   4.737243   2.154539   5.130220
    22  H    3.380967   3.806701   5.675312   3.345291   6.935138
    23  S    3.957504   2.607172   2.334392   1.912090   1.908095
    24  N    8.803069   7.490891   6.006202   7.235503   3.659664
    25  C    9.694225   8.441656   6.902569   8.299439   4.755885
    26  C   10.946328   9.690081   8.074521   9.564937   5.965183
    27  C    9.524740   8.356377   6.905963   8.295669   4.981263
    28  C   11.914956  10.709065   9.081979  10.656453   7.103871
    29  C   10.614676   9.511441   8.050915   9.529441   6.296345
    30  C   11.766387  10.631719   9.074134  10.644700   7.249979
    31  H   11.256721   9.966790   8.332984   9.790701   6.172767
    32  H    8.650076   7.512048   6.184421   7.446536   4.350482
    33  H   12.896568  11.684847  10.018746  11.635385   8.048048
    34  H   10.670189   9.650278   8.289009   9.723569   6.730726
    35  C    9.457586   8.099168   6.756109   7.645519   4.247661
    36  C   10.417267   9.062323   7.861660   8.492605   5.283819
    37  C    9.400809   8.035550   6.708849   7.544316   4.328845
    38  C   11.241299   9.874829   8.785130   9.177404   6.198629
    39  C   10.284096   8.919577   7.751128   8.283775   5.388547
    40  C   11.179180   9.809074   8.736825   9.079863   6.244584
    41  H   10.665622   9.342688   8.163575   8.811557   5.624380
    42  H    8.815260   7.474750   6.048164   7.102054   3.898462
    43  H   12.061068  10.706459   9.694041   9.956844   7.092779
    44  H   10.443801   9.105485   7.984405   8.459859   5.809534
    45  O   12.142104  10.786255   9.823790   9.969535   7.389532
    46  H   12.750141  11.395227  10.474230  10.542971   7.979325
    47  O   12.901466  11.815138  10.261254  11.880152   8.546287
    48  H   12.817145  11.787954  10.302615  11.890890   8.706514
                    6          7          8          9         10
     6  C    0.000000
     7  C    5.965630   0.000000
     8  C    5.214426   2.405982   0.000000
     9  H    3.471777   5.093747   3.114122   0.000000
    10  C    2.385758   7.420112   5.940572   3.098140   0.000000
    11  C    1.375227   7.160980   6.569600   4.710166   2.790015
    12  C    2.365489   8.301639   7.426176   5.085322   2.405180
    13  C    2.751724   8.429499   7.172048   4.438631   1.392740
    14  H    3.370761   7.795389   6.039436   2.988455   1.081667
    15  H    2.154913   7.365347   7.113559   5.600760   3.872510
    16  H    3.349878   9.250390   8.477659   6.152780   3.379307
    17  C    6.121879   1.383846   1.384917   4.440880   7.155102
    18  H    5.114337   2.146433   3.879396   5.603161   7.099219
    19  H    2.446643   4.434858   4.723778   4.514734   4.725399
    20  H    6.923830   1.081430   3.381057   6.160448   8.470355
    21  H    5.738838   3.387160   1.082510   3.013292   6.046222
    22  H    7.161457   2.136071   2.138372   5.188551   8.056238
    23  S    2.600768   4.598023   3.024504   1.344824   3.011058
    24  N    4.152951   9.746619   8.349157   5.431251   2.425613
    25  C    5.011847  10.689657   9.437051   6.572253   3.644988
    26  C    6.175326  11.973676  10.716637   7.829803   4.826797
    27  C    5.093867  10.514284   9.414946   6.686494   4.069799
    28  C    7.194205  12.970101  11.817776   8.972878   6.028917
    29  C    6.280974  11.629193  10.649063   7.995773   5.441455
    30  C    7.242755  12.815349  11.791732   9.051387   6.290896
    31  H    6.459149  12.273918  10.932547   8.024934   4.994416
    32  H    4.473599   9.598198   8.532612   5.901187   3.601023
    33  H    8.130772  13.968266  12.804580   9.940824   6.953253
    34  H    6.635892  11.662453  10.808219   8.306153   6.014049
    35  C    5.027679  10.289501   8.639749   5.611062   2.902059
    36  C    6.166798  11.154938   9.369545   6.264369   3.914862
    37  C    5.144642  10.212170   8.515566   5.631351   3.155022
    38  C    7.198589  11.886925   9.940765   6.874485   4.870614
    39  C    6.328417  10.983307   9.115291   6.279020   4.266636
    40  C    7.270523  11.805162   9.819201   6.879066   5.017817
    41  H    6.434195  11.404834   9.683459   6.580917   4.283493
    42  H    4.548907   9.696962   8.151998   5.462299   2.953529
    43  H    8.119098  12.650328  10.646755   7.585622   5.768596
    44  H    6.719546  11.114447   9.250049   6.614799   4.855390
    45  O    8.464477  12.681642  10.596290   7.776778   6.231707
    46  H    9.081290  13.255616  11.126380   8.263745   6.775995
    47  O    8.467343  13.964367  13.025758  10.336047   7.627172
    48  H    8.576919  13.863411  13.013879  10.422478   7.872142
                   11         12         13         14         15
    11  C    0.000000
    12  C    1.380618   0.000000
    13  C    2.415543   1.393262   0.000000
    14  H    3.871677   3.386376   2.146722   0.000000
    15  H    1.082651   2.135087   3.391614   4.954140   0.000000
    16  H    2.135827   1.080453   2.136986   4.272032   2.455741
    17  C    7.425557   8.416308   8.313702   7.342465   7.816853
    18  H    6.051544   7.353538   7.821403   7.744401   5.972142
    19  H    3.118423   4.446558   5.117906   5.606122   3.022282
    20  H    8.062333   9.248430   9.443536   8.866517   8.176408
    21  H    7.103928   7.807458   7.364174   5.949761   7.762204
    22  H    8.475862   9.430323   9.259882   8.152691   8.888239
    23  S    3.948065   4.587936   4.234382   3.278508   4.732297
    24  N    3.691550   2.421806   1.401305   2.655370   4.555601
    25  C    4.263395   2.913354   2.443266   3.943839   4.917891
    26  C    5.312373   3.939711   3.598952   5.053863   5.847034
    27  C    4.318343   3.161772   2.978669   4.463731   4.859397
    28  C    6.213951   4.897071   4.764352   6.294145   6.598371
    29  C    5.375443   4.284619   4.311700   5.835287   5.724096
    30  C    6.242775   5.042396   5.056585   6.630376   6.544461
    31  H    5.661944   4.303348   3.855081   5.131662   6.232031
    32  H    3.874184   2.948371   2.759795   4.044101   4.472327
    33  H    7.117092   5.802557   5.686880   7.182727   7.453238
    34  H    5.766168   4.855687   4.990698   6.439720   6.024829
    35  C    4.811371   3.653960   2.442328   2.622708   5.741126
    36  C    5.998090   4.818714   3.584748   3.388809   6.934592
    37  C    5.071098   4.100771   2.990040   2.829931   5.991800
    38  C    7.152587   6.030534   4.755082   4.152897   8.116596
    39  C    6.383488   5.465837   4.314462   3.691290   7.317277
    40  C    7.321189   6.305054   5.053006   4.280107   8.287059
    41  H    6.186565   4.977514   3.840191   3.845571   7.079848
    42  H    4.459099   3.644777   2.779564   2.926325   5.318062
    43  H    8.079378   6.939873   5.666266   5.002953   9.042572
    44  H    6.850945   6.063580   5.011982   4.321921   7.747567
    45  O    8.591648   7.621598   6.371405   5.424768   9.561015
    46  H    9.193215   8.173354   6.890834   5.924838  10.174469
    47  O    7.413176   6.279388   6.390573   7.972974   7.601712
    48  H    7.544363   6.511760   6.687837   8.251151   7.685770
                   16         17         18         19         20
    16  H    0.000000
    17  C    9.431872   0.000000
    18  H    8.165916   3.387230   0.000000
    19  H    5.195093   5.092964   2.997160   0.000000
    20  H   10.164653   2.136113   2.469000   5.180184   0.000000
    21  H    8.879648   2.146228   4.961790   5.609722   4.273353
    22  H   10.456038   1.081430   4.273482   6.159988   2.452150
    23  S    5.663888   4.232987   4.734186   3.515769   5.674963
    24  N    2.633609   9.546912   9.210404   6.501718  10.772850
    25  C    2.634339  10.575138  10.012040   7.170007  11.679614
    26  C    3.405757  11.870381  11.230123   8.344014  12.965520
    27  C    2.863336  10.465209   9.793354   6.956472  11.455441
    28  C    4.184728  12.925995  12.135085   9.197009  13.930589
    29  C    3.740840  11.644709  10.807694   7.946271  12.529290
    30  C    4.326589  12.826837  11.943344   9.020351  13.732090
    31  H    3.843064  12.128019  11.569172   8.732337  13.287323
    32  H    2.954546   9.546006   8.943304   6.196773  10.525388
    33  H    5.035060  13.926289  13.101339  10.148670  14.932254
    34  H    4.365399  11.725150  10.823262   8.039859  12.512748
    35  C    3.939920   9.927226   9.974290   7.453573  11.349850
    36  C    5.037238  10.685245  10.994524   8.540162  12.218441
    37  C    4.480644   9.820383   9.939288   7.577658  11.279840
    38  C    6.288507  11.299020  11.889226   9.587989  12.963055
    39  C    5.848658  10.460075  10.899639   8.724000  12.058756
    40  C    6.636161  11.190673  11.845472   9.672046  12.886494
    41  H    5.106889  10.962699  11.218546   8.709504  12.448249
    42  H    4.069291   9.405411   9.290903   6.933389  10.747055
    43  H    7.161895  12.005815  12.737494  10.470168  13.721007
    44  H    6.477225  10.578165  11.063789   9.040410  12.178143
    45  O    7.964354  11.976298  12.857298  10.831352  13.758978
    46  H    8.485220  12.511107  13.485779  11.446038  14.332385
    47  O    5.491477  14.021311  13.025361  10.104333  14.849474
    48  H    5.764312  13.953775  12.914598  10.046048  14.712897
                   21         22         23         24         25
    21  H    0.000000
    22  H    2.468628   0.000000
    23  S    3.295219   5.147154   0.000000
    24  N    8.427692  10.451194   5.432301   0.000000
    25  C    9.566579  11.493435   6.591576   1.411729   0.000000
    26  C   10.830347  12.796143   7.807248   2.428612   1.386458
    27  C    9.603491  11.375572   6.770857   2.431748   1.381908
    28  C   11.965668  13.857793   8.968970   3.691686   2.402580
    29  C   10.867852  12.554838   8.080358   3.696079   2.400608
    30  C   11.987936  13.751122   9.094034   4.191001   2.779316
    31  H   11.004237  13.047802   7.959918   2.642636   2.133464
    32  H    8.741137  10.440978   6.037482   2.653963   2.131961
    33  H   12.940644  14.862652   9.913916   4.568008   3.385824
    34  H   11.063850  12.616188   8.427913   4.563911   3.377367
    35  C    8.557823  10.762980   5.765074   1.411843   2.430932
    36  C    9.171098  11.450491   6.665548   2.428022   2.937907
    37  C    8.405920  10.645562   5.634141   2.432660   3.594466
    38  C    9.617180  11.995308   7.356837   3.694053   4.267888
    39  C    8.864805  11.204140   6.413921   3.693925   4.746252
    40  C    9.468955  11.875313   7.243093   4.191143   5.022636
    41  H    9.508248  11.723301   7.061691   2.647853   2.709178
    42  H    8.146344  10.277694   5.212861   2.650118   3.868702
    43  H   10.260446  12.653377   8.190990   4.560633   4.938295
    44  H    8.983763  11.300157   6.643328   4.571158   5.673435
    45  O   10.147021  12.589330   8.194304   5.547393   6.353337
    46  H   10.634641  13.092937   8.792798   5.971362   6.644299
    47  O   13.243316  14.944294  10.383830   5.547308   4.135823
    48  H   13.259342  14.863538  10.498218   5.972026   4.576833
                   26         27         28         29         30
    26  C    0.000000
    27  C    2.379674   0.000000
    28  C    1.374509   2.754121   0.000000
    29  C    2.750446   1.379303   2.386670   0.000000
    30  C    2.387361   2.391354   1.381843   1.380281   0.000000
    31  H    1.080935   3.358508   2.130112   3.831371   3.366723
    32  H    3.360830   1.080852   3.834955   2.133652   3.369289
    33  H    2.141397   3.834182   1.080133   3.360067   2.126441
    34  H    3.833326   2.133971   3.371235   1.082902   2.140476
    35  C    2.959805   3.572969   4.278337   4.731749   5.019947
    36  C    3.260898   3.887739   4.355628   4.857262   5.053905
    37  C    3.939287   4.808036   5.297543   5.978651   6.186711
    38  C    4.372385   5.252592   5.402063   6.152683   6.218336
    39  C    4.908890   5.965822   6.198039   7.074686   7.177530
    40  C    5.092016   6.156033   6.245170   7.153490   7.194271
    41  H    3.084676   3.352706   3.938331   4.168449   4.417963
    42  H    4.266988   5.049303   5.631493   6.247860   6.497618
    43  H    4.961527   5.781022   5.803598   6.537089   6.547036
    44  H    5.794101   6.917357   7.087671   8.040905   8.118804
    45  O    6.327075   7.480718   7.411418   8.433200   8.404271
    46  H    6.579125   7.690455   7.554718   8.557494   8.497641
    47  O    3.608068   3.650196   2.345186   2.402101   1.357311
    48  H    4.294829   3.814319   3.150817   2.445278   1.910432
                   31         32         33         34         35
    31  H    0.000000
    32  H    4.252287   0.000000
    33  H    2.469223   4.915000   0.000000
    34  H    4.914248   2.452471   4.256175   0.000000
    35  C    2.747661   3.839746   4.971603   5.644741   0.000000
    36  C    3.114555   4.210996   4.971308   5.727784   1.381362
    37  C    3.421833   5.033812   5.855264   6.914254   1.387132
    38  C    3.990352   5.575805   5.836453   7.024335   2.400725
    39  C    4.248071   6.216043   6.620519   8.022767   2.402453
    40  C    4.491250   6.449829   6.613029   8.075338   2.779350
    41  H    3.254304   3.699557   4.624302   4.958798   2.131366
    42  H    3.761643   5.218590   6.200117   7.164640   2.134841
    43  H    4.655904   6.117784   6.167043   7.347008   3.377301
    44  H    5.049745   7.147034   7.450439   8.999061   3.385671
    45  O    5.655665   7.778024   7.671327   9.351678   4.135732
    46  H    5.974774   8.004569   7.783044   9.440355   4.577035
    47  O    4.473644   4.530675   2.550306   2.665732   6.334663
    48  H    5.243212   4.526733   3.487899   2.293257   6.856687
                   36         37         38         39         40
    36  C    0.000000
    37  C    2.379770   0.000000
    38  C    1.379793   2.750698   0.000000
    39  C    2.753851   1.373962   2.386591   0.000000
    40  C    2.391160   2.387583   1.379644   1.382430   0.000000
    41  H    1.080820   3.360949   2.133990   3.834667   3.368960
    42  H    3.358989   1.080945   3.831617   2.129088   3.366633
    43  H    2.134360   3.833540   1.082869   3.371310   2.139988
    44  H    3.833902   2.140615   3.359946   1.080123   2.127061
    45  O    3.650267   3.607753   2.401833   2.345230   1.357211
    46  H    3.814828   4.294848   2.445338   3.151015   1.910300
    47  O    6.268909   7.488380   7.352459   8.426064   8.368364
    48  H    6.787771   8.067955   7.924849   9.053234   8.992741
                   41         42         43         44         45
    41  H    0.000000
    42  H    4.252971   0.000000
    43  H    2.452773   4.914448   0.000000
    44  H    4.914705   2.467399   4.256270   0.000000
    45  O    4.530735   4.472688   2.665826   2.550400   0.000000
    46  H    4.527251   5.242668   2.293678   3.488045   0.956707
    47  O    5.570768   7.807123   7.568616   9.361659   9.520124
    48  H    6.013689   8.371491   8.118559  10.012915  10.171336
                   46         47         48
    46  H    0.000000
    47  O    9.546649   0.000000
    48  H   10.181430   0.956708   0.000000
 Stoichiometry    C24H19NO2S2
 Framework group  C1[X(C24H19NO2S2)]
 Deg. of freedom   138
 Full point group                 C1      NOp   1
 Largest Abelian subgroup         C1      NOp   1
 Largest concise Abelian subgroup C1      NOp   1
                         Standard orientation:                         
 ---------------------------------------------------------------------
 Center     Atomic      Atomic             Coordinates (Angstroms)
 Number     Number       Type             X           Y           Z
 ---------------------------------------------------------------------
      1          6           0        6.544630   -1.193879   -0.127010
      2          6           0        5.283469   -0.647909   -0.131523
      3         16           0        3.665919   -1.107322   -1.042984
      4          6           0        4.996815    0.486583    0.537830
      5          6           0        1.475687    0.036886   -0.221747
      6          6           0        1.772288   -1.094442   -0.892846
      7          6           0        7.517398   -0.549399    0.618903
      8          6           0        5.951198    1.159916    1.262339
      9          1           0        2.843406    1.345523    1.332578
     10          6           0        0.186077    0.430997    0.028463
     11          6           0        0.773630   -1.912541   -1.366813
     12          6           0       -0.536910   -1.552052   -1.124661
     13          6           0       -0.845585   -0.387156   -0.425435
     14          1           0       -0.045427    1.339810    0.567415
     15          1           0        0.986976   -2.816418   -1.923251
     16          1           0       -1.342687   -2.175375   -1.484620
     17          6           0        7.223748    0.615229    1.306247
     18          1           0        6.782458   -2.097666   -0.673346
     19          1           0        3.815781   -2.439410   -0.928305
     20          1           0        8.517553   -0.958288    0.663525
     21          1           0        5.730059    2.077989    1.791552
     22          1           0        7.997253    1.105431    1.881471
     23         16           0        3.166075    0.851646    0.124057
     24          7           0       -2.182887   -0.044483   -0.184905
     25          6           0       -3.146505   -1.044921    0.067172
     26          6           0       -4.392012   -0.989098   -0.539344
     27          6           0       -2.878694   -2.090316    0.930362
     28          6           0       -5.345494   -1.946131   -0.285899
     29          6           0       -3.822608   -3.066997    1.170354
     30          6           0       -5.062274   -2.995295    0.567641
     31          1           0       -4.612943   -0.174890   -1.215121
     32          1           0       -1.913696   -2.145516    1.414069
     33          1           0       -6.317156   -1.901598   -0.755555
     34          1           0       -3.591387   -3.881585    1.845380
     35          6           0       -2.575405    1.310294   -0.123192
     36          6           0       -3.391681    1.763268    0.894977
     37          6           0       -2.164040    2.211964   -1.093710
     38          6           0       -3.796835    3.081396    0.942072
     39          6           0       -2.544098    3.531176   -1.038879
     40          6           0       -3.368807    3.972023   -0.020733
     41          1           0       -3.723839    1.071840    1.656403
     42          1           0       -1.529535    1.868488   -1.898614
     43          1           0       -4.442764    3.415230    1.744528
     44          1           0       -2.220724    4.234697   -1.791974
     45          8           0       -3.726245    5.281320   -0.019257
     46          1           0       -4.294203    5.466041    0.728132
     47          8           0       -6.032969   -3.920806    0.776143
     48          1           0       -5.721078   -4.593785    1.380389
 ---------------------------------------------------------------------
 Rotational constants (GHZ):           0.2280536           0.0702108           0.0568934
 Leave Link  202 at Mon Jan 18 14:02:48 2021, MaxMem=  4026531840 cpu:               0.2 elap:               0.0
 (Enter /opt/ohpc/pub/libs/gaussian/g16-A.03/sandybridge/g16/l301.exe)
 Standard basis: TZVP (5D, 7F)
 Ernie: Thresh=  0.10000D-02 Tol=  0.10000D-05 Strict=F.
 There are   700 symmetry adapted cartesian basis functions of A   symmetry.
 There are   671 symmetry adapted basis functions of A   symmetry.
   671 basis functions,  1191 primitive gaussians,   700 cartesian basis functions
   109 alpha electrons      109 beta electrons
       nuclear repulsion energy      2827.2462800785 Hartrees.
 IExCor=33909 DFT=T Ex+Corr=LC-wHPBE ExCW=0 ScaHFX=  1.000000
 ScaDFX=  1.000000  1.000000  1.000000  1.000000 ScalE2=  1.000000  1.000000
 IRadAn=      5 IRanWt=     -1 IRanGd=            0 ICorTp=0 IEmpDi=  4
 HFx  wShort=  0.000000 wLong=  0.183600 cFull=  0.000000 cShort=  0.000000 cLong=  1.000000
 DFx  wShort=  0.000000 wLong=  0.183600 cFull=  0.000000 cShort=  1.000000 cLong=  0.000000
 NAtoms=   48 NActive=   48 NUniq=   48 SFac= 1.00D+00 NAtFMM=   60 NAOKFM=F Big=F
 Integral buffers will be    131072 words long.
 Raffenetti 2 integral format.
 Two-electron integral symmetry is turned on.
 Leave Link  301 at Mon Jan 18 14:02:48 2021, MaxMem=  4026531840 cpu:               0.4 elap:               0.1
 (Enter /opt/ohpc/pub/libs/gaussian/g16-A.03/sandybridge/g16/l302.exe)
 NPDir=0 NMtPBC=     1 NCelOv=     1 NCel=       1 NClECP=     1 NCelD=      1
         NCelK=      1 NCelE2=     1 NClLst=     1 CellRange=     0.0.
 One-electron integrals computed using PRISM.
 One-electron integral symmetry used in STVInt
 NBasis=   671 RedAO= T EigKep=  6.34D-06  NBF=   671
 NBsUse=   671 1.00D-06 EigRej= -1.00D+00 NBFU=   671
 Precomputing XC quadrature grid using
 IXCGrd= 4 IRadAn=           5 IRanWt=          -1 IRanGd=           0 AccXCQ= 0.00D+00.
 Generated NRdTot=       0 NPtTot=           0 NUsed=           0 NTot=          32
 NSgBfM=   657   657   657   657   657 MxSgAt=    48 MxSgA2=    48.
 Leave Link  302 at Mon Jan 18 14:02:49 2021, MaxMem=  4026531840 cpu:              10.2 elap:               1.3
 (Enter /opt/ohpc/pub/libs/gaussian/g16-A.03/sandybridge/g16/l303.exe)
 DipDrv:  MaxL=1.
 Leave Link  303 at Mon Jan 18 14:02:50 2021, MaxMem=  4026531840 cpu:               0.9 elap:               0.2
 (Enter /opt/ohpc/pub/libs/gaussian/g16-A.03/sandybridge/g16/l401.exe)
 ExpMin= 9.52D-02 ExpMax= 6.07D+04 ExpMxC= 2.07D+03 IAcc=3 IRadAn=         5 AccDes= 0.00D+00
 Harris functional with IExCor=33909 and IRadAn=       5 diagonalized for initial guess.
 HarFok:  IExCor=33909 AccDes= 0.00D+00 IRadAn=         5 IDoV= 1 UseB2=F ITyADJ=14
 ICtDFT=  3500011 ScaDFX=  1.000000  1.000000  1.000000  1.000000
 FoFCou: FMM=F IPFlag=           0 FMFlag=      100000 FMFlg1=           0
         NFxFlg=           0 DoJE=T BraDBF=F KetDBF=T FulRan=T
         wScrn=  0.000000 ICntrl=       500 IOpCl=  0 I1Cent=   200000004 NGrid=           0
         NMat0=    1 NMatS0=      1 NMatT0=    0 NMatD0=    1 NMtDS0=    0 NMtDT0=    0
 Petite list used in FoFCou.
 Harris En= -1904.97719788003    
 JPrj=0 DoOrth=F DoCkMO=F.
 Leave Link  401 at Mon Jan 18 14:02:57 2021, MaxMem=  4026531840 cpu:              56.2 elap:               7.1
 (Enter /opt/ohpc/pub/libs/gaussian/g16-A.03/sandybridge/g16/l502.exe)
 Integral symmetry usage will be decided dynamically.
 Closed shell SCF:
 Using DIIS extrapolation, IDIIS=    10.
 NGot=  4026531840 LenX=  4025539370 LenY=  4025048670
 Requested convergence on RMS density matrix=1.00D-06 within  32 cycles.
 Requested convergence on MAX density matrix=1.00D-04.
 Requested convergence on             energy=1.00D-04.
 Virtual orbitals will be shifted by   0.500 hartree.
 No special actions if energy rises.
 Dynamic level shift is on during FON iterations.

 Cycle   1  Pass 1  IDiag  1:
 FoFJK:  IHMeth= 1 ICntrl=       0 DoSepK=T KAlg= 0 I1Cent=           0 FoldK=F
 IRaf=         1 NMat=       1 IRICut=       1 DoRegI=T DoRafI=F ISym2E= 0 IDoP0=0 IntGTp=1.
 FoFCou: FMM=F IPFlag=           0 FMFlag=      100000 FMFlg1=           0
         NFxFlg=           0 DoJE=T BraDBF=F KetDBF=F FulRan=T
         wScrn=  0.000000 ICntrl=       500 IOpCl=  0 I1Cent=           0 NGrid=           0
         NMat0=    1 NMatS0=      1 NMatT0=    0 NMatD0=    1 NMtDS0=    0 NMtDT0=    0
 Symmetry not used in FoFCou.
 E= -1925.81557171396    
 DIIS: error= 2.08D-02 at cycle   1 NSaved=   1.
 NSaved= 1 IEnMin= 1 EnMin= -1925.81557171396     IErMin= 1 ErrMin= 2.08D-02
 ErrMax= 2.08D-02  0.00D+00 EMaxC= 1.00D+00 BMatC= 6.46D-01 BMatP= 6.46D-01
 IDIUse=1 WtCom= 1.00D+00 WtEn= 0.00D+00
 Coeff-Com:  0.100D+01
 Coeff:      0.100D+01
 Gap=     0.372 Goal=   None    Shift=    0.500
 T= 1277. Gap= 0.654 NK=0 IS=  110 IE=  671 IFin=  109
          NO(<0.9)=   0  NV(>0.1)=   0    109.00e < EF      0.00e >EF  Err=0.0D+00
 GapD=    0.372 DampG=1.000 DampE=0.500 DampFc=0.5000 IDamp=-1.
 Damping current iteration by 5.00D-01
 RMSDP=4.14D-03 MaxDP=2.55D-01              OVMax= 1.05D-01

 Cycle   2  Pass 1  IDiag  1:
 E= -1926.20853441266     Delta-E=       -0.392962698705 Rises=F Damp=T
 DIIS: error= 8.89D-03 at cycle   2 NSaved=   2.
 NSaved= 2 IEnMin= 2 EnMin= -1926.20853441266     IErMin= 2 ErrMin= 8.89D-03
 ErrMax= 8.89D-03  0.00D+00 EMaxC= 1.00D+00 BMatC= 9.09D-02 BMatP= 6.46D-01
 IDIUse=1 WtCom= 1.00D+00 WtEn= 0.00D+00
 Coeff-Com: -0.480D+00 0.148D+01
 Coeff:     -0.480D+00 0.148D+01
 Gap=     0.270 Goal=   None    Shift=    0.500
 T= 1150. Gap= 0.742 NK=0 IS=  110 IE=  671 IFin=  109
          NO(<0.9)=   0  NV(>0.1)=   0    109.00e < EF      0.00e >EF  Err=0.0D+00
 GapD=    0.270 DampG=1.000 DampE=1.000 DampFc=1.0000 IDamp=-1.
 RMSDP=1.72D-03 MaxDP=1.01D-01 DE=-3.93D-01 OVMax= 1.98D-02

 Cycle   3  Pass 1  IDiag  1:
 E= -1926.43065901434     Delta-E=       -0.222124601677 Rises=F Damp=F
 DIIS: error= 2.72D-03 at cycle   3 NSaved=   3.
 NSaved= 3 IEnMin= 3 EnMin= -1926.43065901434     IErMin= 3 ErrMin= 2.72D-03
 ErrMax= 2.72D-03  0.00D+00 EMaxC= 1.00D+00 BMatC= 8.83D-03 BMatP= 9.09D-02
 IDIUse=1 WtCom= 1.00D+00 WtEn= 0.00D+00
 Coeff-Com:  0.635D-01 0.612D-01 0.875D+00
 Coeff:      0.635D-01 0.612D-01 0.875D+00
 Gap=     0.260 Goal=   None    Shift=    0.500
 T=  884. Gap= 0.755 NK=0 IS=  110 IE=  671 IFin=  109
          NO(<0.9)=   0  NV(>0.1)=   0    109.00e < EF      0.00e >EF  Err=0.0D+00
 GapD=    0.260 DampG=1.000 DampE=1.000 DampFc=1.0000 IDamp=-1.
 RMSDP=6.92D-04 MaxDP=4.40D-02 DE=-2.22D-01 OVMax= 1.03D-02

 Cycle   4  Pass 1  IDiag  1:
 E= -1926.43895847923     Delta-E=       -0.008299464896 Rises=F Damp=F
 DIIS: error= 1.35D-03 at cycle   4 NSaved=   4.
 NSaved= 4 IEnMin= 4 EnMin= -1926.43895847923     IErMin= 4 ErrMin= 1.35D-03
 ErrMax= 1.35D-03  0.00D+00 EMaxC= 1.00D+00 BMatC= 1.25D-03 BMatP= 8.83D-03
 IDIUse=1 WtCom= 1.00D+00 WtEn= 0.00D+00
 Coeff-Com:  0.724D-01-0.988D-01 0.704D-01 0.956D+00
 Coeff:      0.724D-01-0.988D-01 0.704D-01 0.956D+00
 Gap=     0.254 Goal=   None    Shift=    0.500
 T=  333. Gap= 0.754 NK=0 IS=  110 IE=  671 IFin=  109
          NO(<0.9)=   0  NV(>0.1)=   0    109.00e < EF      0.00e >EF  Err=0.0D+00
 GapD=    0.254 DampG=1.000 DampE=1.000 DampFc=1.0000 IDamp=-1.
 RMSDP=3.44D-04 MaxDP=2.49D-02 DE=-8.30D-03 OVMax= 7.68D-03

 Cycle   5  Pass 1  IDiag  1:
 E= -1926.44041837973     Delta-E=       -0.001459900494 Rises=F Damp=F
 DIIS: error= 5.28D-04 at cycle   5 NSaved=   5.
 NSaved= 5 IEnMin= 5 EnMin= -1926.44041837973     IErMin= 5 ErrMin= 5.28D-04
 ErrMax= 5.28D-04  0.00D+00 EMaxC= 1.00D+00 BMatC= 1.83D-04 BMatP= 1.25D-03
 IDIUse=1 WtCom= 1.00D+00 WtEn= 0.00D+00
 Coeff-Com:  0.329D-02-0.122D-01-0.108D+00-0.278D-01 0.114D+01
 Coeff:      0.329D-02-0.122D-01-0.108D+00-0.278D-01 0.114D+01
 Gap=     0.254 Goal=   None    Shift=    0.500
 RMSDP=2.08D-04 MaxDP=1.54D-02 DE=-1.46D-03 OVMax= 6.55D-03

 Cycle   6  Pass 1  IDiag  1:
 E= -1926.44086534842     Delta-E=       -0.000446968688 Rises=F Damp=F
 DIIS: error= 4.50D-04 at cycle   6 NSaved=   6.
 NSaved= 6 IEnMin= 6 EnMin= -1926.44086534842     IErMin= 6 ErrMin= 4.50D-04
 ErrMax= 4.50D-04  0.00D+00 EMaxC= 1.00D+00 BMatC= 5.28D-05 BMatP= 1.83D-04
 IDIUse=1 WtCom= 1.00D+00 WtEn= 0.00D+00
 Coeff-Com: -0.160D-01 0.195D-01-0.512D-01-0.178D+00-0.144D+00 0.137D+01
 Coeff:     -0.160D-01 0.195D-01-0.512D-01-0.178D+00-0.144D+00 0.137D+01
 Gap=     0.255 Goal=   None    Shift=    0.500
 RMSDP=1.30D-04 MaxDP=1.04D-02 DE=-4.47D-04 OVMax= 5.68D-03

 Cycle   7  Pass 1  IDiag  1:
 E= -1926.44107379111     Delta-E=       -0.000208442689 Rises=F Damp=F
 DIIS: error= 3.10D-04 at cycle   7 NSaved=   7.
 NSaved= 7 IEnMin= 7 EnMin= -1926.44107379111     IErMin= 7 ErrMin= 3.10D-04
 ErrMax= 3.10D-04  0.00D+00 EMaxC= 1.00D+00 BMatC= 2.31D-05 BMatP= 5.28D-05
 IDIUse=1 WtCom= 1.00D+00 WtEn= 0.00D+00
 Coeff-Com: -0.667D-02 0.727D-02 0.170D-01-0.720D-01-0.457D+00 0.721D-01
 Coeff-Com:  0.144D+01
 Coeff:     -0.667D-02 0.727D-02 0.170D-01-0.720D-01-0.457D+00 0.721D-01
 Coeff:      0.144D+01
 Gap=     0.254 Goal=   None    Shift=    0.500
 RMSDP=8.39D-05 MaxDP=7.29D-03 DE=-2.08D-04 OVMax= 4.85D-03

 Cycle   8  Pass 1  IDiag  1:
 E= -1926.44118215258     Delta-E=       -0.000108361472 Rises=F Damp=F
 DIIS: error= 2.29D-04 at cycle   8 NSaved=   8.
 NSaved= 8 IEnMin= 8 EnMin= -1926.44118215258     IErMin= 8 ErrMin= 2.29D-04
 ErrMax= 2.29D-04  0.00D+00 EMaxC= 1.00D+00 BMatC= 1.02D-05 BMatP= 2.31D-05
 IDIUse=1 WtCom= 1.00D+00 WtEn= 0.00D+00
 Coeff-Com:  0.394D-02-0.695D-02 0.320D-01 0.349D-01-0.136D+00-0.656D+00
 Coeff-Com:  0.156D+00 0.157D+01
 Coeff:      0.394D-02-0.695D-02 0.320D-01 0.349D-01-0.136D+00-0.656D+00
 Coeff:      0.156D+00 0.157D+01
 Gap=     0.254 Goal=   None    Shift=    0.500
 RMSDP=5.46D-05 MaxDP=5.22D-03 DE=-1.08D-04 OVMax= 3.98D-03

 Cycle   9  Pass 1  IDiag  1:
 E= -1926.44123743995     Delta-E=       -0.000055287372 Rises=F Damp=F
 DIIS: error= 1.74D-04 at cycle   9 NSaved=   9.
 NSaved= 9 IEnMin= 9 EnMin= -1926.44123743995     IErMin= 9 ErrMin= 1.74D-04
 ErrMax= 1.74D-04  0.00D+00 EMaxC= 1.00D+00 BMatC= 4.61D-06 BMatP= 1.02D-05
 IDIUse=1 WtCom= 1.00D+00 WtEn= 0.00D+00
 Coeff-Com:  0.316D-02-0.441D-02 0.242D-02 0.453D-01 0.174D+00-0.435D+00
 Coeff-Com: -0.519D+00-0.110D+00 0.184D+01
 Coeff:      0.316D-02-0.441D-02 0.242D-02 0.453D-01 0.174D+00-0.435D+00
 Coeff:     -0.519D+00-0.110D+00 0.184D+01
 Gap=     0.254 Goal=   None    Shift=    0.500
 RMSDP=3.79D-05 MaxDP=3.59D-03 DE=-5.53D-05 OVMax= 3.18D-03

 Cycle  10  Pass 1  IDiag  1:
 E= -1926.44126491890     Delta-E=       -0.000027478947 Rises=F Damp=F
 DIIS: error= 1.24D-04 at cycle  10 NSaved=  10.
 NSaved=10 IEnMin=10 EnMin= -1926.44126491890     IErMin=10 ErrMin= 1.24D-04
 ErrMax= 1.24D-04  0.00D+00 EMaxC= 1.00D+00 BMatC= 2.12D-06 BMatP= 4.61D-06
 IDIUse=1 WtCom= 1.00D+00 WtEn= 0.00D+00
 Coeff-Com:  0.185D-03 0.109D-03-0.868D-02 0.168D-01 0.120D+00-0.443D-01
 Coeff-Com: -0.277D+00-0.602D+00 0.123D+00 0.167D+01
 Coeff:      0.185D-03 0.109D-03-0.868D-02 0.168D-01 0.120D+00-0.443D-01
 Coeff:     -0.277D+00-0.602D+00 0.123D+00 0.167D+01
 Gap=     0.254 Goal=   None    Shift=    0.500
 RMSDP=2.50D-05 MaxDP=2.31D-03 DE=-2.75D-05 OVMax= 2.35D-03

 Cycle  11  Pass 1  IDiag  1:
 E= -1926.44127784395     Delta-E=       -0.000012925049 Rises=F Damp=F
 DIIS: error= 8.69D-05 at cycle  11 NSaved=  11.
 NSaved=11 IEnMin=11 EnMin= -1926.44127784395     IErMin=11 ErrMin= 8.69D-05
 ErrMax= 8.69D-05  0.00D+00 EMaxC= 1.00D+00 BMatC= 9.44D-07 BMatP= 2.12D-06
 IDIUse=1 WtCom= 1.00D+00 WtEn= 0.00D+00
 Coeff-Com: -0.931D-03 0.132D-02-0.183D-02-0.919D-02-0.425D-01 0.157D+00
 Coeff-Com:  0.151D+00-0.265D+00-0.922D+00-0.159D+00 0.209D+01
 Coeff:     -0.931D-03 0.132D-02-0.183D-02-0.919D-02-0.425D-01 0.157D+00
 Coeff:      0.151D+00-0.265D+00-0.922D+00-0.159D+00 0.209D+01
 Gap=     0.254 Goal=   None    Shift=    0.500
 RMSDP=1.77D-05 MaxDP=1.63D-03 DE=-1.29D-05 OVMax= 1.77D-03

 Cycle  12  Pass 1  IDiag  1:
 E= -1926.44128402130     Delta-E=       -0.000006177355 Rises=F Damp=F
 DIIS: error= 6.12D-05 at cycle  12 NSaved=  12.
 NSaved=12 IEnMin=12 EnMin= -1926.44128402130     IErMin=12 ErrMin= 6.12D-05
 ErrMax= 6.12D-05  0.00D+00 EMaxC= 1.00D+00 BMatC= 4.58D-07 BMatP= 9.44D-07
 IDIUse=1 WtCom= 1.00D+00 WtEn= 0.00D+00
 Coeff-Com: -0.153D-03 0.878D-04 0.401D-02-0.807D-02-0.348D-01 0.324D-01
 Coeff-Com:  0.124D+00 0.126D+00-0.317D+00-0.101D+01 0.170D+00 0.191D+01
 Coeff:     -0.153D-03 0.878D-04 0.401D-02-0.807D-02-0.348D-01 0.324D-01
 Coeff:      0.124D+00 0.126D+00-0.317D+00-0.101D+01 0.170D+00 0.191D+01
 Gap=     0.254 Goal=   None    Shift=    0.500
 RMSDP=1.09D-05 MaxDP=1.00D-03 DE=-6.18D-06 OVMax= 1.26D-03

 Cycle  13  Pass 1  IDiag  1:
 E= -1926.44128687936     Delta-E=       -0.000002858063 Rises=F Damp=F
 DIIS: error= 4.20D-05 at cycle  13 NSaved=  13.
 NSaved=13 IEnMin=13 EnMin= -1926.44128687936     IErMin=13 ErrMin= 4.20D-05
 ErrMax= 4.20D-05  0.00D+00 EMaxC= 1.00D+00 BMatC= 2.15D-07 BMatP= 4.58D-07
 IDIUse=1 WtCom= 1.00D+00 WtEn= 0.00D+00
 Coeff-Com:  0.967D-04-0.166D-03 0.290D-02-0.953D-03-0.325D-02-0.405D-01
 Coeff-Com:  0.323D-01 0.159D+00 0.134D+00-0.667D+00-0.455D+00-0.653D-01
 Coeff-Com:  0.190D+01
 Coeff:      0.967D-04-0.166D-03 0.290D-02-0.953D-03-0.325D-02-0.405D-01
 Coeff:      0.323D-01 0.159D+00 0.134D+00-0.667D+00-0.455D+00-0.653D-01
 Coeff:      0.190D+01
 Gap=     0.254 Goal=   None    Shift=    0.500
 RMSDP=6.99D-06 MaxDP=6.35D-04 DE=-2.86D-06 OVMax= 8.79D-04

 Cycle  14  Pass 1  IDiag  1:
 E= -1926.44128817737     Delta-E=       -0.000001298007 Rises=F Damp=F
 DIIS: error= 2.76D-05 at cycle  14 NSaved=  14.
 NSaved=14 IEnMin=14 EnMin= -1926.44128817737     IErMin=14 ErrMin= 2.76D-05
 ErrMax= 2.76D-05  0.00D+00 EMaxC= 1.00D+00 BMatC= 9.51D-08 BMatP= 2.15D-07
 IDIUse=1 WtCom= 1.00D+00 WtEn= 0.00D+00
 Coeff-Com:  0.508D-04-0.563D-04-0.556D-04 0.307D-02 0.618D-02-0.268D-01
 Coeff-Com: -0.121D-01 0.254D-01 0.148D+00-0.295D-02-0.177D+00-0.109D+01
 Coeff-Com:  0.297D+00 0.183D+01
 Coeff:      0.508D-04-0.563D-04-0.556D-04 0.307D-02 0.618D-02-0.268D-01
 Coeff:     -0.121D-01 0.254D-01 0.148D+00-0.295D-02-0.177D+00-0.109D+01
 Coeff:      0.297D+00 0.183D+01
 Gap=     0.254 Goal=   None    Shift=    0.500
 RMSDP=4.24D-06 MaxDP=3.54D-04 DE=-1.30D-06 OVMax= 5.95D-04

 Cycle  15  Pass 1  IDiag  1:
 E= -1926.44128874542     Delta-E=       -0.000000568052 Rises=F Damp=F
 DIIS: error= 1.81D-05 at cycle  15 NSaved=  15.
 NSaved=15 IEnMin=15 EnMin= -1926.44128874542     IErMin=15 ErrMin= 1.81D-05
 ErrMax= 1.81D-05  0.00D+00 EMaxC= 1.00D+00 BMatC= 4.04D-08 BMatP= 9.51D-08
 IDIUse=1 WtCom= 1.00D+00 WtEn= 0.00D+00
 Coeff-Com:  0.339D-04-0.729D-04-0.824D-03 0.177D-02 0.397D-02 0.492D-03
 Coeff-Com: -0.162D-01-0.346D-01 0.344D-01 0.207D+00 0.390D-01-0.670D+00
 Coeff-Com: -0.415D+00 0.102D+00 0.175D+01
 Coeff:      0.339D-04-0.729D-04-0.824D-03 0.177D-02 0.397D-02 0.492D-03
 Coeff:     -0.162D-01-0.346D-01 0.344D-01 0.207D+00 0.390D-01-0.670D+00
 Coeff:     -0.415D+00 0.102D+00 0.175D+01
 Gap=     0.254 Goal=   None    Shift=    0.500
 RMSDP=2.58D-06 MaxDP=1.96D-04 DE=-5.68D-07 OVMax= 3.93D-04

 Cycle  16  Pass 1  IDiag  1:
 E= -1926.44128898813     Delta-E=       -0.000000242708 Rises=F Damp=F
 DIIS: error= 1.18D-05 at cycle  16 NSaved=  16.
 NSaved=16 IEnMin=16 EnMin= -1926.44128898813     IErMin=16 ErrMin= 1.18D-05
 ErrMax= 1.18D-05  0.00D+00 EMaxC= 1.00D+00 BMatC= 1.72D-08 BMatP= 4.04D-08
 IDIUse=1 WtCom= 1.00D+00 WtEn= 0.00D+00
 Coeff-Com:  0.144D-04-0.576D-04-0.226D-03-0.428D-03 0.286D-03 0.882D-02
 Coeff-Com: -0.404D-02-0.187D-01-0.366D-01 0.909D-01 0.807D-01-0.182D-01
 Coeff-Com: -0.294D+00-0.645D+00 0.446D-01 0.179D+01
 Coeff:      0.144D-04-0.576D-04-0.226D-03-0.428D-03 0.286D-03 0.882D-02
 Coeff:     -0.404D-02-0.187D-01-0.366D-01 0.909D-01 0.807D-01-0.182D-01
 Coeff:     -0.294D+00-0.645D+00 0.446D-01 0.179D+01
 Gap=     0.254 Goal=   None    Shift=    0.500
 RMSDP=1.67D-06 MaxDP=1.11D-04 DE=-2.43D-07 OVMax= 2.55D-04

 Cycle  17  Pass 1  IDiag  1:
 E= -1926.44128908939     Delta-E=       -0.000000101257 Rises=F Damp=F
 DIIS: error= 7.64D-06 at cycle  17 NSaved=  17.
 NSaved=17 IEnMin=17 EnMin= -1926.44128908939     IErMin=17 ErrMin= 7.64D-06
 ErrMax= 7.64D-06  0.00D+00 EMaxC= 1.00D+00 BMatC= 7.74D-09 BMatP= 1.72D-08
 IDIUse=1 WtCom= 1.00D+00 WtEn= 0.00D+00
 Coeff-Com: -0.163D-04 0.172D-04 0.207D-03-0.785D-03-0.148D-02 0.398D-02
 Coeff-Com:  0.444D-02 0.612D-02-0.332D-01-0.267D-01 0.386D-01 0.195D+00
 Coeff-Com: -0.388D-01-0.370D+00-0.784D+00 0.290D+00 0.172D+01
 Coeff:     -0.163D-04 0.172D-04 0.207D-03-0.785D-03-0.148D-02 0.398D-02
 Coeff:      0.444D-02 0.612D-02-0.332D-01-0.267D-01 0.386D-01 0.195D+00
 Coeff:     -0.388D-01-0.370D+00-0.784D+00 0.290D+00 0.172D+01
 Gap=     0.254 Goal=   None    Shift=    0.500
 RMSDP=1.07D-06 MaxDP=6.70D-05 DE=-1.01D-07 OVMax= 1.66D-04

 Cycle  18  Pass 1  IDiag  1:
 E= -1926.44128913242     Delta-E=       -0.000000043028 Rises=F Damp=F
 DIIS: error= 4.90D-06 at cycle  18 NSaved=  18.
 NSaved=18 IEnMin=18 EnMin= -1926.44128913242     IErMin=18 ErrMin= 4.90D-06
 ErrMax= 4.90D-06  0.00D+00 EMaxC= 1.00D+00 BMatC= 3.33D-09 BMatP= 7.74D-09
 IDIUse=1 WtCom= 1.00D+00 WtEn= 0.00D+00
 Coeff-Com: -0.158D-04 0.300D-04 0.166D-03-0.272D-03-0.967D-03 0.157D-04
 Coeff-Com:  0.354D-02 0.836D-02-0.100D-01-0.356D-01 0.750D-02 0.102D+00
 Coeff-Com:  0.459D-01-0.597D-01-0.540D+00-0.236D+00 0.198D+00 0.152D+01
 Coeff:     -0.158D-04 0.300D-04 0.166D-03-0.272D-03-0.967D-03 0.157D-04
 Coeff:      0.354D-02 0.836D-02-0.100D-01-0.356D-01 0.750D-02 0.102D+00
 Coeff:      0.459D-01-0.597D-01-0.540D+00-0.236D+00 0.198D+00 0.152D+01
 Gap=     0.254 Goal=   None    Shift=    0.500
 RMSDP=6.82D-07 MaxDP=4.24D-05 DE=-4.30D-08 OVMax= 1.07D-04

 SCF Done:  E(RLC-wHPBE) =  -1926.44128913     A.U. after   18 cycles
            NFock= 18  Conv=0.68D-06     -V/T= 2.0033
 KE= 1.920173038759D+03 PE=-1.017891498527D+04 EE= 3.505054377305D+03
 Leave Link  502 at Mon Jan 18 14:17:05 2021, MaxMem=  4026531840 cpu:            6767.4 elap:             848.1
 (Enter /opt/ohpc/pub/libs/gaussian/g16-A.03/sandybridge/g16/l508.exe)
 QCSCF skips out because SCF is already converged.
 Leave Link  508 at Mon Jan 18 14:17:05 2021, MaxMem=  4026531840 cpu:               0.1 elap:               0.0
 (Enter /opt/ohpc/pub/libs/gaussian/g16-A.03/sandybridge/g16/l601.exe)
 Copying SCF densities to generalized density rwf, IOpCl= 0 IROHF=0.

 **********************************************************************

            Population analysis using the SCF density.

 **********************************************************************

 Orbital symmetries:
       Occupied  (A) (A) (A) (A) (A) (A) (A) (A) (A) (A) (A) (A)
                 (A) (A) (A) (A) (A) (A) (A) (A) (A) (A) (A) (A)
                 (A) (A) (A) (A) (A) (A) (A) (A) (A) (A) (A) (A)
                 (A) (A) (A) (A) (A) (A) (A) (A) (A) (A) (A) (A)
                 (A) (A) (A) (A) (A) (A) (A) (A) (A) (A) (A) (A)
                 (A) (A) (A) (A) (A) (A) (A) (A) (A) (A) (A) (A)
                 (A) (A) (A) (A) (A) (A) (A) (A) (A) (A) (A) (A)
                 (A) (A) (A) (A) (A) (A) (A) (A) (A) (A) (A) (A)
                 (A) (A) (A) (A) (A) (A) (A) (A) (A) (A) (A) (A)
                 (A)
       Virtual   (A) (A) (A) (A) (A) (A) (A) (A) (A) (A) (A) (A)
                 (A) (A) (A) (A) (A) (A) (A) (A) (A) (A) (A) (A)
                 (A) (A) (A) (A) (A) (A) (A) (A) (A) (A) (A) (A)
                 (A) (A) (A) (A) (A) (A) (A) (A) (A) (A) (A) (A)
                 (A) (A) (A) (A) (A) (A) (A) (A) (A) (A) (A) (A)
                 (A) (A) (A) (A) (A) (A) (A) (A) (A) (A) (A) (A)
                 (A) (A) (A) (A) (A) (A) (A) (A) (A) (A) (A) (A)
                 (A) (A) (A) (A) (A) (A) (A) (A) (A) (A) (A) (A)
                 (A) (A) (A) (A) (A) (A) (A) (A) (A) (A) (A) (A)
                 (A) (A) (A) (A) (A) (A) (A) (A) (A) (A) (A) (A)
                 (A) (A) (A) (A) (A) (A) (A) (A) (A) (A) (A) (A)
                 (A) (A) (A) (A) (A) (A) (A) (A) (A) (A) (A) (A)
                 (A) (A) (A) (A) (A) (A) (A) (A) (A) (A) (A) (A)
                 (A) (A) (A) (A) (A) (A) (A) (A) (A) (A) (A) (A)
                 (A) (A) (A) (A) (A) (A) (A) (A) (A) (A) (A) (A)
                 (A) (A) (A) (A) (A) (A) (A) (A) (A) (A) (A) (A)
                 (A) (A) (A) (A) (A) (A) (A) (A) (A) (A) (A) (A)
                 (A) (A) (A) (A) (A) (A) (A) (A) (A) (A) (A) (A)
                 (A) (A) (A) (A) (A) (A) (A) (A) (A) (A) (A) (A)
                 (A) (A) (A) (A) (A) (A) (A) (A) (A) (A) (A) (A)
                 (A) (A) (A) (A) (A) (A) (A) (A) (A) (A) (A) (A)
                 (A) (A) (A) (A) (A) (A) (A) (A) (A) (A) (A) (A)
                 (A) (A) (A) (A) (A) (A) (A) (A) (A) (A) (A) (A)
                 (A) (A) (A) (A) (A) (A) (A) (A) (A) (A) (A) (A)
                 (A) (A) (A) (A) (A) (A) (A) (A) (A) (A) (A) (A)
                 (A) (A) (A) (A) (A) (A) (A) (A) (A) (A) (A) (A)
                 (A) (A) (A) (A) (A) (A) (A) (A) (A) (A) (A) (A)
                 (A) (A) (A) (A) (A) (A) (A) (A) (A) (A) (A) (A)
                 (A) (A) (A) (A) (A) (A) (A) (A) (A) (A) (A) (A)
                 (A) (A) (A) (A) (A) (A) (A) (A) (A) (A) (A) (A)
                 (A) (A) (A) (A) (A) (A) (A) (A) (A) (A) (A) (A)
                 (A) (A) (A) (A) (A) (A) (A) (A) (A) (A) (A) (A)
                 (A) (A) (A) (A) (A) (A) (A) (A) (A) (A) (A) (A)
                 (A) (A) (A) (A) (A) (A) (A) (A) (A) (A) (A) (A)
                 (A) (A) (A) (A) (A) (A) (A) (A) (A) (A) (A) (A)
                 (A) (A) (A) (A) (A) (A) (A) (A) (A) (A) (A) (A)
                 (A) (A) (A) (A) (A) (A) (A) (A) (A) (A) (A) (A)
                 (A) (A) (A) (A) (A) (A) (A) (A) (A) (A) (A) (A)
                 (A) (A) (A) (A) (A) (A) (A) (A) (A) (A) (A) (A)
                 (A) (A) (A) (A) (A) (A) (A) (A) (A) (A) (A) (A)
                 (A) (A) (A) (A) (A) (A) (A) (A) (A) (A) (A) (A)
                 (A) (A) (A) (A) (A) (A) (A) (A) (A) (A) (A) (A)
                 (A) (A) (A) (A) (A) (A) (A) (A) (A) (A) (A) (A)
                 (A) (A) (A) (A) (A) (A) (A) (A) (A) (A) (A) (A)
                 (A) (A) (A) (A) (A) (A) (A) (A) (A) (A) (A) (A)
                 (A) (A) (A) (A) (A) (A) (A) (A) (A) (A) (A) (A)
                 (A) (A) (A) (A) (A) (A) (A) (A) (A) (A)
 The electronic state is 1-A.
 Alpha  occ. eigenvalues --  -88.23504 -88.23421 -18.88590 -18.88483 -14.11638
 Alpha  occ. eigenvalues --  -10.04785 -10.04682 -10.02815 -10.02261 -10.02195
 Alpha  occ. eigenvalues --   -9.99331  -9.99301  -9.99299  -9.99288  -9.99285
 Alpha  occ. eigenvalues --   -9.99275  -9.99250  -9.99175  -9.99147  -9.99053
 Alpha  occ. eigenvalues --   -9.98977  -9.98894  -9.98825  -9.98768  -9.98757
 Alpha  occ. eigenvalues --   -9.98727  -9.98648  -9.98556  -9.98310  -7.81974
 Alpha  occ. eigenvalues --   -7.81902  -5.84063  -5.83996  -5.83891  -5.83815
 Alpha  occ. eigenvalues --   -5.83137  -5.83063  -1.08879  -1.08775  -0.99827
 Alpha  occ. eigenvalues --   -0.91611  -0.89847  -0.89806  -0.88253  -0.85299
 Alpha  occ. eigenvalues --   -0.80625  -0.80024  -0.79785  -0.79154  -0.79027
 Alpha  occ. eigenvalues --   -0.78487  -0.76642  -0.75535  -0.73412  -0.68821
 Alpha  occ. eigenvalues --   -0.68116  -0.66669  -0.66287  -0.65214  -0.64680
 Alpha  occ. eigenvalues --   -0.63149  -0.61570  -0.60471  -0.60352  -0.58796
 Alpha  occ. eigenvalues --   -0.58386  -0.56860  -0.55125  -0.53582  -0.52706
 Alpha  occ. eigenvalues --   -0.51471  -0.51000  -0.49827  -0.49724  -0.49453
 Alpha  occ. eigenvalues --   -0.49136  -0.48552  -0.48038  -0.47895  -0.47624
 Alpha  occ. eigenvalues --   -0.47362  -0.47158  -0.46819  -0.45586  -0.45438
 Alpha  occ. eigenvalues --   -0.44812  -0.44258  -0.43664  -0.42946  -0.42105
 Alpha  occ. eigenvalues --   -0.41543  -0.41174  -0.40739  -0.40190  -0.39874
 Alpha  occ. eigenvalues --   -0.39499  -0.39268  -0.38115  -0.35392  -0.33492
 Alpha  occ. eigenvalues --   -0.32975  -0.32373  -0.32207  -0.31507  -0.29809
 Alpha  occ. eigenvalues --   -0.29584  -0.28935  -0.24859  -0.23364
 Alpha virt. eigenvalues --    0.02069   0.03004   0.03274   0.04077   0.04258
 Alpha virt. eigenvalues --    0.04367   0.04485   0.06288   0.07769   0.08347
 Alpha virt. eigenvalues --    0.08465   0.08949   0.09881   0.10950   0.11540
 Alpha virt. eigenvalues --    0.11863   0.12595   0.13664   0.13905   0.14161
 Alpha virt. eigenvalues --    0.14446   0.15283   0.15865   0.16435   0.16999
 Alpha virt. eigenvalues --    0.17325   0.17576   0.17907   0.18049   0.18378
 Alpha virt. eigenvalues --    0.19101   0.19434   0.19815   0.20612   0.21237
 Alpha virt. eigenvalues --    0.21498   0.21752   0.22220   0.22575   0.23074
 Alpha virt. eigenvalues --    0.24284   0.24493   0.25250   0.25663   0.26069
 Alpha virt. eigenvalues --    0.26656   0.26756   0.26887   0.27048   0.27199
 Alpha virt. eigenvalues --    0.27516   0.28167   0.28307   0.28462   0.28833
 Alpha virt. eigenvalues --    0.29088   0.29423   0.29742   0.29811   0.30479
 Alpha virt. eigenvalues --    0.30584   0.30904   0.31231   0.31628   0.31775
 Alpha virt. eigenvalues --    0.32182   0.32696   0.33435   0.33606   0.33754
 Alpha virt. eigenvalues --    0.34239   0.35017   0.35090   0.35419   0.35476
 Alpha virt. eigenvalues --    0.36040   0.36316   0.36493   0.37408   0.38466
 Alpha virt. eigenvalues --    0.38738   0.38945   0.39266   0.39534   0.39712
 Alpha virt. eigenvalues --    0.39831   0.40387   0.40747   0.41431   0.41523
 Alpha virt. eigenvalues --    0.41708   0.42072   0.42614   0.43411   0.43573
 Alpha virt. eigenvalues --    0.43738   0.43950   0.44137   0.44195   0.44335
 Alpha virt. eigenvalues --    0.44898   0.45048   0.45229   0.45478   0.46036
 Alpha virt. eigenvalues --    0.46383   0.46494   0.46657   0.47026   0.47331
 Alpha virt. eigenvalues --    0.47498   0.47841   0.47975   0.48463   0.48797
 Alpha virt. eigenvalues --    0.49465   0.49593   0.50155   0.50455   0.50836
 Alpha virt. eigenvalues --    0.51090   0.51619   0.52327   0.52716   0.53029
 Alpha virt. eigenvalues --    0.53273   0.53553   0.53868   0.54243   0.54381
 Alpha virt. eigenvalues --    0.54871   0.54941   0.55450   0.55921   0.56219
 Alpha virt. eigenvalues --    0.57046   0.57098   0.57838   0.58374   0.58922
 Alpha virt. eigenvalues --    0.59457   0.59964   0.60405   0.60676   0.61157
 Alpha virt. eigenvalues --    0.61460   0.62186   0.62367   0.62604   0.62893
 Alpha virt. eigenvalues --    0.63913   0.64028   0.64432   0.64914   0.65869
 Alpha virt. eigenvalues --    0.66347   0.67082   0.68014   0.69853   0.70185
 Alpha virt. eigenvalues --    0.70550   0.72141   0.72352   0.72644   0.73227
 Alpha virt. eigenvalues --    0.73480   0.73927   0.74308   0.74748   0.75260
 Alpha virt. eigenvalues --    0.75894   0.76214   0.76945   0.77213   0.77876
 Alpha virt. eigenvalues --    0.78363   0.79018   0.80139   0.80769   0.81363
 Alpha virt. eigenvalues --    0.81997   0.82384   0.82500   0.82953   0.83678
 Alpha virt. eigenvalues --    0.84746   0.85231   0.86228   0.86916   0.87343
 Alpha virt. eigenvalues --    0.88559   0.89009   0.89987   0.90615   0.91199
 Alpha virt. eigenvalues --    0.92175   0.92262   0.93107   0.95239   0.96282
 Alpha virt. eigenvalues --    0.96709   0.97566   1.00166   1.01342   1.03214
 Alpha virt. eigenvalues --    1.05362   1.07325   1.18001   1.19058   1.19924
 Alpha virt. eigenvalues --    1.23296   1.24259   1.25393   1.25806   1.26761
 Alpha virt. eigenvalues --    1.27181   1.27573   1.27667   1.27955   1.28233
 Alpha virt. eigenvalues --    1.28784   1.29103   1.29518   1.29977   1.30472
 Alpha virt. eigenvalues --    1.30745   1.31174   1.32543   1.32742   1.33232
 Alpha virt. eigenvalues --    1.33461   1.34146   1.35219   1.35725   1.35971
 Alpha virt. eigenvalues --    1.36446   1.36927   1.37378   1.37675   1.39032
 Alpha virt. eigenvalues --    1.39089   1.39368   1.41596   1.42361   1.42790
 Alpha virt. eigenvalues --    1.43512   1.43838   1.44103   1.44920   1.45229
 Alpha virt. eigenvalues --    1.45449   1.45710   1.46149   1.46450   1.46615
 Alpha virt. eigenvalues --    1.46703   1.47307   1.47755   1.47808   1.48205
 Alpha virt. eigenvalues --    1.48292   1.48528   1.49006   1.49435   1.50219
 Alpha virt. eigenvalues --    1.50500   1.51289   1.51490   1.51675   1.52417
 Alpha virt. eigenvalues --    1.52755   1.53225   1.53261   1.53392   1.54272
 Alpha virt. eigenvalues --    1.54382   1.54841   1.55973   1.56209   1.56430
 Alpha virt. eigenvalues --    1.56483   1.56995   1.57170   1.57369   1.57835
 Alpha virt. eigenvalues --    1.58159   1.58285   1.58565   1.59064   1.59370
 Alpha virt. eigenvalues --    1.59591   1.60026   1.60327   1.60869   1.61135
 Alpha virt. eigenvalues --    1.61262   1.61843   1.61891   1.62863   1.62938
 Alpha virt. eigenvalues --    1.63784   1.64498   1.65084   1.65874   1.66206
 Alpha virt. eigenvalues --    1.67760   1.68864   1.70175   1.70532   1.70802
 Alpha virt. eigenvalues --    1.71498   1.72739   1.73459   1.75887   1.76372
 Alpha virt. eigenvalues --    1.78174   1.78995   1.79343   1.79656   1.79837
 Alpha virt. eigenvalues --    1.80006   1.80395   1.81086   1.81126   1.81642
 Alpha virt. eigenvalues --    1.82111   1.82838   1.82930   1.84044   1.84553
 Alpha virt. eigenvalues --    1.85211   1.85277   1.85727   1.86358   1.87136
 Alpha virt. eigenvalues --    1.87981   1.89330   1.90140   1.90729   1.91035
 Alpha virt. eigenvalues --    1.91449   1.91969   1.92292   1.92956   1.93491
 Alpha virt. eigenvalues --    1.93689   1.93841   1.94439   1.94634   1.95327
 Alpha virt. eigenvalues --    1.95948   1.96054   1.96261   1.96660   1.97382
 Alpha virt. eigenvalues --    1.97799   1.98477   2.00524   2.01192   2.01330
 Alpha virt. eigenvalues --    2.02411   2.03085   2.03660   2.04027   2.04877
 Alpha virt. eigenvalues --    2.05213   2.05472   2.06012   2.06780   2.08909
 Alpha virt. eigenvalues --    2.10761   2.11493   2.12356   2.13073   2.13371
 Alpha virt. eigenvalues --    2.15137   2.16690   2.17735   2.18094   2.20773
 Alpha virt. eigenvalues --    2.21547   2.22290   2.22828   2.24240   2.24976
 Alpha virt. eigenvalues --    2.25698   2.26400   2.27928   2.28466   2.28645
 Alpha virt. eigenvalues --    2.29243   2.30316   2.31308   2.33235   2.33325
 Alpha virt. eigenvalues --    2.34517   2.34875   2.35063   2.35188   2.35374
 Alpha virt. eigenvalues --    2.35695   2.36406   2.36681   2.37425   2.37754
 Alpha virt. eigenvalues --    2.37985   2.38358   2.38870   2.39107   2.39717
 Alpha virt. eigenvalues --    2.39802   2.40298   2.40412   2.40579   2.41078
 Alpha virt. eigenvalues --    2.41475   2.41993   2.42205   2.42431   2.44917
 Alpha virt. eigenvalues --    2.47463   2.48395   2.49092   2.50847   2.51579
 Alpha virt. eigenvalues --    2.51966   2.54366   2.55107   2.55329   2.55868
 Alpha virt. eigenvalues --    2.56875   2.60069   2.60145   2.61194   2.62042
 Alpha virt. eigenvalues --    2.62622   2.63092   2.63425   2.63535   2.65076
 Alpha virt. eigenvalues --    2.65152   2.65566   2.65787   2.66205   2.67383
 Alpha virt. eigenvalues --    2.68230   2.68454   2.68823   2.69216   2.70476
 Alpha virt. eigenvalues --    2.71385   2.72585   2.73492   2.74498   2.75558
 Alpha virt. eigenvalues --    2.76096   2.76615   2.77695   2.79664   2.81055
 Alpha virt. eigenvalues --    2.81489   2.82377   2.82560   2.83167   2.83856
 Alpha virt. eigenvalues --    2.85786   2.87384   2.88007   2.89411   2.90060
 Alpha virt. eigenvalues --    2.90609   2.95386   2.95550   2.96588   2.97379
 Alpha virt. eigenvalues --    2.99016   3.00112   3.02034   3.02068   3.02269
 Alpha virt. eigenvalues --    3.02787   3.04049   3.04506   3.06319   3.06621
 Alpha virt. eigenvalues --    3.07153   3.09453   3.10441   3.12478   3.13308
 Alpha virt. eigenvalues --    3.13836   3.14378   3.14803   3.15584   3.16100
 Alpha virt. eigenvalues --    3.16370   3.17032   3.19129   3.20155   3.21487
 Alpha virt. eigenvalues --    3.21855   3.22896   3.23800   3.25057   3.25775
 Alpha virt. eigenvalues --    3.26410   3.26637   3.29087   3.30706   3.30930
 Alpha virt. eigenvalues --    3.33627   3.35058   3.35751   3.38372   3.39725
 Alpha virt. eigenvalues --    3.41569   3.42866   3.45593   3.48803   3.56380
 Alpha virt. eigenvalues --    3.56898   3.57648   3.58840   3.61182   3.62483
 Alpha virt. eigenvalues --    3.73004   3.74579   3.87649   3.89542   4.09620
 Alpha virt. eigenvalues --    4.10622   4.35448   4.35582  18.98838  19.20504
 Alpha virt. eigenvalues --   21.06646  21.17626  21.25047  21.26802  21.62617
 Alpha virt. eigenvalues --   21.70495  21.72340  21.73639  21.74729  21.77991
 Alpha virt. eigenvalues --   21.84979  21.86561  21.91604  21.94173  21.96021
 Alpha virt. eigenvalues --   21.98100  21.99761  22.01709  22.05057  22.06333
 Alpha virt. eigenvalues --   22.12496  22.13658  22.18518  22.21082  32.07504
 Alpha virt. eigenvalues --   43.24170  43.24408
          Condensed to atoms (all electrons):
               1          2          3          4          5          6
     1  C    5.545428  -0.216310  -0.012573   0.367489   0.001128  -0.006483
     2  C   -0.216310   6.491400   0.074781  -0.165065  -0.022433   0.042251
     3  S   -0.012573   0.074781  15.517827  -0.206301  -0.215194   0.087702
     4  C    0.367489  -0.165065  -0.206301   6.511310   0.037616  -0.020239
     5  C    0.001128  -0.022433  -0.215194   0.037616   6.934505  -0.096222
     6  C   -0.006483   0.042251   0.087702  -0.020239  -0.096222   6.627226
     7  C    0.085458   0.343793   0.008081  -0.388944  -0.000544   0.001329
     8  C   -0.319943   0.376244   0.025930  -0.232948  -0.006226   0.002015
     9  H    0.001250   0.006112   0.023241  -0.115127  -0.115077   0.005956
    10  C    0.000551   0.001061   0.049840  -0.007116  -0.735613   0.299977
    11  C    0.000031  -0.009025  -0.028481   0.000023   0.333793  -0.299825
    12  C   -0.000006   0.001612   0.009494  -0.000135  -0.332649   0.346779
    13  C   -0.000032  -0.000876  -0.006454   0.000682   0.419497  -0.421460
    14  H    0.000013  -0.000018   0.000386  -0.001019  -0.093030   0.027275
    15  H    0.000045  -0.001177  -0.007749  -0.000052   0.033099  -0.152341
    16  H    0.000000   0.000001  -0.000024  -0.000001  -0.006042   0.024717
    17  C    0.187048  -0.387831  -0.003207   0.347550   0.001114  -0.000599
    18  H    0.466813  -0.122514  -0.007185   0.035102  -0.000012  -0.001166
    19  H    0.010942  -0.115954   0.351947   0.007674   0.007061  -0.122582
    20  H   -0.079819   0.029601  -0.000094  -0.008869  -0.000001  -0.000003
    21  H   -0.004157   0.034639   0.000329  -0.122139  -0.001012  -0.000023
    22  H    0.026606  -0.008946   0.000047   0.029891  -0.000002  -0.000002
    23  S    0.024844  -0.199947   0.196762   0.076915   0.084858  -0.208872
    24  N    0.000000  -0.000002   0.000023  -0.000006   0.020500   0.006666
    25  C   -0.000000  -0.000000  -0.000092   0.000001  -0.000620   0.000807
    26  C   -0.000000   0.000000   0.000002  -0.000000  -0.000592   0.000594
    27  C    0.000000  -0.000001   0.000008  -0.000001   0.003623  -0.003883
    28  C   -0.000000   0.000000   0.000000   0.000000  -0.000123   0.000047
    29  C    0.000000  -0.000000   0.000000  -0.000000   0.000086  -0.000354
    30  C    0.000000  -0.000000   0.000000  -0.000000   0.000035  -0.000003
    31  H    0.000000  -0.000000  -0.000000  -0.000000   0.000061  -0.000025
    32  H    0.000000  -0.000000  -0.000011  -0.000001   0.000704   0.000970
    33  H    0.000000  -0.000000  -0.000000   0.000000   0.000000  -0.000000
    34  H    0.000000  -0.000000  -0.000000   0.000000  -0.000001  -0.000005
    35  C    0.000000  -0.000001   0.000092  -0.000004  -0.021949   0.003354
    36  C   -0.000000   0.000000  -0.000003   0.000001   0.005174  -0.000413
    37  C    0.000000   0.000001   0.000015  -0.000005  -0.017735   0.000970
    38  C   -0.000000   0.000000   0.000000   0.000000  -0.000057   0.000033
    39  C    0.000000  -0.000000   0.000001   0.000000  -0.001527   0.000038
    40  C    0.000000   0.000000  -0.000000  -0.000000  -0.000241  -0.000011
    41  H    0.000000  -0.000000   0.000000  -0.000000  -0.000147   0.000013
    42  H    0.000000   0.000000   0.000012  -0.000003  -0.005217   0.000697
    43  H    0.000000  -0.000000   0.000000  -0.000000  -0.000006   0.000000
    44  H   -0.000000  -0.000000   0.000000   0.000000   0.000018  -0.000001
    45  O   -0.000000   0.000000   0.000000   0.000000   0.000001   0.000000
    46  H    0.000000   0.000000   0.000000  -0.000000  -0.000000  -0.000000
    47  O    0.000000  -0.000000  -0.000000  -0.000000  -0.000000   0.000000
    48  H    0.000000  -0.000000   0.000000  -0.000000   0.000000  -0.000000
               7          8          9         10         11         12
     1  C    0.085458  -0.319943   0.001250   0.000551   0.000031  -0.000006
     2  C    0.343793   0.376244   0.006112   0.001061  -0.009025   0.001612
     3  S    0.008081   0.025930   0.023241   0.049840  -0.028481   0.009494
     4  C   -0.388944  -0.232948  -0.115127  -0.007116   0.000023  -0.000135
     5  C   -0.000544  -0.006226  -0.115077  -0.735613   0.333793  -0.332649
     6  C    0.001329   0.002015   0.005956   0.299977  -0.299825   0.346779
     7  C    5.290887   0.188822  -0.000391  -0.000074   0.000021   0.000002
     8  C    0.188822   5.554411   0.010739  -0.000660   0.000605  -0.000068
     9  H   -0.000391   0.010739   0.716429   0.014922   0.002052  -0.001505
    10  C   -0.000074  -0.000660   0.014922   6.471653  -0.300265  -0.065362
    11  C    0.000021   0.000605   0.002052  -0.300265   5.728818  -0.055752
    12  C    0.000002  -0.000068  -0.001505  -0.065362  -0.055752   5.846883
    13  C    0.000001   0.000047  -0.001826  -0.128756   0.229040   0.128205
    14  H   -0.000002   0.000015   0.005574   0.437953  -0.002052   0.010300
    15  H    0.000000   0.000013   0.000060  -0.001432   0.483893  -0.093120
    16  H   -0.000000   0.000000  -0.000000   0.020889  -0.061802   0.415335
    17  C    0.276299   0.084496  -0.002256   0.000046  -0.000065   0.000003
    18  H   -0.083955  -0.004520   0.000058   0.000015   0.000043  -0.000002
    19  H   -0.002488   0.001114   0.000661   0.001335   0.017258  -0.005110
    20  H    0.436782   0.026473   0.000004   0.000000   0.000000  -0.000000
    21  H    0.017837   0.466869   0.007004   0.000033   0.000015  -0.000002
    22  H   -0.078258  -0.079909   0.000055   0.000000   0.000000  -0.000000
    23  S   -0.002746  -0.012269   0.352124  -0.011867   0.031199  -0.006522
    24  N   -0.000000   0.000000   0.000115  -0.007665   0.019772  -0.017225
    25  C    0.000000   0.000000  -0.000029  -0.011331  -0.001348   0.031918
    26  C   -0.000000  -0.000000  -0.000000  -0.012359   0.000797   0.031001
    27  C   -0.000000   0.000000   0.000021   0.024182  -0.001239  -0.099058
    28  C    0.000000  -0.000000  -0.000000  -0.000163  -0.000229   0.001678
    29  C   -0.000000   0.000000   0.000001   0.001439   0.000718  -0.005549
    30  C   -0.000000   0.000000   0.000000   0.000044  -0.000157  -0.001506
    31  H    0.000000   0.000000  -0.000000  -0.000253   0.000048  -0.000069
    32  H    0.000000   0.000000  -0.000003  -0.000009  -0.002061   0.003086
    33  H    0.000000   0.000000   0.000000   0.000003  -0.000001  -0.000038
    34  H   -0.000000  -0.000000   0.000000  -0.000029   0.000017  -0.000082
    35  C   -0.000000  -0.000000   0.000206   0.063267  -0.001654  -0.013355
    36  C    0.000000   0.000000  -0.000009   0.018900   0.000384  -0.015992
    37  C   -0.000000  -0.000000  -0.000020  -0.062811  -0.000769   0.032790
    38  C    0.000000  -0.000000   0.000001   0.001896  -0.000069  -0.000083
    39  C   -0.000000  -0.000000  -0.000004  -0.007539  -0.000145   0.001644
    40  C   -0.000000   0.000000  -0.000002  -0.001914   0.000017   0.000138
    41  H   -0.000000   0.000000   0.000001   0.000456   0.000004  -0.000257
    42  H   -0.000000   0.000000   0.000007   0.006462   0.000325  -0.000291
    43  H   -0.000000  -0.000000   0.000000  -0.000038  -0.000000   0.000003
    44  H    0.000000  -0.000000   0.000000   0.000080   0.000001  -0.000035
    45  O    0.000000  -0.000000   0.000000   0.000015  -0.000000   0.000000
    46  H   -0.000000   0.000000   0.000000  -0.000001   0.000000   0.000000
    47  O    0.000000  -0.000000   0.000000   0.000000   0.000000   0.000004
    48  H   -0.000000  -0.000000   0.000000  -0.000000   0.000000  -0.000001
              13         14         15         16         17         18
     1  C   -0.000032   0.000013   0.000045   0.000000   0.187048   0.466813
     2  C   -0.000876  -0.000018  -0.001177   0.000001  -0.387831  -0.122514
     3  S   -0.006454   0.000386  -0.007749  -0.000024  -0.003207  -0.007185
     4  C    0.000682  -0.001019  -0.000052  -0.000001   0.347550   0.035102
     5  C    0.419497  -0.093030   0.033099  -0.006042   0.001114  -0.000012
     6  C   -0.421460   0.027275  -0.152341   0.024717  -0.000599  -0.001166
     7  C    0.000001  -0.000002   0.000000  -0.000000   0.276299  -0.083955
     8  C    0.000047   0.000015   0.000013   0.000000   0.084496  -0.004520
     9  H   -0.001826   0.005574   0.000060  -0.000000  -0.002256   0.000058
    10  C   -0.128756   0.437953  -0.001432   0.020889   0.000046   0.000015
    11  C    0.229040  -0.002052   0.483893  -0.061802  -0.000065   0.000043
    12  C    0.128205   0.010300  -0.093120   0.415335   0.000003  -0.000002
    13  C    5.884149  -0.061361   0.030872  -0.058752  -0.000000  -0.000000
    14  H   -0.061361   0.532860   0.000011  -0.000179   0.000002   0.000000
    15  H    0.030872   0.000011   0.618136  -0.008710  -0.000002   0.000004
    16  H   -0.058752  -0.000179  -0.008710   0.531602   0.000000   0.000000
    17  C   -0.000000   0.000002  -0.000002   0.000000   5.287309   0.018208
    18  H   -0.000000   0.000000   0.000004   0.000000   0.018208   0.602905
    19  H    0.000972   0.000030   0.007048   0.000003  -0.000329   0.007405
    20  H   -0.000000  -0.000000   0.000000  -0.000000  -0.077900  -0.008343
    21  H    0.000001  -0.000001   0.000000  -0.000000  -0.083310   0.000056
    22  H   -0.000000   0.000000   0.000000   0.000000   0.436743  -0.000082
    23  S    0.009768  -0.007542   0.000298   0.000003   0.007241   0.000330
    24  N    0.136063  -0.006603  -0.000306  -0.007459  -0.000000   0.000000
[...]
    18  H   -0.000000  -0.000000   0.000000   0.000000   0.000000   0.000000
    19  H   -0.000006  -0.000000   0.000008   0.000000   0.000000   0.000000
    20  H   -0.000000  -0.000000   0.000000   0.000000   0.000000  -0.000000
    21  H   -0.000000  -0.000000   0.000000  -0.000000   0.000000  -0.000000
    22  H   -0.000000  -0.000000   0.000000   0.000000   0.000000  -0.000000
    23  S   -0.000026  -0.000000   0.000019   0.000000   0.000002  -0.000000
    24  N    0.102935  -0.001567  -0.021902   0.017736   0.029986   0.004085
    25  C    5.695411   0.303991   0.275588   0.041090   0.107652  -0.176258
    26  C    0.303991   5.258328  -0.139725   0.282595  -0.070669   0.018977
    27  C    0.275588  -0.139725   5.675120  -0.019621  -0.239671   0.141481
    28  C    0.041090   0.282595  -0.019621   5.412551  -0.182897   0.373314
    29  C    0.107652  -0.070669  -0.239671  -0.182897   6.241080   0.111402
    30  C   -0.176258   0.018977   0.141481   0.373314   0.111402   5.153984
    31  H   -0.057580   0.440278   0.019868  -0.082087  -0.004914   0.022119
    32  H   -0.035969   0.013222   0.398595  -0.000524  -0.042054   0.010860
    33  H    0.021546  -0.051169  -0.004401   0.427435   0.019633  -0.084428
    34  H    0.014398   0.003427   0.010710   0.005536   0.381724  -0.089654
    35  C   -0.113647   0.036310  -0.019254  -0.002793  -0.000911   0.002290
    36  C    0.051121  -0.061132   0.013710  -0.005927   0.002483  -0.001937
    37  C   -0.011120   0.012291  -0.013264   0.001453   0.000527  -0.000033
    38  C   -0.016084  -0.000865   0.002630   0.000819   0.000003  -0.000114
    39  C   -0.004913   0.003523   0.000024   0.000006  -0.000149   0.000050
    40  C    0.003787  -0.002318  -0.000110  -0.000189   0.000074  -0.000025
    41  H    0.005706   0.003955  -0.005368  -0.002602   0.002679   0.000267
    42  H   -0.001311   0.000606  -0.000485   0.000015   0.000044  -0.000011
    43  H   -0.000102   0.000093  -0.000052   0.000035  -0.000009  -0.000001
    44  H   -0.000031  -0.000015   0.000004  -0.000002  -0.000000   0.000000
    45  O    0.000017  -0.000006   0.000000  -0.000000  -0.000000   0.000000
    46  H    0.000001  -0.000001  -0.000000   0.000000   0.000000  -0.000000
    47  O   -0.001871   0.006432   0.023858  -0.082829  -0.122272   0.414185
    48  H   -0.000738  -0.001923   0.008510   0.020243  -0.043714  -0.025280
              31         32         33         34         35         36
     1  C    0.000000   0.000000   0.000000   0.000000   0.000000  -0.000000
     2  C   -0.000000  -0.000000  -0.000000  -0.000000  -0.000001   0.000000
     3  S   -0.000000  -0.000011  -0.000000  -0.000000   0.000092  -0.000003
     4  C   -0.000000  -0.000001   0.000000   0.000000  -0.000004   0.000001
     5  C    0.000061   0.000704   0.000000  -0.000001  -0.021949   0.005174
     6  C   -0.000025   0.000970  -0.000000  -0.000005   0.003354  -0.000413
     7  C    0.000000   0.000000   0.000000  -0.000000  -0.000000   0.000000
     8  C    0.000000   0.000000   0.000000  -0.000000  -0.000000   0.000000
     9  H   -0.000000  -0.000003   0.000000   0.000000   0.000206  -0.000009
    10  C   -0.000253  -0.000009   0.000003  -0.000029   0.063267   0.018900
    11  C    0.000048  -0.002061  -0.000001   0.000017  -0.001654   0.000384
    12  C   -0.000069   0.003086  -0.000038  -0.000082  -0.013355  -0.015992
    13  C   -0.001581  -0.003222   0.000004   0.000014  -0.113328  -0.017191
    14  H   -0.000010   0.000028  -0.000000   0.000000   0.009813  -0.003751
    15  H    0.000000  -0.000086   0.000000   0.000001   0.000157   0.000004
    16  H    0.000041   0.001204   0.000009  -0.000009  -0.001550  -0.000464
    17  C   -0.000000   0.000000  -0.000000  -0.000000  -0.000000  -0.000000
    18  H   -0.000000  -0.000000  -0.000000   0.000000   0.000000  -0.000000
    19  H   -0.000000  -0.000002   0.000000   0.000000   0.000005  -0.000000
    20  H   -0.000000  -0.000000   0.000000   0.000000   0.000000   0.000000
    21  H    0.000000  -0.000000   0.000000   0.000000   0.000000   0.000000
    22  H   -0.000000  -0.000000  -0.000000   0.000000   0.000000  -0.000000
    23  S   -0.000000  -0.000018   0.000000   0.000000   0.000020   0.000021
    24  N   -0.010741  -0.006908  -0.000573  -0.000790   0.124114  -0.028992
    25  C   -0.057580  -0.035969   0.021546   0.014398  -0.113647   0.051121
    26  C    0.440278   0.013222  -0.051169   0.003427   0.036310  -0.061132
    27  C    0.019868   0.398595  -0.004401   0.010710  -0.019254   0.013710
    28  C   -0.082087  -0.000524   0.427435   0.005536  -0.002793  -0.005927
    29  C   -0.004914  -0.042054   0.019633   0.381724  -0.000911   0.002483
    30  C    0.022119   0.010860  -0.084428  -0.089654   0.002290  -0.001937
    31  H    0.549554  -0.000239  -0.009964   0.000027   0.002906   0.005100
    32  H   -0.000239   0.528903   0.000029  -0.007023  -0.001951   0.001059
    33  H   -0.009964   0.000029   0.565136  -0.000318  -0.000264   0.000151
    34  H    0.000027  -0.007023  -0.000318   0.581965  -0.000003  -0.000038
    35  C    0.002906  -0.001951  -0.000264  -0.000003   5.714165   0.259934
    36  C    0.005100   0.001059   0.000151  -0.000038   0.259934   5.663532
    37  C   -0.002922  -0.000495  -0.000025   0.000002   0.286689  -0.135616
    38  C   -0.003664  -0.000050   0.000019  -0.000004   0.137153  -0.285231
    39  C    0.001293   0.000022  -0.000007   0.000000   0.026858  -0.014016
    40  C    0.000425  -0.000005   0.000003   0.000000  -0.178024   0.153367
    41  H    0.000890   0.000129  -0.000023   0.000011  -0.033347   0.401909
    42  H    0.000065  -0.000007   0.000001   0.000000  -0.059047   0.018644
    43  H   -0.000030   0.000000  -0.000000   0.000000   0.014701   0.010579
    44  H    0.000003  -0.000000  -0.000000  -0.000000   0.021750  -0.004461
    45  O   -0.000000   0.000000  -0.000000  -0.000000  -0.002469   0.024818
    46  H    0.000001  -0.000000  -0.000000   0.000000  -0.000850   0.008983
    47  O   -0.000114  -0.000078   0.002427  -0.006626  -0.000011   0.000006
    48  H    0.000034  -0.000050  -0.000773   0.001706  -0.000001  -0.000000
              37         38         39         40         41         42
     1  C    0.000000  -0.000000   0.000000   0.000000   0.000000   0.000000
     2  C    0.000001   0.000000  -0.000000   0.000000  -0.000000   0.000000
     3  S    0.000015   0.000000   0.000001  -0.000000   0.000000   0.000012
     4  C   -0.000005   0.000000   0.000000  -0.000000  -0.000000  -0.000003
     5  C   -0.017735  -0.000057  -0.001527  -0.000241  -0.000147  -0.005217
     6  C    0.000970   0.000033   0.000038  -0.000011   0.000013   0.000697
     7  C   -0.000000   0.000000  -0.000000  -0.000000  -0.000000  -0.000000
     8  C   -0.000000  -0.000000  -0.000000   0.000000   0.000000   0.000000
     9  H   -0.000020   0.000001  -0.000004  -0.000002   0.000001   0.000007
    10  C   -0.062811   0.001896  -0.007539  -0.001914   0.000456   0.006462
    11  C   -0.000769  -0.000069  -0.000145   0.000017   0.000004   0.000325
    12  C    0.032790  -0.000083   0.001644   0.000138  -0.000257  -0.000291
    13  C    0.016779  -0.000457   0.003697   0.001175  -0.002116  -0.005100
    14  H    0.003496   0.002040  -0.002037   0.000502   0.000144   0.001535
    15  H   -0.000068   0.000000  -0.000002   0.000000  -0.000000   0.000006
    16  H    0.000587   0.000023   0.000010  -0.000003  -0.000012  -0.000005
    17  C    0.000000  -0.000000   0.000000   0.000000   0.000000   0.000000
    18  H    0.000000  -0.000000   0.000000   0.000000   0.000000   0.000000
    19  H   -0.000001   0.000000   0.000000  -0.000000   0.000000   0.000000
    20  H   -0.000000   0.000000  -0.000000  -0.000000   0.000000   0.000000
    21  H   -0.000000   0.000000  -0.000000  -0.000000   0.000000   0.000000
    22  H    0.000000  -0.000000  -0.000000  -0.000000   0.000000   0.000000
    23  S    0.000030  -0.000002   0.000001  -0.000000  -0.000001   0.000008
    24  N    0.002850   0.030562   0.012733   0.004718  -0.010404  -0.005634
    25  C   -0.011120  -0.016084  -0.004913   0.003787   0.005706  -0.001311
    26  C    0.012291  -0.000865   0.003523  -0.002318   0.003955   0.000606
    27  C   -0.013264   0.002630   0.000024  -0.000110  -0.005368  -0.000485
    28  C    0.001453   0.000819   0.000006  -0.000189  -0.002602   0.000015
    29  C    0.000527   0.000003  -0.000149   0.000074   0.002679   0.000044
    30  C   -0.000033  -0.000114   0.000050  -0.000025   0.000267  -0.000011
    31  H   -0.002922  -0.003664   0.001293   0.000425   0.000890   0.000065
    32  H   -0.000495  -0.000050   0.000022  -0.000005   0.000129  -0.000007
    33  H   -0.000025   0.000019  -0.000007   0.000003  -0.000023   0.000001
    34  H    0.000002  -0.000004   0.000000   0.000000   0.000011   0.000000
    35  C    0.286689   0.137153   0.026858  -0.178024  -0.033347  -0.059047
    36  C   -0.135616  -0.285231  -0.014016   0.153367   0.401909   0.018644
    37  C    5.282368  -0.083890   0.328071   0.012903   0.013724   0.432414
    38  C   -0.083890   6.310862  -0.181666   0.081729  -0.052916  -0.004748
    39  C    0.328071  -0.181666   5.341440   0.394922  -0.000314  -0.066775
    40  C    0.012903   0.081729   0.394922   5.160041   0.011681   0.020739
    41  H    0.013724  -0.052916  -0.000314   0.011681   0.540073  -0.000257
    42  H    0.432414  -0.004748  -0.066775   0.020739  -0.000257   0.535260
    43  H    0.003338   0.382117   0.005402  -0.089821  -0.007092   0.000022
    44  H   -0.049231   0.019818   0.424751  -0.084092   0.000030  -0.009740
    45  O    0.007075  -0.123191  -0.083129   0.414518  -0.000056  -0.000106
    46  H   -0.001785  -0.044891   0.019682  -0.023965  -0.000045   0.000034
    47  O    0.000000   0.000000  -0.000000   0.000000  -0.000006  -0.000000
    48  H   -0.000000   0.000000   0.000000  -0.000000  -0.000002  -0.000000
              43         44         45         46         47         48
     1  C    0.000000  -0.000000  -0.000000   0.000000   0.000000   0.000000
     2  C   -0.000000  -0.000000   0.000000   0.000000  -0.000000  -0.000000
     3  S    0.000000   0.000000   0.000000   0.000000  -0.000000   0.000000
     4  C   -0.000000   0.000000   0.000000  -0.000000  -0.000000  -0.000000
     5  C   -0.000006   0.000018   0.000001  -0.000000  -0.000000   0.000000
     6  C    0.000000  -0.000001   0.000000  -0.000000   0.000000  -0.000000
     7  C   -0.000000   0.000000   0.000000  -0.000000   0.000000  -0.000000
     8  C   -0.000000  -0.000000  -0.000000   0.000000  -0.000000  -0.000000
     9  H    0.000000   0.000000   0.000000   0.000000   0.000000   0.000000
    10  C   -0.000038   0.000080   0.000015  -0.000001   0.000000  -0.000000
    11  C   -0.000000   0.000001  -0.000000   0.000000   0.000000   0.000000
    12  C    0.000003  -0.000035   0.000000   0.000000   0.000004  -0.000001
    13  C    0.000009  -0.000163  -0.000009  -0.000000   0.000008   0.000000
    14  H    0.000023   0.000005  -0.000009  -0.000001   0.000000  -0.000000
    15  H   -0.000000   0.000000  -0.000000  -0.000000  -0.000000  -0.000000
    16  H   -0.000000   0.000000  -0.000000  -0.000000  -0.000003   0.000001
    17  C    0.000000  -0.000000   0.000000   0.000000  -0.000000   0.000000
    18  H    0.000000   0.000000  -0.000000   0.000000  -0.000000   0.000000
    19  H    0.000000   0.000000   0.000000   0.000000  -0.000000   0.000000
    20  H    0.000000   0.000000  -0.000000  -0.000000  -0.000000   0.000000
    21  H    0.000000   0.000000  -0.000000  -0.000000  -0.000000   0.000000
    22  H    0.000000   0.000000   0.000000   0.000000   0.000000   0.000000
    23  S   -0.000000  -0.000001   0.000000   0.000000   0.000000   0.000000
    24  N   -0.000734  -0.000646  -0.000010  -0.000003  -0.000008  -0.000003
    25  C   -0.000102  -0.000031   0.000017   0.000001  -0.001871  -0.000738
    26  C    0.000093  -0.000015  -0.000006  -0.000001   0.006432  -0.001923
    27  C   -0.000052   0.000004   0.000000  -0.000000   0.023858   0.008510
    28  C    0.000035  -0.000002  -0.000000   0.000000  -0.082829   0.020243
    29  C   -0.000009  -0.000000  -0.000000   0.000000  -0.122272  -0.043714
    30  C   -0.000001   0.000000   0.000000  -0.000000   0.414185  -0.025280
    31  H   -0.000030   0.000003  -0.000000   0.000001  -0.000114   0.000034
    32  H    0.000000  -0.000000   0.000000  -0.000000  -0.000078  -0.000050
    33  H   -0.000000  -0.000000  -0.000000  -0.000000   0.002427  -0.000773
    34  H    0.000000  -0.000000  -0.000000   0.000000  -0.006626   0.001706
    35  C    0.014701   0.021750  -0.002469  -0.000850  -0.000011  -0.000001
    36  C    0.010579  -0.004461   0.024818   0.008983   0.000006  -0.000000
    37  C    0.003338  -0.049231   0.007075  -0.001785   0.000000  -0.000000
    38  C    0.382117   0.019818  -0.123191  -0.044891   0.000000   0.000000
    39  C    0.005402   0.424751  -0.083129   0.019682  -0.000000   0.000000
    40  C   -0.089821  -0.084092   0.414518  -0.023965   0.000000  -0.000000
    41  H   -0.007092   0.000030  -0.000056  -0.000045  -0.000006  -0.000002
    42  H    0.000022  -0.009740  -0.000106   0.000034  -0.000000  -0.000000
    43  H    0.581241  -0.000313  -0.006766   0.001567  -0.000000   0.000000
    44  H   -0.000313   0.563783   0.002587  -0.000783  -0.000000   0.000000
    45  O   -0.006766   0.002587   7.699962   0.304505  -0.000000  -0.000000
    46  H    0.001567  -0.000783   0.304505   0.469977   0.000000  -0.000000
    47  O   -0.000000  -0.000000  -0.000000   0.000000   7.700527   0.304521
    48  H    0.000000   0.000000  -0.000000  -0.000000   0.304521   0.469841
 Mulliken charges:
               1
     1  C   -0.078321
     2  C   -0.151395
     3  S    0.140846
     4  C   -0.146279
     5  C   -0.210600
     6  C   -0.144902
     7  C   -0.091913
     8  C   -0.081250
     9  H    0.089655
    10  C   -0.059762
    11  C   -0.083935
    12  C   -0.147098
    13  C    0.031543
    14  H    0.146969
    15  H    0.091199
    16  H    0.147034
    17  C   -0.090561
    18  H    0.096841
    19  H    0.087126
    20  H    0.103185
    21  H    0.097157
    22  H    0.103220
    23  S    0.140164
    24  N    0.000478
    25  C   -0.144186
    26  C   -0.049058
    27  C   -0.073256
    28  C   -0.205194
    29  C   -0.176574
    30  C    0.124190
    31  H    0.131481
    32  H    0.141951
    33  H    0.115587
    34  H    0.105045
    35  C   -0.139370
    36  C   -0.064707
    37  C   -0.058585
    38  C   -0.171726
    39  C   -0.201944
    40  C    0.119980
    41  H    0.133293
    42  H    0.141842
    43  H    0.105834
    44  H    0.116685
    45  O   -0.237746
    46  H    0.267576
    47  O   -0.238151
    48  H    0.267630
 Sum of Mulliken charges =  -0.00000
 Mulliken charges with hydrogens summed into heavy atoms:
               1
     1  C    0.018520
     2  C   -0.151395
     3  S    0.227972
     4  C   -0.146279
     5  C   -0.210600
     6  C   -0.144902
     7  C    0.011272
     8  C    0.015906
    10  C    0.087207
    11  C    0.007264
    12  C   -0.000063
    13  C    0.031543
    17  C    0.012659
    23  S    0.229819
    24  N    0.000478
    25  C   -0.144186
    26  C    0.082423
    27  C    0.068695
    28  C   -0.089607
    29  C   -0.071529
    30  C    0.124190
    35  C   -0.139370
    36  C    0.068587
    37  C    0.083257
    38  C   -0.065891
    39  C   -0.085259
    40  C    0.119980
    45  O    0.029829
    47  O    0.029480
 Electronic spatial extent (au):  <R**2>=          17769.7950
 Charge=             -0.0000 electrons
 Dipole moment (field-independent basis, Debye):
    X=             -0.9409    Y=             -1.3904    Z=              3.0630  Tot=              3.4929
 Quadrupole moment (field-independent basis, Debye-Ang):
   XX=           -174.8434   YY=           -165.6975   ZZ=           -177.7091
   XY=             -6.8495   XZ=             -5.3707   YZ=              5.1468
 Traceless Quadrupole moment (field-independent basis, Debye-Ang):
   XX=             -2.0934   YY=              7.0525   ZZ=             -4.9591
   XY=             -6.8495   XZ=             -5.3707   YZ=              5.1468
 Octapole moment (field-independent basis, Debye-Ang**2):
  XXX=             62.8396  YYY=            -63.6063  ZZZ=             11.4406  XYY=            -52.9546
  XXY=             27.3307  XXZ=             76.2415  XZZ=            -37.9744  YZZ=              4.7995
  YYZ=             68.7885  XYZ=             21.2311
 Hexadecapole moment (field-independent basis, Debye-Ang**3):
 XXXX=         -17757.9970 YYYY=          -4746.1238 ZZZZ=           -965.9319 XXXY=           -557.1820
 XXXZ=             46.1859 YYYX=             63.5721 YYYZ=             39.2485 ZZZX=            -49.9772
 ZZZY=            -27.3898 XXYY=          -3474.0156 XXZZ=          -3150.3445 YYZZ=           -864.6191
 XXYZ=            172.4190 YYXZ=           -385.5443 ZZXY=             60.6236
 N-N= 2.827246280079D+03 E-N=-1.017891491512D+04  KE= 1.920173038759D+03
 No NMR shielding tensors so no spin-rotation constants.
 Leave Link  601 at Mon Jan 18 14:17:05 2021, MaxMem=  4026531840 cpu:               3.4 elap:               0.5
 (Enter /opt/ohpc/pub/libs/gaussian/g16-A.03/sandybridge/g16/l9999.exe)

 Test job not archived.
 1\1\GINC-CASCADEB025\SP\RLC-wHPBE\TZVP\C24H19N1O2S2\RDU230\18-Jan-2021
 \0\\#P LC-wHPBE/TZVP iop(3/107=0183600000, 3/108=0183600000) scf=(conv
 er=6,fermi,ndamp=35,noincfock,novaracc,vshift=500,xqc)\\H19 C24 S2 N1 
 O2\\0,1\C,0,-6.54463,-1.193879,0.12701\C,0,-5.283469,-0.647909,0.13152
 3\S,0,-3.665919,-1.107322,1.042984\C,0,-4.996815,0.486583,-0.53783\C,0
 ,-1.475687,0.036886,0.221747\C,0,-1.772288,-1.094442,0.892846\C,0,-7.5
 17398,-0.549399,-0.618903\C,0,-5.951198,1.159916,-1.262339\H,0,-2.8434
 06,1.345523,-1.332578\C,0,-0.186077,0.430997,-0.028463\C,0,-0.77363,-1
 .912541,1.366813\C,0,0.53691,-1.552052,1.124661\C,0,0.845585,-0.387156
 ,0.425435\H,0,0.045427,1.33981,-0.567415\H,0,-0.986976,-2.816418,1.923
 251\H,0,1.342687,-2.175375,1.48462\C,0,-7.223748,0.615229,-1.306247\H,
 0,-6.782458,-2.097666,0.673346\H,0,-3.815781,-2.43941,0.928305\H,0,-8.
 517553,-0.958288,-0.663525\H,0,-5.730059,2.077989,-1.791552\H,0,-7.997
 253,1.105431,-1.881471\S,0,-3.166075,0.851646,-0.124057\N,0,2.182887,-
 0.044483,0.184905\C,0,3.146505,-1.044921,-0.067172\C,0,4.392012,-0.989
 098,0.539344\C,0,2.878694,-2.090316,-0.930362\C,0,5.345494,-1.946131,0
 .285899\C,0,3.822608,-3.066997,-1.170354\C,0,5.062274,-2.995295,-0.567
 641\H,0,4.612943,-0.17489,1.215121\H,0,1.913696,-2.145516,-1.414069\H,
 0,6.317156,-1.901598,0.755555\H,0,3.591387,-3.881585,-1.84538\C,0,2.57
 5405,1.310294,0.123192\C,0,3.391681,1.763268,-0.894977\C,0,2.16404,2.2
 11964,1.09371\C,0,3.796835,3.081396,-0.942072\C,0,2.544098,3.531176,1.
 038879\C,0,3.368807,3.972023,0.020733\H,0,3.723839,1.07184,-1.656403\H
 ,0,1.529535,1.868488,1.898614\H,0,4.442764,3.41523,-1.744528\H,0,2.220
 724,4.234697,1.791974\O,0,3.726245,5.28132,0.019257\H,0,4.294203,5.466
 041,-0.728132\O,0,6.032969,-3.920806,-0.776143\H,0,5.721078,-4.593785,
 -1.380389\\Version=EM64L-G16RevA.03\State=1-A\HF=-1926.4412891\RMSD=6.
 825e-07\Dipole=0.3701973,-0.5470115,-1.2050702\Quadrupole=-1.5563892,5
 .2433526,-3.6869633,5.0924075,-3.9929795,-3.8265518\PG=C01 [X(C24H19N1
 O2S2)]\\@


 Some scientists claim that hydrogen, because it is so
 plentiful, is the basic building block of the universe. 
 I dispute that. I say that stupidity is far more
 abundant than hydrogen, and THAT is the basic building 
 block of the universe.
                   --Frank Zappa
 Job cpu time:       0 days  1 hours 54 minutes  2.3 seconds.
 Elapsed time:       0 days  0 hours 14 minutes 18.0 seconds.
 File lengths (MBytes):  RWF=    192 Int=      0 D2E=      0 Chk=     32 Scr=      8
 Normal termination of Gaussian 16 at Mon Jan 18 14:17:06 2021.
