 Entering Gaussian System, Link 0=g16
 Input=mol_ta_ma_half_tune_c5.gjf
 Output=mol_ta_ma_half_tune_c5.log
 Initial command:
 /opt/ohpc/pub/libs/gaussian/g16-A.03/sandybridge/g16/l1.exe "/mnt/gpfs2_4m/scratch/rdu230/ondemand/projects/init_structures/wtuning/mol_ta_ma_half/tuning_mol_ta_ma_half_ocycle0/Gau-209086.inp" -scrdir="/mnt/gpfs2_4m/scratch/rdu230/ondemand/projects/init_structures/wtuning/mol_ta_ma_half/tuning_mol_ta_ma_half_ocycle0/"
 Entering Link 1 = /opt/ohpc/pub/libs/gaussian/g16-A.03/sandybridge/g16/l1.exe PID=    209087.
  
 Copyright (c) 1988,1990,1992,1993,1995,1998,2003,2009,2016,
            Gaussian, Inc.  All Rights Reserved.
  
 This is part of the Gaussian(R) 16 program.  It is based on
 the Gaussian(R) 09 system (copyright 2009, Gaussian, Inc.),
 the Gaussian(R) 03 system (copyright 2003, Gaussian, Inc.),
 the Gaussian(R) 98 system (copyright 1998, Gaussian, Inc.),
 the Gaussian(R) 94 system (copyright 1995, Gaussian, Inc.),
 the Gaussian 92(TM) system (copyright 1992, Gaussian, Inc.),
 the Gaussian 90(TM) system (copyright 1990, Gaussian, Inc.),
 the Gaussian 88(TM) system (copyright 1988, Gaussian, Inc.),
 the Gaussian 86(TM) system (copyright 1986, Carnegie Mellon
 University), and the Gaussian 82(TM) system (copyright 1983,
 Carnegie Mellon University). Gaussian is a federally registered
 trademark of Gaussian, Inc.
  
 This software contains proprietary and confidential information,
 including trade secrets, belonging to Gaussian, Inc.
  
 This software is provided under written license and may be
 used, copied, transmitted, or stored only in accord with that
 written license.
  
 The following legend is applicable only to US Government
 contracts under FAR:
  
                    RESTRICTED RIGHTS LEGEND
  
 Use, reproduction and disclosure by the US Government is
 subject to restrictions as set forth in subparagraphs (a)
 and (c) of the Commercial Computer Software - Restricted
 Rights clause in FAR 52.227-19.
  
 Gaussian, Inc.
 340 Quinnipiac St., Bldg. 40, Wallingford CT 06492
  
  
 ---------------------------------------------------------------
 Warning -- This program may not be used in any manner that
 competes with the business of Gaussian, Inc. or will provide
 assistance to any competitor of Gaussian, Inc.  The licensee
 of this program is prohibited from giving any competitor of
 Gaussian, Inc. access to this program.  By using this program,
 the user acknowledges that Gaussian, Inc. is engaged in the
 business of creating and licensing software in the field of
 computational chemistry and represents and warrants to the
 licensee that it is not a competitor of Gaussian, Inc. and that
 it will not use this program in any manner prohibited above.
 ---------------------------------------------------------------
  

 Cite this work as:
 Gaussian 16, Revision A.03,
 M. J. Frisch, G. W. Trucks, H. B. Schlegel, G. E. Scuseria, 
 M. A. Robb, J. R. Cheeseman, G. Scalmani, V. Barone, 
 G. A. Petersson, H. Nakatsuji, X. Li, M. Caricato, A. V. Marenich, 
 J. Bloino, B. G. Janesko, R. Gomperts, B. Mennucci, H. P. Hratchian, 
 J. V. Ortiz, A. F. Izmaylov, J. L. Sonnenberg, D. Williams-Young, 
 F. Ding, F. Lipparini, F. Egidi, J. Goings, B. Peng, A. Petrone, 
 T. Henderson, D. Ranasinghe, V. G. Zakrzewski, J. Gao, N. Rega, 
 G. Zheng, W. Liang, M. Hada, M. Ehara, K. Toyota, R. Fukuda, 
 J. Hasegawa, M. Ishida, T. Nakajima, Y. Honda, O. Kitao, H. Nakai, 
 T. Vreven, K. Throssell, J. A. Montgomery, Jr., J. E. Peralta, 
 F. Ogliaro, M. J. Bearpark, J. J. Heyd, E. N. Brothers, K. N. Kudin, 
 V. N. Staroverov, T. A. Keith, R. Kobayashi, J. Normand, 
 K. Raghavachari, A. P. Rendell, J. C. Burant, S. S. Iyengar, 
 J. Tomasi, M. Cossi, J. M. Millam, M. Klene, C. Adamo, R. Cammi, 
 J. W. Ochterski, R. L. Martin, K. Morokuma, O. Farkas, 
 J. B. Foresman, and D. J. Fox, Gaussian, Inc., Wallingford CT, 2016.
 
 ******************************************
 Gaussian 16:  EM64L-G16RevA.03 25-Dec-2016
                18-Jan-2021 
 ******************************************
 %mem=30GB
 %nproc=8
 Will use up to    8 processors via shared memory.
 ----------------------------------------------------------------------
 #P LC-wHPBE/TZVP iop(3/107=0183600000, 3/108=0183600000) scf=(conver=6
 ,fermi,ndamp=35,noincfock,novaracc,vshift=500,xqc)
 ----------------------------------------------------------------------
 1/38=1,172=1/1;
 2/12=2,17=6,18=5,40=1/2;
 3/5=19,7=101,11=2,25=1,30=1,74=-71,107=183600000,108=183600000/1,2,3;
 4//1;
 5/5=100002,6=6,8=3,10=500,13=1,18=-1,22=13,38=1,93=35/2,8;
 6/7=2,8=2,9=2,10=2,28=1/1;
 99/5=1,9=1/99;
 Leave Link    1 at Mon Jan 18 14:17:06 2021, MaxMem=  4026531840 cpu:               0.8 elap:               0.1
 (Enter /opt/ohpc/pub/libs/gaussian/g16-A.03/sandybridge/g16/l101.exe)
 ----------------
 H19 C24 S2 N1 O2
 ----------------
 Symbolic Z-matrix:
 Charge =  1 Multiplicity = 2
 C                    -6.54463  -1.19388   0.12701 
 C                    -5.28347  -0.64791   0.13152 
 S                    -3.66592  -1.10732   1.04298 
 C                    -4.99682   0.48658  -0.53783 
 C                    -1.47569   0.03689   0.22175 
 C                    -1.77229  -1.09444   0.89285 
 C                    -7.5174   -0.5494   -0.6189 
 C                    -5.9512    1.15992  -1.26234 
 H                    -2.84341   1.34552  -1.33258 
 C                    -0.18608   0.431    -0.02846 
 C                    -0.77363  -1.91254   1.36681 
 C                     0.53691  -1.55205   1.12466 
 C                     0.84559  -0.38716   0.42544 
 H                     0.04543   1.33981  -0.56742 
 H                    -0.98698  -2.81642   1.92325 
 H                     1.34269  -2.17537   1.48462 
 C                    -7.22375   0.61523  -1.30625 
 H                    -6.78246  -2.09767   0.67335 
 H                    -3.81578  -2.43941   0.92831 
 H                    -8.51755  -0.95829  -0.66353 
 H                    -5.73006   2.07799  -1.79155 
 H                    -7.99725   1.10543  -1.88147 
 S                    -3.16608   0.85165  -0.12406 
 N                     2.18289  -0.04448   0.18491 
 C                     3.1465   -1.04492  -0.06717 
 C                     4.39201  -0.9891    0.53934 
 C                     2.87869  -2.09032  -0.93036 
 C                     5.34549  -1.94613   0.2859 
 C                     3.82261  -3.067    -1.17035 
 C                     5.06227  -2.9953   -0.56764 
 H                     4.61294  -0.17489   1.21512 
 H                     1.9137   -2.14552  -1.41407 
 H                     6.31716  -1.9016    0.75556 
 H                     3.59139  -3.88159  -1.84538 
 C                     2.5754    1.31029   0.12319 
 C                     3.39168   1.76327  -0.89498 
 C                     2.16404   2.21196   1.09371 
 C                     3.79684   3.0814   -0.94207 
 C                     2.5441    3.53118   1.03888 
 C                     3.36881   3.97202   0.02073 
 H                     3.72384   1.07184  -1.6564 
 H                     1.52954   1.86849   1.89861 
 H                     4.44276   3.41523  -1.74453 
 H                     2.22072   4.2347    1.79197 
 O                     3.72625   5.28132   0.01926 
 H                     4.2942    5.46604  -0.72813 
 O                     6.03297  -3.92081  -0.77614 
 H                     5.72108  -4.59379  -1.38039 
 
 ITRead=  0  0  0  0  0  0  0  0  0  0  0  0  0  0  0  0  0  0  0  0
 ITRead=  0  0  0  0  0  0  0  0  0  0  0  0  0  0  0  0  0  0  0  0
 ITRead=  0  0  0  0  0  0  0  0
 MicOpt= -1 -1 -1 -1 -1 -1 -1 -1 -1 -1 -1 -1 -1 -1 -1 -1 -1 -1 -1 -1
 MicOpt= -1 -1 -1 -1 -1 -1 -1 -1 -1 -1 -1 -1 -1 -1 -1 -1 -1 -1 -1 -1
 MicOpt= -1 -1 -1 -1 -1 -1 -1 -1
 NAtoms=     48 NQM=       48 NQMF=       0 NMMI=      0 NMMIF=      0
                NMic=       0 NMicF=      0.
                    Isotopes and Nuclear Properties:
 (Nuclear quadrupole moments (NQMom) in fm**2, nuclear magnetic moments (NMagM)
  in nuclear magnetons)

  Atom         1           2           3           4           5           6           7           8           9          10
 IAtWgt=          12          12          32          12          12          12          12          12           1          12
 AtmWgt=  12.0000000  12.0000000  31.9720718  12.0000000  12.0000000  12.0000000  12.0000000  12.0000000   1.0078250  12.0000000
 NucSpn=           0           0           0           0           0           0           0           0           1           0
 AtZEff=  -0.0000000  -0.0000000  -0.0000000  -0.0000000  -0.0000000  -0.0000000  -0.0000000  -0.0000000  -0.0000000  -0.0000000
 NQMom=    0.0000000   0.0000000   0.0000000   0.0000000   0.0000000   0.0000000   0.0000000   0.0000000   0.0000000   0.0000000
 NMagM=    0.0000000   0.0000000   0.0000000   0.0000000   0.0000000   0.0000000   0.0000000   0.0000000   2.7928460   0.0000000
 AtZNuc=   6.0000000   6.0000000  16.0000000   6.0000000   6.0000000   6.0000000   6.0000000   6.0000000   1.0000000   6.0000000

  Atom        11          12          13          14          15          16          17          18          19          20
 IAtWgt=          12          12          12           1           1           1          12           1           1           1
 AtmWgt=  12.0000000  12.0000000  12.0000000   1.0078250   1.0078250   1.0078250  12.0000000   1.0078250   1.0078250   1.0078250
 NucSpn=           0           0           0           1           1           1           0           1           1           1
 AtZEff=  -0.0000000  -0.0000000  -0.0000000  -0.0000000  -0.0000000  -0.0000000  -0.0000000  -0.0000000  -0.0000000  -0.0000000
 NQMom=    0.0000000   0.0000000   0.0000000   0.0000000   0.0000000   0.0000000   0.0000000   0.0000000   0.0000000   0.0000000
 NMagM=    0.0000000   0.0000000   0.0000000   2.7928460   2.7928460   2.7928460   0.0000000   2.7928460   2.7928460   2.7928460
 AtZNuc=   6.0000000   6.0000000   6.0000000   1.0000000   1.0000000   1.0000000   6.0000000   1.0000000   1.0000000   1.0000000

  Atom        21          22          23          24          25          26          27          28          29          30
 IAtWgt=           1           1          32          14          12          12          12          12          12          12
 AtmWgt=   1.0078250   1.0078250  31.9720718  14.0030740  12.0000000  12.0000000  12.0000000  12.0000000  12.0000000  12.0000000
 NucSpn=           1           1           0           2           0           0           0           0           0           0
 AtZEff=  -0.0000000  -0.0000000  -0.0000000  -0.0000000  -0.0000000  -0.0000000  -0.0000000  -0.0000000  -0.0000000  -0.0000000
 NQMom=    0.0000000   0.0000000   0.0000000   2.0440000   0.0000000   0.0000000   0.0000000   0.0000000   0.0000000   0.0000000
 NMagM=    2.7928460   2.7928460   0.0000000   0.4037610   0.0000000   0.0000000   0.0000000   0.0000000   0.0000000   0.0000000
 AtZNuc=   1.0000000   1.0000000  16.0000000   7.0000000   6.0000000   6.0000000   6.0000000   6.0000000   6.0000000   6.0000000

  Atom        31          32          33          34          35          36          37          38          39          40
 IAtWgt=           1           1           1           1          12          12          12          12          12          12
 AtmWgt=   1.0078250   1.0078250   1.0078250   1.0078250  12.0000000  12.0000000  12.0000000  12.0000000  12.0000000  12.0000000
 NucSpn=           1           1           1           1           0           0           0           0           0           0
 AtZEff=  -0.0000000  -0.0000000  -0.0000000  -0.0000000  -0.0000000  -0.0000000  -0.0000000  -0.0000000  -0.0000000  -0.0000000
 NQMom=    0.0000000   0.0000000   0.0000000   0.0000000   0.0000000   0.0000000   0.0000000   0.0000000   0.0000000   0.0000000
 NMagM=    2.7928460   2.7928460   2.7928460   2.7928460   0.0000000   0.0000000   0.0000000   0.0000000   0.0000000   0.0000000
 AtZNuc=   1.0000000   1.0000000   1.0000000   1.0000000   6.0000000   6.0000000   6.0000000   6.0000000   6.0000000   6.0000000

  Atom        41          42          43          44          45          46          47          48
 IAtWgt=           1           1           1           1          16           1          16           1
 AtmWgt=   1.0078250   1.0078250   1.0078250   1.0078250  15.9949146   1.0078250  15.9949146   1.0078250
 NucSpn=           1           1           1           1           0           1           0           1
 AtZEff=  -0.0000000  -0.0000000  -0.0000000  -0.0000000  -0.0000000  -0.0000000  -0.0000000  -0.0000000
 NQMom=    0.0000000   0.0000000   0.0000000   0.0000000   0.0000000   0.0000000   0.0000000   0.0000000
 NMagM=    2.7928460   2.7928460   2.7928460   2.7928460   0.0000000   2.7928460   0.0000000   2.7928460
 AtZNuc=   1.0000000   1.0000000   1.0000000   1.0000000   8.0000000   1.0000000   8.0000000   1.0000000
 Leave Link  101 at Mon Jan 18 14:17:06 2021, MaxMem=  4026531840 cpu:               0.7 elap:               0.1
 (Enter /opt/ohpc/pub/libs/gaussian/g16-A.03/sandybridge/g16/l202.exe)
                          Input orientation:                          
 ---------------------------------------------------------------------
 Center     Atomic      Atomic             Coordinates (Angstroms)
 Number     Number       Type             X           Y           Z
 ---------------------------------------------------------------------
      1          6           0       -6.544630   -1.193879    0.127010
      2          6           0       -5.283469   -0.647909    0.131523
      3         16           0       -3.665919   -1.107322    1.042984
      4          6           0       -4.996815    0.486583   -0.537830
      5          6           0       -1.475687    0.036886    0.221747
      6          6           0       -1.772288   -1.094442    0.892846
      7          6           0       -7.517398   -0.549399   -0.618903
      8          6           0       -5.951198    1.159916   -1.262339
      9          1           0       -2.843406    1.345523   -1.332578
     10          6           0       -0.186077    0.430997   -0.028463
     11          6           0       -0.773630   -1.912541    1.366813
     12          6           0        0.536910   -1.552052    1.124661
     13          6           0        0.845585   -0.387156    0.425435
     14          1           0        0.045427    1.339810   -0.567415
     15          1           0       -0.986976   -2.816418    1.923251
     16          1           0        1.342687   -2.175375    1.484620
     17          6           0       -7.223748    0.615229   -1.306247
     18          1           0       -6.782458   -2.097666    0.673346
     19          1           0       -3.815781   -2.439410    0.928305
     20          1           0       -8.517553   -0.958288   -0.663525
     21          1           0       -5.730059    2.077989   -1.791552
     22          1           0       -7.997253    1.105431   -1.881471
     23         16           0       -3.166075    0.851646   -0.124057
     24          7           0        2.182887   -0.044483    0.184905
     25          6           0        3.146505   -1.044921   -0.067172
     26          6           0        4.392012   -0.989098    0.539344
     27          6           0        2.878694   -2.090316   -0.930362
     28          6           0        5.345494   -1.946131    0.285899
     29          6           0        3.822608   -3.066997   -1.170354
     30          6           0        5.062274   -2.995295   -0.567641
     31          1           0        4.612943   -0.174890    1.215121
     32          1           0        1.913696   -2.145516   -1.414069
     33          1           0        6.317156   -1.901598    0.755555
     34          1           0        3.591387   -3.881585   -1.845380
     35          6           0        2.575405    1.310294    0.123192
     36          6           0        3.391681    1.763268   -0.894977
     37          6           0        2.164040    2.211964    1.093710
     38          6           0        3.796835    3.081396   -0.942072
     39          6           0        2.544098    3.531176    1.038879
     40          6           0        3.368807    3.972023    0.020733
     41          1           0        3.723839    1.071840   -1.656403
     42          1           0        1.529535    1.868488    1.898614
     43          1           0        4.442764    3.415230   -1.744528
     44          1           0        2.220724    4.234697    1.791974
     45          8           0        3.726245    5.281320    0.019257
     46          1           0        4.294203    5.466041   -0.728132
     47          8           0        6.032969   -3.920806   -0.776143
     48          1           0        5.721078   -4.593785   -1.380389
 ---------------------------------------------------------------------
                    Distance matrix (angstroms):
                    1          2          3          4          5
     1  C    0.000000
     2  C    1.374275   0.000000
     3  S    3.022164   1.912666   0.000000
     4  C    2.379432   1.348064   2.609749   0.000000
     5  C    5.217082   3.869921   2.603989   3.630086   0.000000
     6  C    4.834422   3.620414   1.899617   3.865753   1.348425
     7  C    1.384925   2.358661   4.231671   2.726384   6.128025
     8  C    2.796927   2.378433   3.959467   1.374459   4.847051
     9  H    4.719960   3.474373   3.512303   2.450831   2.449309
    10  C    6.564723   5.212777   3.952686   4.837948   1.371504
    11  C    5.946262   4.843953   3.019698   5.217159   2.367346
    12  C    7.160433   5.973325   4.227083   6.127154   2.718552
    13  C    7.440103   6.141635   4.610171   5.985394   2.368460
    14  H    7.094410   5.730329   4.728206   5.114008   2.152713
    15  H    6.061900   5.135423   3.297365   5.748525   3.357871
    16  H    8.063263   6.933251   5.140225   7.166981   3.798971
    17  C    2.405888   2.725323   4.598284   2.359289   5.975739
    18  H    1.082532   2.154608   3.290931   3.366573   5.737776
    19  H    3.104841   2.449172   1.345388   3.479343   3.479555
    20  H    2.138428   3.344807   5.145166   3.807761   7.166726
    21  H    3.879372   3.365736   4.737243   2.154539   5.130220
    22  H    3.380967   3.806701   5.675312   3.345291   6.935138
    23  S    3.957504   2.607172   2.334392   1.912090   1.908095
    24  N    8.803069   7.490891   6.006202   7.235503   3.659664
    25  C    9.694225   8.441656   6.902569   8.299439   4.755885
    26  C   10.946328   9.690081   8.074521   9.564937   5.965183
    27  C    9.524740   8.356377   6.905963   8.295669   4.981263
    28  C   11.914956  10.709065   9.081979  10.656453   7.103871
    29  C   10.614676   9.511441   8.050915   9.529441   6.296345
    30  C   11.766387  10.631719   9.074134  10.644700   7.249979
    31  H   11.256721   9.966790   8.332984   9.790701   6.172767
    32  H    8.650076   7.512048   6.184421   7.446536   4.350482
    33  H   12.896568  11.684847  10.018746  11.635385   8.048048
    34  H   10.670189   9.650278   8.289009   9.723569   6.730726
    35  C    9.457586   8.099168   6.756109   7.645519   4.247661
    36  C   10.417267   9.062323   7.861660   8.492605   5.283819
    37  C    9.400809   8.035550   6.708849   7.544316   4.328845
    38  C   11.241299   9.874829   8.785130   9.177404   6.198629
    39  C   10.284096   8.919577   7.751128   8.283775   5.388547
    40  C   11.179180   9.809074   8.736825   9.079863   6.244584
    41  H   10.665622   9.342688   8.163575   8.811557   5.624380
    42  H    8.815260   7.474750   6.048164   7.102054   3.898462
    43  H   12.061068  10.706459   9.694041   9.956844   7.092779
    44  H   10.443801   9.105485   7.984405   8.459859   5.809534
    45  O   12.142104  10.786255   9.823790   9.969535   7.389532
    46  H   12.750141  11.395227  10.474230  10.542971   7.979325
    47  O   12.901466  11.815138  10.261254  11.880152   8.546287
    48  H   12.817145  11.787954  10.302615  11.890890   8.706514
                    6          7          8          9         10
     6  C    0.000000
     7  C    5.965630   0.000000
     8  C    5.214426   2.405982   0.000000
     9  H    3.471777   5.093747   3.114122   0.000000
    10  C    2.385758   7.420112   5.940572   3.098140   0.000000
    11  C    1.375227   7.160980   6.569600   4.710166   2.790015
    12  C    2.365489   8.301639   7.426176   5.085322   2.405180
    13  C    2.751724   8.429499   7.172048   4.438631   1.392740
    14  H    3.370761   7.795389   6.039436   2.988455   1.081667
    15  H    2.154913   7.365347   7.113559   5.600760   3.872510
    16  H    3.349878   9.250390   8.477659   6.152780   3.379307
    17  C    6.121879   1.383846   1.384917   4.440880   7.155102
    18  H    5.114337   2.146433   3.879396   5.603161   7.099219
    19  H    2.446643   4.434858   4.723778   4.514734   4.725399
    20  H    6.923830   1.081430   3.381057   6.160448   8.470355
    21  H    5.738838   3.387160   1.082510   3.013292   6.046222
    22  H    7.161457   2.136071   2.138372   5.188551   8.056238
    23  S    2.600768   4.598023   3.024504   1.344824   3.011058
    24  N    4.152951   9.746619   8.349157   5.431251   2.425613
    25  C    5.011847  10.689657   9.437051   6.572253   3.644988
    26  C    6.175326  11.973676  10.716637   7.829803   4.826797
    27  C    5.093867  10.514284   9.414946   6.686494   4.069799
    28  C    7.194205  12.970101  11.817776   8.972878   6.028917
    29  C    6.280974  11.629193  10.649063   7.995773   5.441455
    30  C    7.242755  12.815349  11.791732   9.051387   6.290896
    31  H    6.459149  12.273918  10.932547   8.024934   4.994416
    32  H    4.473599   9.598198   8.532612   5.901187   3.601023
    33  H    8.130772  13.968266  12.804580   9.940824   6.953253
    34  H    6.635892  11.662453  10.808219   8.306153   6.014049
    35  C    5.027679  10.289501   8.639749   5.611062   2.902059
    36  C    6.166798  11.154938   9.369545   6.264369   3.914862
    37  C    5.144642  10.212170   8.515566   5.631351   3.155022
    38  C    7.198589  11.886925   9.940765   6.874485   4.870614
    39  C    6.328417  10.983307   9.115291   6.279020   4.266636
    40  C    7.270523  11.805162   9.819201   6.879066   5.017817
    41  H    6.434195  11.404834   9.683459   6.580917   4.283493
    42  H    4.548907   9.696962   8.151998   5.462299   2.953529
    43  H    8.119098  12.650328  10.646755   7.585622   5.768596
    44  H    6.719546  11.114447   9.250049   6.614799   4.855390
    45  O    8.464477  12.681642  10.596290   7.776778   6.231707
    46  H    9.081290  13.255616  11.126380   8.263745   6.775995
    47  O    8.467343  13.964367  13.025758  10.336047   7.627172
    48  H    8.576919  13.863411  13.013879  10.422478   7.872142
                   11         12         13         14         15
    11  C    0.000000
    12  C    1.380618   0.000000
    13  C    2.415543   1.393262   0.000000
    14  H    3.871677   3.386376   2.146722   0.000000
    15  H    1.082651   2.135087   3.391614   4.954140   0.000000
    16  H    2.135827   1.080453   2.136986   4.272032   2.455741
    17  C    7.425557   8.416308   8.313702   7.342465   7.816853
    18  H    6.051544   7.353538   7.821403   7.744401   5.972142
    19  H    3.118423   4.446558   5.117906   5.606122   3.022282
    20  H    8.062333   9.248430   9.443536   8.866517   8.176408
    21  H    7.103928   7.807458   7.364174   5.949761   7.762204
    22  H    8.475862   9.430323   9.259882   8.152691   8.888239
    23  S    3.948065   4.587936   4.234382   3.278508   4.732297
    24  N    3.691550   2.421806   1.401305   2.655370   4.555601
    25  C    4.263395   2.913354   2.443266   3.943839   4.917891
    26  C    5.312373   3.939711   3.598952   5.053863   5.847034
    27  C    4.318343   3.161772   2.978669   4.463731   4.859397
    28  C    6.213951   4.897071   4.764352   6.294145   6.598371
    29  C    5.375443   4.284619   4.311700   5.835287   5.724096
    30  C    6.242775   5.042396   5.056585   6.630376   6.544461
    31  H    5.661944   4.303348   3.855081   5.131662   6.232031
    32  H    3.874184   2.948371   2.759795   4.044101   4.472327
    33  H    7.117092   5.802557   5.686880   7.182727   7.453238
    34  H    5.766168   4.855687   4.990698   6.439720   6.024829
    35  C    4.811371   3.653960   2.442328   2.622708   5.741126
    36  C    5.998090   4.818714   3.584748   3.388809   6.934592
    37  C    5.071098   4.100771   2.990040   2.829931   5.991800
    38  C    7.152587   6.030534   4.755082   4.152897   8.116596
    39  C    6.383488   5.465837   4.314462   3.691290   7.317277
    40  C    7.321189   6.305054   5.053006   4.280107   8.287059
    41  H    6.186565   4.977514   3.840191   3.845571   7.079848
    42  H    4.459099   3.644777   2.779564   2.926325   5.318062
    43  H    8.079378   6.939873   5.666266   5.002953   9.042572
    44  H    6.850945   6.063580   5.011982   4.321921   7.747567
    45  O    8.591648   7.621598   6.371405   5.424768   9.561015
    46  H    9.193215   8.173354   6.890834   5.924838  10.174469
    47  O    7.413176   6.279388   6.390573   7.972974   7.601712
    48  H    7.544363   6.511760   6.687837   8.251151   7.685770
                   16         17         18         19         20
    16  H    0.000000
    17  C    9.431872   0.000000
    18  H    8.165916   3.387230   0.000000
    19  H    5.195093   5.092964   2.997160   0.000000
    20  H   10.164653   2.136113   2.469000   5.180184   0.000000
    21  H    8.879648   2.146228   4.961790   5.609722   4.273353
    22  H   10.456038   1.081430   4.273482   6.159988   2.452150
    23  S    5.663888   4.232987   4.734186   3.515769   5.674963
    24  N    2.633609   9.546912   9.210404   6.501718  10.772850
    25  C    2.634339  10.575138  10.012040   7.170007  11.679614
    26  C    3.405757  11.870381  11.230123   8.344014  12.965520
    27  C    2.863336  10.465209   9.793354   6.956472  11.455441
    28  C    4.184728  12.925995  12.135085   9.197009  13.930589
    29  C    3.740840  11.644709  10.807694   7.946271  12.529290
    30  C    4.326589  12.826837  11.943344   9.020351  13.732090
    31  H    3.843064  12.128019  11.569172   8.732337  13.287323
    32  H    2.954546   9.546006   8.943304   6.196773  10.525388
    33  H    5.035060  13.926289  13.101339  10.148670  14.932254
    34  H    4.365399  11.725150  10.823262   8.039859  12.512748
    35  C    3.939920   9.927226   9.974290   7.453573  11.349850
    36  C    5.037238  10.685245  10.994524   8.540162  12.218441
    37  C    4.480644   9.820383   9.939288   7.577658  11.279840
    38  C    6.288507  11.299020  11.889226   9.587989  12.963055
    39  C    5.848658  10.460075  10.899639   8.724000  12.058756
    40  C    6.636161  11.190673  11.845472   9.672046  12.886494
    41  H    5.106889  10.962699  11.218546   8.709504  12.448249
    42  H    4.069291   9.405411   9.290903   6.933389  10.747055
    43  H    7.161895  12.005815  12.737494  10.470168  13.721007
    44  H    6.477225  10.578165  11.063789   9.040410  12.178143
    45  O    7.964354  11.976298  12.857298  10.831352  13.758978
    46  H    8.485220  12.511107  13.485779  11.446038  14.332385
    47  O    5.491477  14.021311  13.025361  10.104333  14.849474
    48  H    5.764312  13.953775  12.914598  10.046048  14.712897
                   21         22         23         24         25
    21  H    0.000000
    22  H    2.468628   0.000000
    23  S    3.295219   5.147154   0.000000
    24  N    8.427692  10.451194   5.432301   0.000000
    25  C    9.566579  11.493435   6.591576   1.411729   0.000000
    26  C   10.830347  12.796143   7.807248   2.428612   1.386458
    27  C    9.603491  11.375572   6.770857   2.431748   1.381908
    28  C   11.965668  13.857793   8.968970   3.691686   2.402580
    29  C   10.867852  12.554838   8.080358   3.696079   2.400608
    30  C   11.987936  13.751122   9.094034   4.191001   2.779316
    31  H   11.004237  13.047802   7.959918   2.642636   2.133464
    32  H    8.741137  10.440978   6.037482   2.653963   2.131961
    33  H   12.940644  14.862652   9.913916   4.568008   3.385824
    34  H   11.063850  12.616188   8.427913   4.563911   3.377367
    35  C    8.557823  10.762980   5.765074   1.411843   2.430932
    36  C    9.171098  11.450491   6.665548   2.428022   2.937907
    37  C    8.405920  10.645562   5.634141   2.432660   3.594466
    38  C    9.617180  11.995308   7.356837   3.694053   4.267888
    39  C    8.864805  11.204140   6.413921   3.693925   4.746252
    40  C    9.468955  11.875313   7.243093   4.191143   5.022636
    41  H    9.508248  11.723301   7.061691   2.647853   2.709178
    42  H    8.146344  10.277694   5.212861   2.650118   3.868702
    43  H   10.260446  12.653377   8.190990   4.560633   4.938295
    44  H    8.983763  11.300157   6.643328   4.571158   5.673435
    45  O   10.147021  12.589330   8.194304   5.547393   6.353337
    46  H   10.634641  13.092937   8.792798   5.971362   6.644299
    47  O   13.243316  14.944294  10.383830   5.547308   4.135823
    48  H   13.259342  14.863538  10.498218   5.972026   4.576833
                   26         27         28         29         30
    26  C    0.000000
    27  C    2.379674   0.000000
    28  C    1.374509   2.754121   0.000000
    29  C    2.750446   1.379303   2.386670   0.000000
    30  C    2.387361   2.391354   1.381843   1.380281   0.000000
    31  H    1.080935   3.358508   2.130112   3.831371   3.366723
    32  H    3.360830   1.080852   3.834955   2.133652   3.369289
    33  H    2.141397   3.834182   1.080133   3.360067   2.126441
    34  H    3.833326   2.133971   3.371235   1.082902   2.140476
    35  C    2.959805   3.572969   4.278337   4.731749   5.019947
    36  C    3.260898   3.887739   4.355628   4.857262   5.053905
    37  C    3.939287   4.808036   5.297543   5.978651   6.186711
    38  C    4.372385   5.252592   5.402063   6.152683   6.218336
    39  C    4.908890   5.965822   6.198039   7.074686   7.177530
    40  C    5.092016   6.156033   6.245170   7.153490   7.194271
    41  H    3.084676   3.352706   3.938331   4.168449   4.417963
    42  H    4.266988   5.049303   5.631493   6.247860   6.497618
    43  H    4.961527   5.781022   5.803598   6.537089   6.547036
    44  H    5.794101   6.917357   7.087671   8.040905   8.118804
    45  O    6.327075   7.480718   7.411418   8.433200   8.404271
    46  H    6.579125   7.690455   7.554718   8.557494   8.497641
    47  O    3.608068   3.650196   2.345186   2.402101   1.357311
    48  H    4.294829   3.814319   3.150817   2.445278   1.910432
                   31         32         33         34         35
    31  H    0.000000
    32  H    4.252287   0.000000
    33  H    2.469223   4.915000   0.000000
    34  H    4.914248   2.452471   4.256175   0.000000
    35  C    2.747661   3.839746   4.971603   5.644741   0.000000
    36  C    3.114555   4.210996   4.971308   5.727784   1.381362
    37  C    3.421833   5.033812   5.855264   6.914254   1.387132
    38  C    3.990352   5.575805   5.836453   7.024335   2.400725
    39  C    4.248071   6.216043   6.620519   8.022767   2.402453
    40  C    4.491250   6.449829   6.613029   8.075338   2.779350
    41  H    3.254304   3.699557   4.624302   4.958798   2.131366
    42  H    3.761643   5.218590   6.200117   7.164640   2.134841
    43  H    4.655904   6.117784   6.167043   7.347008   3.377301
    44  H    5.049745   7.147034   7.450439   8.999061   3.385671
    45  O    5.655665   7.778024   7.671327   9.351678   4.135732
    46  H    5.974774   8.004569   7.783044   9.440355   4.577035
    47  O    4.473644   4.530675   2.550306   2.665732   6.334663
    48  H    5.243212   4.526733   3.487899   2.293257   6.856687
                   36         37         38         39         40
    36  C    0.000000
    37  C    2.379770   0.000000
    38  C    1.379793   2.750698   0.000000
    39  C    2.753851   1.373962   2.386591   0.000000
    40  C    2.391160   2.387583   1.379644   1.382430   0.000000
    41  H    1.080820   3.360949   2.133990   3.834667   3.368960
    42  H    3.358989   1.080945   3.831617   2.129088   3.366633
    43  H    2.134360   3.833540   1.082869   3.371310   2.139988
    44  H    3.833902   2.140615   3.359946   1.080123   2.127061
    45  O    3.650267   3.607753   2.401833   2.345230   1.357211
    46  H    3.814828   4.294848   2.445338   3.151015   1.910300
    47  O    6.268909   7.488380   7.352459   8.426064   8.368364
    48  H    6.787771   8.067955   7.924849   9.053234   8.992741
                   41         42         43         44         45
    41  H    0.000000
    42  H    4.252971   0.000000
    43  H    2.452773   4.914448   0.000000
    44  H    4.914705   2.467399   4.256270   0.000000
    45  O    4.530735   4.472688   2.665826   2.550400   0.000000
    46  H    4.527251   5.242668   2.293678   3.488045   0.956707
    47  O    5.570768   7.807123   7.568616   9.361659   9.520124
    48  H    6.013689   8.371491   8.118559  10.012915  10.171336
                   46         47         48
    46  H    0.000000
    47  O    9.546649   0.000000
    48  H   10.181430   0.956708   0.000000
 Stoichiometry    C24H19NO2S2(1+,2)
 Framework group  C1[X(C24H19NO2S2)]
 Deg. of freedom   138
 Full point group                 C1      NOp   1
 Largest Abelian subgroup         C1      NOp   1
 Largest concise Abelian subgroup C1      NOp   1
                         Standard orientation:                         
 ---------------------------------------------------------------------
 Center     Atomic      Atomic             Coordinates (Angstroms)
 Number     Number       Type             X           Y           Z
 ---------------------------------------------------------------------
      1          6           0        6.544630   -1.193879   -0.127010
      2          6           0        5.283469   -0.647909   -0.131523
      3         16           0        3.665919   -1.107322   -1.042984
      4          6           0        4.996815    0.486583    0.537830
      5          6           0        1.475687    0.036886   -0.221747
      6          6           0        1.772288   -1.094442   -0.892846
      7          6           0        7.517398   -0.549399    0.618903
      8          6           0        5.951198    1.159916    1.262339
      9          1           0        2.843406    1.345523    1.332578
     10          6           0        0.186077    0.430997    0.028463
     11          6           0        0.773630   -1.912541   -1.366813
     12          6           0       -0.536910   -1.552052   -1.124661
     13          6           0       -0.845585   -0.387156   -0.425435
     14          1           0       -0.045427    1.339810    0.567415
     15          1           0        0.986976   -2.816418   -1.923251
     16          1           0       -1.342687   -2.175375   -1.484620
     17          6           0        7.223748    0.615229    1.306247
     18          1           0        6.782458   -2.097666   -0.673346
     19          1           0        3.815781   -2.439410   -0.928305
     20          1           0        8.517553   -0.958288    0.663525
     21          1           0        5.730059    2.077989    1.791552
     22          1           0        7.997253    1.105431    1.881471
     23         16           0        3.166075    0.851646    0.124057
     24          7           0       -2.182887   -0.044483   -0.184905
     25          6           0       -3.146505   -1.044921    0.067172
     26          6           0       -4.392012   -0.989098   -0.539344
     27          6           0       -2.878694   -2.090316    0.930362
     28          6           0       -5.345494   -1.946131   -0.285899
     29          6           0       -3.822608   -3.066997    1.170354
     30          6           0       -5.062274   -2.995295    0.567641
     31          1           0       -4.612943   -0.174890   -1.215121
     32          1           0       -1.913696   -2.145516    1.414069
     33          1           0       -6.317156   -1.901598   -0.755555
     34          1           0       -3.591387   -3.881585    1.845380
     35          6           0       -2.575405    1.310294   -0.123192
     36          6           0       -3.391681    1.763268    0.894977
     37          6           0       -2.164040    2.211964   -1.093710
     38          6           0       -3.796835    3.081396    0.942072
     39          6           0       -2.544098    3.531176   -1.038879
     40          6           0       -3.368807    3.972023   -0.020733
     41          1           0       -3.723839    1.071840    1.656403
     42          1           0       -1.529535    1.868488   -1.898614
     43          1           0       -4.442764    3.415230    1.744528
     44          1           0       -2.220724    4.234697   -1.791974
     45          8           0       -3.726245    5.281320   -0.019257
     46          1           0       -4.294203    5.466041    0.728132
     47          8           0       -6.032969   -3.920806    0.776143
     48          1           0       -5.721078   -4.593785    1.380389
 ---------------------------------------------------------------------
 Rotational constants (GHZ):           0.2280536           0.0702108           0.0568934
 Leave Link  202 at Mon Jan 18 14:17:06 2021, MaxMem=  4026531840 cpu:               0.1 elap:               0.0
 (Enter /opt/ohpc/pub/libs/gaussian/g16-A.03/sandybridge/g16/l301.exe)
 Standard basis: TZVP (5D, 7F)
 Ernie: Thresh=  0.10000D-02 Tol=  0.10000D-05 Strict=F.
 There are   700 symmetry adapted cartesian basis functions of A   symmetry.
 There are   671 symmetry adapted basis functions of A   symmetry.
   671 basis functions,  1191 primitive gaussians,   700 cartesian basis functions
   109 alpha electrons      108 beta electrons
       nuclear repulsion energy      2827.2462800785 Hartrees.
 IExCor=33909 DFT=T Ex+Corr=LC-wHPBE ExCW=0 ScaHFX=  1.000000
 ScaDFX=  1.000000  1.000000  1.000000  1.000000 ScalE2=  1.000000  1.000000
 IRadAn=      5 IRanWt=     -1 IRanGd=            0 ICorTp=0 IEmpDi=  4
 HFx  wShort=  0.000000 wLong=  0.183600 cFull=  0.000000 cShort=  0.000000 cLong=  1.000000
 DFx  wShort=  0.000000 wLong=  0.183600 cFull=  0.000000 cShort=  1.000000 cLong=  0.000000
 NAtoms=   48 NActive=   48 NUniq=   48 SFac= 1.00D+00 NAtFMM=   60 NAOKFM=F Big=F
 Integral buffers will be    131072 words long.
 Raffenetti 2 integral format.
 Two-electron integral symmetry is turned on.
 Leave Link  301 at Mon Jan 18 14:17:07 2021, MaxMem=  4026531840 cpu:               0.4 elap:               0.1
 (Enter /opt/ohpc/pub/libs/gaussian/g16-A.03/sandybridge/g16/l302.exe)
 NPDir=0 NMtPBC=     1 NCelOv=     1 NCel=       1 NClECP=     1 NCelD=      1
         NCelK=      1 NCelE2=     1 NClLst=     1 CellRange=     0.0.
 One-electron integrals computed using PRISM.
 One-electron integral symmetry used in STVInt
 NBasis=   671 RedAO= T EigKep=  6.34D-06  NBF=   671
 NBsUse=   671 1.00D-06 EigRej= -1.00D+00 NBFU=   671
 Precomputing XC quadrature grid using
 IXCGrd= 4 IRadAn=           5 IRanWt=          -1 IRanGd=           0 AccXCQ= 0.00D+00.
 Generated NRdTot=       0 NPtTot=           0 NUsed=           0 NTot=          32
 NSgBfM=   657   657   657   657   657 MxSgAt=    48 MxSgA2=    48.
 Leave Link  302 at Mon Jan 18 14:17:08 2021, MaxMem=  4026531840 cpu:               8.9 elap:               1.1
 (Enter /opt/ohpc/pub/libs/gaussian/g16-A.03/sandybridge/g16/l303.exe)
 DipDrv:  MaxL=1.
 Leave Link  303 at Mon Jan 18 14:17:08 2021, MaxMem=  4026531840 cpu:               0.9 elap:               0.2
 (Enter /opt/ohpc/pub/libs/gaussian/g16-A.03/sandybridge/g16/l401.exe)
 ExpMin= 9.52D-02 ExpMax= 6.07D+04 ExpMxC= 2.07D+03 IAcc=3 IRadAn=         5 AccDes= 0.00D+00
 Harris functional with IExCor=33909 and IRadAn=       5 diagonalized for initial guess.
 HarFok:  IExCor=33909 AccDes= 0.00D+00 IRadAn=         5 IDoV= 1 UseB2=F ITyADJ=14
 ICtDFT=  3500011 ScaDFX=  1.000000  1.000000  1.000000  1.000000
 FoFCou: FMM=F IPFlag=           0 FMFlag=      100000 FMFlg1=           0
         NFxFlg=           0 DoJE=T BraDBF=F KetDBF=T FulRan=T
         wScrn=  0.000000 ICntrl=       500 IOpCl=  0 I1Cent=   200000004 NGrid=           0
         NMat0=    1 NMatS0=      1 NMatT0=    0 NMatD0=    1 NMtDS0=    0 NMtDT0=    0
 Petite list used in FoFCou.
 Harris En= -1904.82003535346    
 JPrj=0 DoOrth=F DoCkMO=F.
 Initial guess <Sx>= 0.0000 <Sy>= 0.0000 <Sz>= 0.5000 <S**2>= 0.7500 S= 0.5000
 Leave Link  401 at Mon Jan 18 14:17:15 2021, MaxMem=  4026531840 cpu:              50.4 elap:               6.4
 (Enter /opt/ohpc/pub/libs/gaussian/g16-A.03/sandybridge/g16/l502.exe)
 Integral symmetry usage will be decided dynamically.
 UHF open shell SCF:
 Using DIIS extrapolation, IDIIS=    10.
 NGot=  4026531840 LenX=  4025539370 LenY=  4025048670
 Requested convergence on RMS density matrix=1.00D-06 within  32 cycles.
 Requested convergence on MAX density matrix=1.00D-04.
 Requested convergence on             energy=1.00D-04.
 Virtual orbitals will be shifted by   0.500 hartree.
 No special actions if energy rises.
 Dynamic level shift is on during FON iterations.

 Cycle   1  Pass 1  IDiag  1:
 FoFJK:  IHMeth= 1 ICntrl=       0 DoSepK=T KAlg= 0 I1Cent=           0 FoldK=F
 IRaf=         1 NMat=       1 IRICut=       1 DoRegI=T DoRafI=F ISym2E= 0 IDoP0=0 IntGTp=1.
 FoFCou: FMM=F IPFlag=           0 FMFlag=      100000 FMFlg1=           0
         NFxFlg=           0 DoJE=T BraDBF=F KetDBF=F FulRan=T
         wScrn=  0.000000 ICntrl=       500 IOpCl=  0 I1Cent=           0 NGrid=           0
         NMat0=    1 NMatS0=      1 NMatT0=    0 NMatD0=    1 NMtDS0=    0 NMtDT0=    0
 Symmetry not used in FoFCou.
 E= -1925.53709117436    
 DIIS: error= 1.96D-02 at cycle   1 NSaved=   1.
 NSaved= 1 IEnMin= 1 EnMin= -1925.53709117436     IErMin= 1 ErrMin= 1.96D-02
 ErrMax= 1.96D-02  0.00D+00 EMaxC= 1.00D+00 BMatC= 2.68D+00 BMatP= 2.68D+00
 IDIUse=1 WtCom= 1.00D+00 WtEn= 0.00D+00
 Coeff-Com:  0.100D+01
 Coeff:      0.100D+01
 Gap=     0.517 Goal=   None    Shift=    0.500
 T= 1241. Gap= 0.527 NK=0 IS=  110 IE=  671 IFin=  109
          NO(<0.9)=   0  NV(>0.1)=   0    109.00e < EF      0.00e >EF  Err=0.0D+00
 Gap=    -0.017 Goal=   None    Shift=    0.500
 T= 1241. Gap= 0.417 NK=0 IS=  109 IE=  671 IFin=  108
          NO(<0.9)=   0  NV(>0.1)=   0    108.00e < EF      0.00e >EF  Err=0.0D+00
 GapD=   -0.017 DampG=0.250 DampE=0.500 DampFc=0.1250 IDamp=-1.
 Damping current iteration by 1.25D-01
 RMSDP=4.22D-03 MaxDP=3.79D-01              OVMax= 1.05D-01

 Cycle   2  Pass 1  IDiag  1:
 E= -1925.66632840010     Delta-E=       -0.129237225747 Rises=F Damp=T
 DIIS: error= 1.69D-02 at cycle   2 NSaved=   2.
 NSaved= 2 IEnMin= 2 EnMin= -1925.66632840010     IErMin= 2 ErrMin= 1.69D-02
 ErrMax= 1.69D-02  0.00D+00 EMaxC= 1.00D+00 BMatC= 1.86D+00 BMatP= 2.68D+00
 IDIUse=1 WtCom= 1.00D+00 WtEn= 0.00D+00
 Coeff-Com: -0.479D+01 0.579D+01
 Coeff:     -0.479D+01 0.579D+01
 Gap=     0.215 Goal=   None    Shift=    0.500
 T= 1213. Gap= 0.689 NK=4 IS=  110 IE=  120 IFin=  109
          NO(<0.9)=   0  NV(>0.1)=   0    109.00e < EF      0.00e >EF  Err=0.0D+00
 Gap=     0.078 Goal=   None    Shift=    0.500
 T= 1213. Gap= 0.559 NK=4 IS=  109 IE=  120 IFin=  108
          NO(<0.9)=   0  NV(>0.1)=   0    108.00e < EF      0.00e >EF  Err=0.0D+00
 GapD=    0.078 DampG=0.500 DampE=0.500 DampFc=0.2500 IDamp=-1.
 Damping current iteration by 2.50D-01
 RMSDP=3.45D-03 MaxDP=3.26D-01 DE=-1.29D-01 OVMax= 2.68D-02

 Cycle   3  Pass 1  IDiag  1:
 E= -1925.84753862376     Delta-E=       -0.181210223656 Rises=F Damp=T
 DIIS: error= 1.23D-02 at cycle   3 NSaved=   3.
 NSaved= 3 IEnMin= 3 EnMin= -1925.84753862376     IErMin= 3 ErrMin= 1.23D-02
 ErrMax= 1.23D-02  0.00D+00 EMaxC= 1.00D+00 BMatC= 9.62D-01 BMatP= 1.86D+00
 IDIUse=1 WtCom= 1.00D+00 WtEn= 0.00D+00
 Coeff-Com:  0.125D+00-0.273D+01 0.361D+01
 Coeff:      0.125D+00-0.273D+01 0.361D+01
 Gap=     0.218 Goal=   None    Shift=    0.500
 T= 1129. Gap= 0.717 NK=4 IS=  110 IE=  121 IFin=  109
          NO(<0.9)=   0  NV(>0.1)=   0    109.00e < EF      0.00e >EF  Err=0.0D+00
 Gap=     0.083 Goal=   None    Shift=    0.500
 T= 1129. Gap= 0.582 NK=4 IS=  109 IE=  121 IFin=  108
          NO(<0.9)=   0  NV(>0.1)=   0    108.00e < EF      0.00e >EF  Err=0.0D+00
 GapD=    0.083 DampG=0.500 DampE=0.500 DampFc=0.2500 IDamp=-1.
 Damping current iteration by 2.50D-01
 RMSDP=2.43D-03 MaxDP=2.15D-01 DE=-1.81D-01 OVMax= 1.46D-02

 Cycle   4  Pass 1  IDiag  1:
 E= -1925.95687857829     Delta-E=       -0.109339954528 Rises=F Damp=T
 DIIS: error= 9.24D-03 at cycle   4 NSaved=   4.
 NSaved= 4 IEnMin= 4 EnMin= -1925.95687857829     IErMin= 4 ErrMin= 9.24D-03
 ErrMax= 9.24D-03  0.00D+00 EMaxC= 1.00D+00 BMatC= 5.19D-01 BMatP= 9.62D-01
 IDIUse=1 WtCom= 1.00D+00 WtEn= 0.00D+00
 Coeff-Com:  0.498D+00-0.728D+00-0.270D+01 0.393D+01
 Coeff:      0.498D+00-0.728D+00-0.270D+01 0.393D+01
 Gap=     0.219 Goal=   None    Shift=    0.500
 T=  985. Gap= 0.719 NK=4 IS=  110 IE=  121 IFin=  109
          NO(<0.9)=   0  NV(>0.1)=   0    109.00e < EF      0.00e >EF  Err=0.0D+00
 Gap=     0.084 Goal=   None    Shift=    0.500
 T=  985. Gap= 0.584 NK=4 IS=  109 IE=  121 IFin=  108
          NO(<0.9)=   0  NV(>0.1)=   0    108.00e < EF      0.00e >EF  Err=0.0D+00
 GapD=    0.084 DampG=0.500 DampE=1.000 DampFc=0.5000 IDamp=-1.
 Damping current iteration by 5.00D-01
 RMSDP=1.73D-03 MaxDP=1.37D-01 DE=-1.09D-01 OVMax= 1.32D-02

 Cycle   5  Pass 1  IDiag  1:
 E= -1926.09059077951     Delta-E=       -0.133712201221 Rises=F Damp=T
 DIIS: error= 4.78D-03 at cycle   5 NSaved=   5.
 NSaved= 5 IEnMin= 5 EnMin= -1926.09059077951     IErMin= 5 ErrMin= 4.78D-03
 ErrMax= 4.78D-03  0.00D+00 EMaxC= 1.00D+00 BMatC= 1.24D-01 BMatP= 5.19D-01
 IDIUse=1 WtCom= 1.00D+00 WtEn= 0.00D+00
 Coeff-Com:  0.531D-01 0.322D+00-0.658D+00-0.901D+00 0.218D+01
 Coeff:      0.531D-01 0.322D+00-0.658D+00-0.901D+00 0.218D+01
 Gap=     0.221 Goal=   None    Shift=    0.500
 T=  758. Gap= 0.721 NK=4 IS=  110 IE=  121 IFin=  109
          NO(<0.9)=   0  NV(>0.1)=   0    109.00e < EF      0.00e >EF  Err=0.0D+00
 Gap=     0.086 Goal=   None    Shift=    0.500
 T=  758. Gap= 0.586 NK=4 IS=  109 IE=  121 IFin=  108
          NO(<0.9)=   0  NV(>0.1)=   0    108.00e < EF      0.00e >EF  Err=0.0D+00
 GapD=    0.086 DampG=0.500 DampE=1.000 DampFc=0.5000 IDamp=-1.
 Damping current iteration by 5.00D-01
 RMSDP=8.46D-04 MaxDP=5.93D-02 DE=-1.34D-01 OVMax= 1.28D-02

 Cycle   6  Pass 1  IDiag  1:
 E= -1926.14586418988     Delta-E=       -0.055273410368 Rises=F Damp=T
 DIIS: error= 2.59D-03 at cycle   6 NSaved=   6.
 NSaved= 6 IEnMin= 6 EnMin= -1926.14586418988     IErMin= 6 ErrMin= 2.59D-03
 ErrMax= 2.59D-03  0.00D+00 EMaxC= 1.00D+00 BMatC= 3.07D-02 BMatP= 1.24D-01
 IDIUse=1 WtCom= 1.00D+00 WtEn= 0.00D+00
 Coeff-Com: -0.585D-01 0.185D+00 0.978D-01-0.127D+00-0.179D+01 0.269D+01
 Coeff:     -0.585D-01 0.185D+00 0.978D-01-0.127D+00-0.179D+01 0.269D+01
 Gap=     0.224 Goal=   None    Shift=    0.500
 T=  482. Gap= 0.724 NK=4 IS=  110 IE=  121 IFin=  109
          NO(<0.9)=   0  NV(>0.1)=   0    109.00e < EF      0.00e >EF  Err=0.0D+00
 Gap=     0.088 Goal=   None    Shift=    0.500
 T=  482. Gap= 0.588 NK=4 IS=  109 IE=  121 IFin=  108
          NO(<0.9)=   0  NV(>0.1)=   0    108.00e < EF      0.00e >EF  Err=0.0D+00
 GapD=    0.088 DampG=0.500 DampE=1.000 DampFc=0.5000 IDamp=-1.
 Damping current iteration by 5.00D-01
 RMSDP=4.35D-04 MaxDP=2.80D-02 DE=-5.53D-02 OVMax= 1.24D-02

 Cycle   7  Pass 1  IDiag  1:
 E= -1926.17105438012     Delta-E=       -0.025190190241 Rises=F Damp=T
 DIIS: error= 1.92D-03 at cycle   7 NSaved=   7.
 NSaved= 7 IEnMin= 7 EnMin= -1926.17105438012     IErMin= 7 ErrMin= 1.92D-03
 ErrMax= 1.92D-03  0.00D+00 EMaxC= 1.00D+00 BMatC= 7.83D-03 BMatP= 3.07D-02
 IDIUse=1 WtCom= 1.00D+00 WtEn= 0.00D+00
 Coeff-Com: -0.137D-01-0.106D+00 0.274D+00 0.356D+00-0.706D+00-0.242D+01
 Coeff-Com:  0.362D+01
 Coeff:     -0.137D-01-0.106D+00 0.274D+00 0.356D+00-0.706D+00-0.242D+01
 Coeff:      0.362D+01
 Gap=     0.226 Goal=   None    Shift=    0.500
 T=  134. Gap= 0.726 NK=4 IS=  110 IE=  121 IFin=  109
          NO(<0.9)=   0  NV(>0.1)=   0    109.00e < EF      0.00e >EF  Err=0.0D+00
 Gap=     0.088 Goal=   None    Shift=    0.500
 T=  134. Gap= 0.589 NK=4 IS=  109 IE=  121 IFin=  108
          NO(<0.9)=   0  NV(>0.1)=   0    108.00e < EF      0.00e >EF  Err=0.0D+00
 GapD=    0.088 DampG=0.500 DampE=1.000 DampFc=0.5000 IDamp=-1.
 Damping current iteration by 5.00D-01
 RMSDP=2.54D-04 MaxDP=1.45D-02 DE=-2.52D-02 OVMax= 1.39D-02

 Cycle   8  Pass 1  IDiag  1:
 E= -1926.18322818137     Delta-E=       -0.012173801249 Rises=F Damp=T
 DIIS: error= 1.79D-03 at cycle   8 NSaved=   8.
 NSaved= 8 IEnMin= 8 EnMin= -1926.18322818137     IErMin= 8 ErrMin= 1.79D-03
 ErrMax= 1.79D-03  0.00D+00 EMaxC= 1.00D+00 BMatC= 2.14D-03 BMatP= 7.83D-03
 IDIUse=1 WtCom= 1.00D+00 WtEn= 0.00D+00
 Coeff-Com:  0.192D-01-0.126D+00 0.113D+00 0.152D+00 0.671D+00-0.236D+01
 Coeff-Com: -0.370D+00 0.290D+01
 Coeff:      0.192D-01-0.126D+00 0.113D+00 0.152D+00 0.671D+00-0.236D+01
 Coeff:     -0.370D+00 0.290D+01
 Gap=     0.228 Goal=   None    Shift=    0.500
 Gap=     0.090 Goal=   None    Shift=    0.500
 GapD=    0.090 DampG=0.500 DampE=1.000 DampFc=0.5000 IDamp=-1.
 Damping current iteration by 5.00D-01
 RMSDP=1.78D-04 MaxDP=1.24D-02 DE=-1.22D-02 OVMax= 1.41D-02

 Cycle   9  Pass 1  IDiag  1:
 E= -1926.18934843671     Delta-E=       -0.006120255346 Rises=F Damp=T
 DIIS: error= 1.71D-03 at cycle   9 NSaved=   9.
 NSaved= 9 IEnMin= 9 EnMin= -1926.18934843671     IErMin= 9 ErrMin= 1.71D-03
 ErrMax= 1.71D-03  0.00D+00 EMaxC= 1.00D+00 BMatC= 6.78D-04 BMatP= 2.14D-03
 IDIUse=1 WtCom= 1.00D+00 WtEn= 0.00D+00
 Coeff-Com: -0.329D-03-0.760D-02 0.114D-01-0.610D-01 0.434D+00-0.367D+00
 Coeff-Com: -0.554D+00-0.149D+01 0.303D+01
 Coeff:     -0.329D-03-0.760D-02 0.114D-01-0.610D-01 0.434D+00-0.367D+00
 Coeff:     -0.554D+00-0.149D+01 0.303D+01
 Gap=     0.229 Goal=   None    Shift=    0.500
 Gap=     0.090 Goal=   None    Shift=    0.500
 GapD=    0.090 DampG=0.500 DampE=1.000 DampFc=0.5000 IDamp=-1.
 Damping current iteration by 5.00D-01
 RMSDP=1.37D-04 MaxDP=1.24D-02 DE=-6.12D-03 OVMax= 1.38D-02

 Cycle  10  Pass 1  IDiag  1:
 E= -1926.19252678309     Delta-E=       -0.003178346378 Rises=F Damp=T
 DIIS: error= 1.67D-03 at cycle  10 NSaved=  10.
 NSaved=10 IEnMin=10 EnMin= -1926.19252678309     IErMin=10 ErrMin= 1.67D-03
 ErrMax= 1.67D-03  0.00D+00 EMaxC= 1.00D+00 BMatC= 2.80D-04 BMatP= 6.78D-04
 IDIUse=1 WtCom= 1.00D+00 WtEn= 0.00D+00
 Coeff-Com: -0.173D-01 0.386D-01 0.470D-01-0.190D-01-0.614D+00 0.107D+01
 Coeff-Com:  0.581D+00-0.927D+00-0.428D+01 0.512D+01
 Coeff:     -0.173D-01 0.386D-01 0.470D-01-0.190D-01-0.614D+00 0.107D+01
 Coeff:      0.581D+00-0.927D+00-0.428D+01 0.512D+01
 Gap=     0.232 Goal=   None    Shift=    0.500
 Gap=     0.091 Goal=   None    Shift=    0.500
 GapD=    0.091 DampG=0.500 DampE=1.000 DampFc=0.5000 IDamp=-1.
 Damping current iteration by 5.00D-01
 RMSDP=1.22D-04 MaxDP=1.17D-02 DE=-3.18D-03 OVMax= 1.53D-02

 Cycle  11  Pass 1  IDiag  1:
 E= -1926.19424985293     Delta-E=       -0.001723069839 Rises=F Damp=T
 DIIS: error= 1.67D-03 at cycle  11 NSaved=  11.
 NSaved=11 IEnMin=11 EnMin= -1926.19424985293     IErMin=11 ErrMin= 1.67D-03
 ErrMax= 1.67D-03  0.00D+00 EMaxC= 1.00D+00 BMatC= 1.68D-04 BMatP= 2.80D-04
 IDIUse=1 WtCom= 1.00D+00 WtEn= 0.00D+00
 Coeff-Com: -0.192D-01 0.225D-01 0.107D+00-0.133D-01-0.808D+00 0.113D+01
 Coeff-Com:  0.619D+00 0.102D-02-0.479D+01 0.317D+01 0.158D+01
 Coeff:     -0.192D-01 0.225D-01 0.107D+00-0.133D-01-0.808D+00 0.113D+01
 Coeff:      0.619D+00 0.102D-02-0.479D+01 0.317D+01 0.158D+01
 Gap=     0.233 Goal=   None    Shift=    0.500
 Gap=     0.091 Goal=   None    Shift=    0.500
 GapD=    0.091 DampG=0.500 DampE=1.000 DampFc=0.5000 IDamp=-1.
 Damping current iteration by 5.00D-01
 RMSDP=1.06D-04 MaxDP=9.70D-03 DE=-1.72D-03 OVMax= 1.44D-02

 Cycle  12  Pass 1  IDiag  1:
 E= -1926.19524012919     Delta-E=       -0.000990276259 Rises=F Damp=T
 DIIS: error= 1.67D-03 at cycle  12 NSaved=  12.
 NSaved=12 IEnMin=12 EnMin= -1926.19524012919     IErMin=12 ErrMin= 1.67D-03
 ErrMax= 1.67D-03  0.00D+00 EMaxC= 1.00D+00 BMatC= 1.31D-04 BMatP= 1.68D-04
 IDIUse=1 WtCom= 1.00D+00 WtEn= 0.00D+00
 Coeff-Com: -0.128D-01-0.182D-01 0.137D+00 0.104D-01-0.394D+00-0.792D-01
 Coeff-Com:  0.590D+00 0.111D+01-0.214D+01 0.120D+01-0.392D+01 0.452D+01
 Coeff:     -0.128D-01-0.182D-01 0.137D+00 0.104D-01-0.394D+00-0.792D-01
 Coeff:      0.590D+00 0.111D+01-0.214D+01 0.120D+01-0.392D+01 0.452D+01
 Gap=     0.235 Goal=   None    Shift=    0.500
 Gap=     0.092 Goal=   None    Shift=    0.500
 GapD=    0.092 DampG=0.500 DampE=1.000 DampFc=0.5000 IDamp=-1.
 Damping current iteration by 5.00D-01
 RMSDP=1.02D-04 MaxDP=8.12D-03 DE=-9.90D-04 OVMax= 1.56D-02

 Cycle  13  Pass 1  IDiag  1:
 E= -1926.19586313763     Delta-E=       -0.000623008443 Rises=F Damp=T
 DIIS: error= 1.68D-03 at cycle  13 NSaved=  13.
 NSaved=13 IEnMin=13 EnMin= -1926.19586313763     IErMin=12 ErrMin= 1.67D-03
 ErrMax= 1.68D-03  0.00D+00 EMaxC= 1.00D+00 BMatC= 1.18D-04 BMatP= 1.31D-04
 IDIUse=1 WtCom= 1.00D+00 WtEn= 0.00D+00
 Coeff-Com: -0.125D-01-0.175D-01 0.131D+00 0.906D-02-0.354D+00-0.130D+00
 Coeff-Com:  0.546D+00 0.107D+01-0.188D+01 0.127D+01-0.409D+01 0.402D+01
 Coeff-Com:  0.439D+00
 Coeff:     -0.125D-01-0.175D-01 0.131D+00 0.906D-02-0.354D+00-0.130D+00
 Coeff:      0.546D+00 0.107D+01-0.188D+01 0.127D+01-0.409D+01 0.402D+01
 Coeff:      0.439D+00
 Gap=     0.235 Goal=   None    Shift=    0.500
 Gap=     0.093 Goal=   None    Shift=    0.500
 GapD=    0.093 DampG=0.500 DampE=1.000 DampFc=0.5000 IDamp=-1.
 Damping current iteration by 5.00D-01
 RMSDP=8.66D-05 MaxDP=6.18D-03 DE=-6.23D-04 OVMax= 1.35D-02

 Cycle  14  Pass 1  IDiag  1:
 E= -1926.19628990668     Delta-E=       -0.000426769046 Rises=F Damp=T
 DIIS: error= 1.68D-03 at cycle  14 NSaved=  14.
 NSaved=14 IEnMin=14 EnMin= -1926.19628990668     IErMin=12 ErrMin= 1.67D-03
 ErrMax= 1.68D-03  0.00D+00 EMaxC= 1.00D+00 BMatC= 1.11D-04 BMatP= 1.18D-04
 IDIUse=1 WtCom= 1.00D+00 WtEn= 0.00D+00
 Coeff-Com: -0.126D-01-0.105D-01 0.103D+00 0.306D-01-0.312D+00-0.236D+00
 Coeff-Com:  0.724D+00 0.725D+00-0.132D+01-0.464D+00-0.683D+00 0.306D+01
 Coeff-Com: -0.292D+01 0.231D+01
 Coeff:     -0.126D-01-0.105D-01 0.103D+00 0.306D-01-0.312D+00-0.236D+00
 Coeff:      0.724D+00 0.725D+00-0.132D+01-0.464D+00-0.683D+00 0.306D+01
 Coeff:     -0.292D+01 0.231D+01
 Gap=     0.236 Goal=   None    Shift=    0.500
 Gap=     0.093 Goal=   None    Shift=    0.500
 GapD=    0.093 DampG=0.500 DampE=1.000 DampFc=0.5000 IDamp=-1.
 Damping current iteration by 5.00D-01
 RMSDP=7.40D-05 MaxDP=4.64D-03 DE=-4.27D-04 OVMax= 1.23D-02

 Cycle  15  Pass 1  IDiag  1:
 E= -1926.19660483314     Delta-E=       -0.000314926467 Rises=F Damp=T
 DIIS: error= 1.66D-03 at cycle  15 NSaved=  15.
 NSaved=15 IEnMin=15 EnMin= -1926.19660483314     IErMin=15 ErrMin= 1.66D-03
 ErrMax= 1.66D-03  0.00D+00 EMaxC= 1.00D+00 BMatC= 1.08D-04 BMatP= 1.11D-04
 IDIUse=1 WtCom= 1.00D+00 WtEn= 0.00D+00
 Coeff-Com: -0.129D-01-0.860D-02 0.990D-01 0.305D-01-0.306D+00-0.225D+00
 Coeff-Com:  0.708D+00 0.677D+00-0.117D+01-0.102D+01 0.641D+00 0.860D+00
 Coeff-Com:  0.132D+01-0.307D+01 0.248D+01
 Coeff:     -0.129D-01-0.860D-02 0.990D-01 0.305D-01-0.306D+00-0.225D+00
 Coeff:      0.708D+00 0.677D+00-0.117D+01-0.102D+01 0.641D+00 0.860D+00
 Coeff:      0.132D+01-0.307D+01 0.248D+01
 Gap=     0.237 Goal=   None    Shift=    0.500
 Gap=     0.093 Goal=   None    Shift=    0.500
 GapD=    0.093 DampG=0.500 DampE=1.000 DampFc=0.5000 IDamp=-1.
 Damping current iteration by 5.00D-01
 RMSDP=6.35D-05 MaxDP=3.41D-03 DE=-3.15D-04 OVMax= 1.10D-02

 Cycle  16  Pass 1  IDiag  1:
 E= -1926.19685081333     Delta-E=       -0.000245980188 Rises=F Damp=T
 DIIS: error= 1.63D-03 at cycle  16 NSaved=  16.
 NSaved=16 IEnMin=16 EnMin= -1926.19685081333     IErMin=16 ErrMin= 1.63D-03
 ErrMax= 1.63D-03  0.00D+00 EMaxC= 1.00D+00 BMatC= 1.10D-04 BMatP= 1.08D-04
 IDIUse=1 WtCom= 1.00D+00 WtEn= 0.00D+00
 Coeff-Com: -0.130D-01-0.109D-01 0.105D+00 0.274D-01-0.309D+00-0.222D+00
 Coeff-Com:  0.664D+00 0.794D+00-0.123D+01-0.789D+00 0.432D-01 0.299D-01
 Coeff-Com:  0.381D+01-0.249D+01-0.162D+01 0.220D+01
 Coeff:     -0.130D-01-0.109D-01 0.105D+00 0.274D-01-0.309D+00-0.222D+00
 Coeff:      0.664D+00 0.794D+00-0.123D+01-0.789D+00 0.432D-01 0.299D-01
 Coeff:      0.381D+01-0.249D+01-0.162D+01 0.220D+01
 Gap=     0.237 Goal=   None    Shift=    0.500
 Gap=     0.094 Goal=   None    Shift=    0.500
 GapD=    0.094 DampG=0.500 DampE=1.000 DampFc=0.5000 IDamp=-1.
 Damping current iteration by 5.00D-01
 RMSDP=5.31D-05 MaxDP=2.74D-03 DE=-2.46D-04 OVMax= 9.51D-03

 Cycle  17  Pass 1  IDiag  1:
 E= -1926.19704755405     Delta-E=       -0.000196740720 Rises=F Damp=T
 DIIS: error= 1.59D-03 at cycle  17 NSaved=  17.
 NSaved=17 IEnMin=17 EnMin= -1926.19704755405     IErMin=17 ErrMin= 1.59D-03
 ErrMax= 1.59D-03  0.00D+00 EMaxC= 1.00D+00 BMatC= 1.20D-04 BMatP= 1.08D-04
 IDIUse=1 WtCom= 1.00D+00 WtEn= 0.00D+00
 Large coefficients: NSaved= 17 BigCof=   33.54 CofMax=   10.00 Det=-6.82D-10
 Inversion failed.  Reducing to 16 matrices.
 Large coefficients: NSaved= 16 BigCof=   34.02 CofMax=   10.00 Det=-6.83D-10
 Inversion failed.  Reducing to 15 matrices.
 Large coefficients: NSaved= 15 BigCof=   34.70 CofMax=   10.00 Det=-6.83D-10
 Inversion failed.  Reducing to 14 matrices.
 Large coefficients: NSaved= 14 BigCof=   35.90 CofMax=   10.00 Det=-7.05D-10
 Inversion failed.  Reducing to 13 matrices.
 Large coefficients: NSaved= 13 BigCof=   38.26 CofMax=   10.00 Det=-7.17D-10
 Inversion failed.  Reducing to 12 matrices.
 Large coefficients: NSaved= 12 BigCof=   26.36 CofMax=   10.00 Det=-8.07D-10
 Inversion failed.  Reducing to 11 matrices.
 Large coefficients: NSaved= 11 BigCof=   19.29 CofMax=   10.00 Det=-9.18D-10
 Inversion failed.  Reducing to 10 matrices.
 Large coefficients: NSaved= 10 BigCof=   19.35 CofMax=   10.00 Det=-9.20D-10
 Inversion failed.  Reducing to  9 matrices.
 Large coefficients: NSaved=  9 BigCof=   19.96 CofMax=   10.00 Det=-9.42D-10
 Inversion failed.  Reducing to  8 matrices.
 Large coefficients: NSaved=  8 BigCof=   16.25 CofMax=   10.00 Det=-9.93D-10
 Inversion failed.  Reducing to  7 matrices.
 Coeff-Com:  0.459D+00-0.334D+01 0.590D+01-0.444D+01 0.718D+01-0.942D+01
 Coeff-Com:  0.467D+01
 Coeff:      0.459D+00-0.334D+01 0.590D+01-0.444D+01 0.718D+01-0.942D+01
 Coeff:      0.467D+01
 Gap=     0.236 Goal=   None    Shift=    0.500
 Gap=     0.093 Goal=   None    Shift=    0.500
 GapD=    0.093 DampG=0.500 DampE=1.000 DampFc=0.5000 IDamp=-1.
 Damping current iteration by 5.00D-01
 RMSDP=3.88D-05 MaxDP=2.15D-03 DE=-1.97D-04 OVMax= 6.91D-03

 Cycle  18  Pass 1  IDiag  1:
 E= -1926.19719428035     Delta-E=       -0.000146726296 Rises=F Damp=T
 DIIS: error= 1.53D-03 at cycle  18 NSaved=   8.
 NSaved= 8 IEnMin= 8 EnMin= -1926.19719428035     IErMin= 8 ErrMin= 1.53D-03
 ErrMax= 1.53D-03  0.00D+00 EMaxC= 1.00D+00 BMatC= 1.45D-04 BMatP= 1.08D-04
 IDIUse=1 WtCom= 1.00D+00 WtEn= 0.00D+00
 Large coefficients: NSaved=  8 BigCof=   25.62 CofMax=   10.00 Det=-9.39D-10
 Inversion failed.  Reducing to  7 matrices.
 Large coefficients: NSaved=  7 BigCof=   13.71 CofMax=   10.00 Det=-1.12D-09
 Inversion failed.  Reducing to  6 matrices.
 Large coefficients: NSaved=  6 BigCof=   14.81 CofMax=   10.00 Det=-1.34D-09
 Inversion failed.  Reducing to  5 matrices.
 Large coefficients: NSaved=  5 BigCof=   13.89 CofMax=   10.00 Det=-1.93D-09
 Inversion failed.  Reducing to  4 matrices.
 Coeff-Com: -0.276D+01 0.839D+01-0.572D+01 0.109D+01
 Coeff:     -0.276D+01 0.839D+01-0.572D+01 0.109D+01
 Gap=     0.236 Goal=   None    Shift=    0.500
 Gap=     0.094 Goal=   None    Shift=    0.500
 GapD=    0.094 DampG=0.500 DampE=1.000 DampFc=0.5000 IDamp=-1.
 Damping current iteration by 5.00D-01
 RMSDP=3.09D-05 MaxDP=1.71D-03 DE=-1.47D-04 OVMax= 5.87D-03

 Cycle  19  Pass 1  IDiag  1:
 E= -1926.19730426460     Delta-E=       -0.000109984251 Rises=F Damp=T
 DIIS: error= 1.47D-03 at cycle  19 NSaved=   5.
 NSaved= 5 IEnMin= 5 EnMin= -1926.19730426460     IErMin= 5 ErrMin= 1.47D-03
 ErrMax= 1.47D-03  0.00D+00 EMaxC= 1.00D+00 BMatC= 1.83D-04 BMatP= 1.08D-04
 IDIUse=1 WtCom= 1.00D+00 WtEn= 0.00D+00
 Large coefficients: NSaved=  5 BigCof=   14.62 CofMax=   10.00 Det=-3.31D-09
 Inversion failed.  Reducing to  4 matrices.
 Coeff-Com:  0.244D+01-0.138D+01-0.563D+00 0.511D+00
 Coeff:      0.244D+01-0.138D+01-0.563D+00 0.511D+00
 Gap=     0.235 Goal=   None    Shift=    0.500
 Gap=     0.093 Goal=   None    Shift=    0.500
 GapD=    0.093 DampG=0.500 DampE=1.000 DampFc=0.5000 IDamp=-1.
 Damping current iteration by 5.00D-01
 RMSDP=2.36D-05 MaxDP=1.30D-03 DE=-1.10D-04 OVMax= 4.09D-03

 Cycle  20  Pass 1  IDiag  1:
 E= -1926.19737793683     Delta-E=       -0.000073672229 Rises=F Damp=T
 DIIS: error= 1.41D-03 at cycle  20 NSaved=   5.
 NSaved= 5 IEnMin= 5 EnMin= -1926.19737793683     IErMin= 5 ErrMin= 1.41D-03
 ErrMax= 1.41D-03  0.00D+00 EMaxC= 1.00D+00 BMatC= 2.35D-04 BMatP= 1.10D-04
 IDIUse=1 WtCom= 1.00D+00 WtEn= 0.00D+00
 Coeff-Com:  0.166D+01 0.544D+00 0.177D+01-0.696D+01 0.399D+01
 Coeff:      0.166D+01 0.544D+00 0.177D+01-0.696D+01 0.399D+01
 Gap=     0.235 Goal=   None    Shift=    0.500
 Gap=     0.093 Goal=   None    Shift=    0.500
 GapD=    0.093 DampG=0.500 DampE=1.000 DampFc=0.5000 IDamp=-1.
 Damping current iteration by 5.00D-01
 RMSDP=1.88D-05 MaxDP=1.17D-03 DE=-7.37D-05 OVMax= 2.68D-03

 Cycle  21  Pass 1  IDiag  1:
 E= -1926.19742015284     Delta-E=       -0.000042216013 Rises=F Damp=T
 DIIS: error= 1.35D-03 at cycle  21 NSaved=   6.
 NSaved= 6 IEnMin= 6 EnMin= -1926.19742015284     IErMin= 6 ErrMin= 1.35D-03
 ErrMax= 1.35D-03  0.00D+00 EMaxC= 1.00D+00 BMatC= 2.98D-04 BMatP= 1.10D-04
 IDIUse=1 WtCom= 1.00D+00 WtEn= 0.00D+00
 Coeff-Com:  0.127D+01 0.124D+01 0.258D+01-0.834D+01 0.332D+01 0.927D+00
 Coeff:      0.127D+01 0.124D+01 0.258D+01-0.834D+01 0.332D+01 0.927D+00
 Gap=     0.235 Goal=   None    Shift=    0.500
 Gap=     0.093 Goal=   None    Shift=    0.500
 GapD=    0.093 DampG=0.500 DampE=1.000 DampFc=0.5000 IDamp=-1.
 Damping current iteration by 5.00D-01
 RMSDP=1.51D-05 MaxDP=9.88D-04 DE=-4.22D-05 OVMax= 1.99D-03

 Cycle  22  Pass 1  IDiag  1:
 E= -1926.19744332566     Delta-E=       -0.000023172822 Rises=F Damp=T
 DIIS: error= 1.29D-03 at cycle  22 NSaved=   7.
 NSaved= 7 IEnMin= 7 EnMin= -1926.19744332566     IErMin= 7 ErrMin= 1.29D-03
 ErrMax= 1.29D-03  0.00D+00 EMaxC= 1.00D+00 BMatC= 3.60D-04 BMatP= 1.10D-04
 IDIUse=1 WtCom= 1.00D+00 WtEn= 0.00D+00
 Coeff-Com:  0.129D+01 0.125D+01 0.257D+01-0.838D+01 0.308D+01 0.146D+01
 Coeff-Com: -0.275D+00
 Coeff:      0.129D+01 0.125D+01 0.257D+01-0.838D+01 0.308D+01 0.146D+01
 Coeff:     -0.275D+00
 Gap=     0.235 Goal=   None    Shift=    0.500
 Gap=     0.093 Goal=   None    Shift=    0.500
 GapD=    0.093 DampG=0.500 DampE=1.000 DampFc=0.5000 IDamp=-1.
 Damping current iteration by 5.00D-01
 RMSDP=1.15D-05 MaxDP=7.54D-04 DE=-2.32D-05 OVMax= 1.65D-03

 Cycle  23  Pass 1  IDiag  1:
 E= -1926.19745796331     Delta-E=       -0.000014637651 Rises=F Damp=T
 DIIS: error= 1.25D-03 at cycle  23 NSaved=   8.
 NSaved= 8 IEnMin= 8 EnMin= -1926.19745796331     IErMin= 8 ErrMin= 1.25D-03
 ErrMax= 1.25D-03  0.00D+00 EMaxC= 1.00D+00 BMatC= 4.13D-04 BMatP= 1.10D-04
 IDIUse=1 WtCom= 1.00D+00 WtEn= 0.00D+00
 Large coefficients: NSaved=  8 BigCof=   24.04 CofMax=   10.00 Det=-7.66D-11
 Inversion failed.  Reducing to  7 matrices.
 Large coefficients: NSaved=  7 BigCof=   29.70 CofMax=   10.00 Det=-8.06D-11
 Inversion failed.  Reducing to  6 matrices.
 Large coefficients: NSaved=  6 BigCof=   42.45 CofMax=   10.00 Det=-8.16D-11
 Inversion failed.  Reducing to  5 matrices.
 Large coefficients: NSaved=  5 BigCof=   62.17 CofMax=   10.00 Det=-8.67D-11
 Inversion failed.  Reducing to  4 matrices.
 Large coefficients: NSaved=  4 BigCof=   73.36 CofMax=   10.00 Det=-9.74D-11
 Inversion failed.  Reducing to  3 matrices.
 Large coefficients: NSaved=  3 BigCof=   33.02 CofMax=   10.00 Det=-1.55D-09
 Inversion failed.  Reducing to  2 matrices.
 Large coefficients: NSaved=  2 BigCof=   10.93 CofMax=   10.00 Det=-2.51D-06
 Coeff-Com:  0.109D+02-0.993D+01
 Coeff:      0.109D+02-0.993D+01
 Gap=     0.238 Goal=   None    Shift=    0.500
 Gap=     0.094 Goal=   None    Shift=    0.500
 GapD=    0.094 DampG=0.500 DampE=1.000 DampFc=0.5000 IDamp=-1.
 Damping current iteration by 5.00D-01
 RMSDP=3.72D-05 MaxDP=2.19D-03 DE=-1.46D-05 OVMax= 7.37D-03

 Cycle  24  Pass 1  IDiag  1:
 E= -1926.19754745402     Delta-E=       -0.000089490703 Rises=F Damp=T
 DIIS: error= 1.28D-03 at cycle  24 NSaved=   3.
 NSaved= 3 IEnMin= 3 EnMin= -1926.19754745402     IErMin= 2 ErrMin= 1.25D-03
 ErrMax= 1.28D-03  0.00D+00 EMaxC= 1.00D+00 BMatC= 3.68D-04 BMatP= 3.60D-04
 IDIUse=1 WtCom= 1.00D+00 WtEn= 0.00D+00
 Large coefficients: NSaved=  3 BigCof=   10.19 CofMax=   10.00 Det=-1.18D-06
 Inversion failed.  Reducing to  2 matrices.
 Coeff-Com: -0.688D+01 0.788D+01
 Coeff:     -0.688D+01 0.788D+01
 Gap=     0.248 Goal=   None    Shift=    0.500
 Gap=     0.096 Goal=   None    Shift=    0.500
 GapD=    0.096 DampG=0.500 DampE=1.000 DampFc=0.5000 IDamp=-1.
 Damping current iteration by 5.00D-01
 RMSDP=1.05D-04 MaxDP=5.48D-03 DE=-8.95D-05 OVMax= 1.46D-02

 Cycle  25  Pass 1  IDiag  1:
 E= -1926.19774839538     Delta-E=       -0.000200941365 Rises=F Damp=T
 DIIS: error= 1.50D-03 at cycle  25 NSaved=   3.
 NSaved= 3 IEnMin= 3 EnMin= -1926.19774839538     IErMin= 1 ErrMin= 1.25D-03
 ErrMax= 1.50D-03  0.00D+00 EMaxC= 1.00D+00 BMatC= 1.65D-04 BMatP= 3.68D-04
 IDIUse=1 WtCom= 1.00D+00 WtEn= 0.00D+00
 Coeff-Com: -0.283D+01 0.258D+01 0.126D+01
 Coeff:     -0.283D+01 0.258D+01 0.126D+01
 Gap=     0.244 Goal=   None    Shift=    0.500
 Gap=     0.096 Goal=   None    Shift=    0.500
 GapD=    0.096 DampG=0.500 DampE=1.000 DampFc=0.5000 IDamp=-1.
 Damping current iteration by 5.00D-01
 RMSDP=9.02D-05 MaxDP=6.23D-03 DE=-2.01D-04 OVMax= 1.24D-02

 Cycle  26  Pass 1  IDiag  1:
 E= -1926.19794301490     Delta-E=       -0.000194619515 Rises=F Damp=T
 DIIS: error= 1.60D-03 at cycle  26 NSaved=   4.
 NSaved= 4 IEnMin= 4 EnMin= -1926.19794301490     IErMin= 1 ErrMin= 1.25D-03
 ErrMax= 1.60D-03  0.00D+00 EMaxC= 1.00D+00 BMatC= 1.30D-04 BMatP= 1.65D-04
 IDIUse=1 WtCom= 1.00D+00 WtEn= 0.00D+00
 Coeff-Com: -0.130D+01 0.148D+01-0.100D+01 0.183D+01
 Coeff:     -0.130D+01 0.148D+01-0.100D+01 0.183D+01
 Gap=     0.245 Goal=   None    Shift=    0.500
 Gap=     0.096 Goal=   None    Shift=    0.500
 GapD=    0.096 DampG=0.500 DampE=1.000 DampFc=0.5000 IDamp=-1.
 Damping current iteration by 5.00D-01
 RMSDP=7.93D-05 MaxDP=5.60D-03 DE=-1.95D-04 OVMax= 1.21D-02

 Cycle  27  Pass 1  IDiag  1:
 E= -1926.19813861652     Delta-E=       -0.000195601619 Rises=F Damp=T
 DIIS: error= 1.63D-03 at cycle  27 NSaved=   5.
 NSaved= 5 IEnMin= 5 EnMin= -1926.19813861652     IErMin= 1 ErrMin= 1.25D-03
 ErrMax= 1.63D-03  0.00D+00 EMaxC= 1.00D+00 BMatC= 1.24D-04 BMatP= 1.30D-04
 IDIUse=1 WtCom= 1.00D+00 WtEn= 0.00D+00
 Coeff-Com: -0.170D+01 0.216D+01-0.232D+01 0.491D+01-0.204D+01
 Coeff:     -0.170D+01 0.216D+01-0.232D+01 0.491D+01-0.204D+01
 Gap=     0.244 Goal=   None    Shift=    0.500
 Gap=     0.096 Goal=   None    Shift=    0.500
 GapD=    0.096 DampG=0.500 DampE=1.000 DampFc=0.5000 IDamp=-1.
 Damping current iteration by 5.00D-01
 RMSDP=5.26D-05 MaxDP=3.17D-03 DE=-1.96D-04 OVMax= 7.90D-03

 Cycle  28  Pass 1  IDiag  1:
 E= -1926.19830058205     Delta-E=       -0.000161965530 Rises=F Damp=T
 DIIS: error= 1.59D-03 at cycle  28 NSaved=   6.
 NSaved= 6 IEnMin= 6 EnMin= -1926.19830058205     IErMin= 1 ErrMin= 1.25D-03
 ErrMax= 1.59D-03  0.00D+00 EMaxC= 1.00D+00 BMatC= 1.37D-04 BMatP= 1.24D-04
 IDIUse=1 WtCom= 1.00D+00 WtEn= 0.00D+00
 Coeff-Com: -0.564D-01 0.109D+01-0.151D+01-0.186D+00 0.660D+01-0.494D+01
 Coeff:     -0.564D-01 0.109D+01-0.151D+01-0.186D+00 0.660D+01-0.494D+01
 Gap=     0.241 Goal=   None    Shift=    0.500
 Gap=     0.096 Goal=   None    Shift=    0.500
 GapD=    0.096 DampG=0.500 DampE=1.000 DampFc=0.5000 IDamp=-1.
 Damping current iteration by 5.00D-01
 RMSDP=3.30D-05 MaxDP=2.07D-03 DE=-1.62D-04 OVMax= 1.36D-03

 Cycle  29  Pass 1  IDiag  1:
 E= -1926.19836378674     Delta-E=       -0.000063204693 Rises=F Damp=T
 DIIS: error= 1.46D-03 at cycle  29 NSaved=   7.
 NSaved= 7 IEnMin= 7 EnMin= -1926.19836378674     IErMin= 1 ErrMin= 1.25D-03
 ErrMax= 1.46D-03  0.00D+00 EMaxC= 1.00D+00 BMatC= 2.11D-04 BMatP= 1.24D-04
 IDIUse=1 WtCom= 1.00D+00 WtEn= 0.00D+00
 Large coefficients: NSaved=  7 BigCof=   12.77 CofMax=   10.00 Det=-5.57D-09
 Inversion failed.  Reducing to  6 matrices.
 Large coefficients: NSaved=  6 BigCof=   12.36 CofMax=   10.00 Det=-6.58D-09
 Inversion failed.  Reducing to  5 matrices.
 Large coefficients: NSaved=  5 BigCof=   18.73 CofMax=   10.00 Det=-6.86D-09
 Inversion failed.  Reducing to  4 matrices.
 Coeff-Com: -0.328D+01 0.843D+01-0.572D+01 0.157D+01
 Coeff:     -0.328D+01 0.843D+01-0.572D+01 0.157D+01
 Gap=     0.246 Goal=   None    Shift=    0.500
 Gap=     0.096 Goal=   None    Shift=    0.500
 GapD=    0.096 DampG=0.500 DampE=1.000 DampFc=0.5000 IDamp=-1.
 Damping current iteration by 5.00D-01
 RMSDP=3.90D-05 MaxDP=2.17D-03 DE=-6.32D-05 OVMax= 9.47D-03

 Cycle  30  Pass 1  IDiag  1:
 E= -1926.19848049953     Delta-E=       -0.000116712795 Rises=F Damp=T
 DIIS: error= 1.44D-03 at cycle  30 NSaved=   5.
 NSaved= 5 IEnMin= 5 EnMin= -1926.19848049953     IErMin= 5 ErrMin= 1.44D-03
 ErrMax= 1.44D-03  0.00D+00 EMaxC= 1.00D+00 BMatC= 2.24D-04 BMatP= 1.24D-04
 IDIUse=1 WtCom= 1.00D+00 WtEn= 0.00D+00
 Large coefficients: NSaved=  5 BigCof=   11.03 CofMax=   10.00 Det=-8.32D-09
 Inversion failed.  Reducing to  4 matrices.
 Coeff-Com:  0.311D+00 0.145D+01-0.140D+01 0.638D+00
 Coeff:      0.311D+00 0.145D+01-0.140D+01 0.638D+00
 Gap=     0.245 Goal=   None    Shift=    0.500
 Gap=     0.096 Goal=   None    Shift=    0.500
 GapD=    0.096 DampG=0.500 DampE=1.000 DampFc=0.5000 IDamp=-1.
 Damping current iteration by 5.00D-01
 RMSDP=4.44D-05 MaxDP=2.33D-03 DE=-1.17D-04 OVMax= 8.09D-03

 Cycle  31  Pass 1  IDiag  1:
 E= -1926.19860523650     Delta-E=       -0.000124736970 Rises=F Damp=T
 DIIS: error= 1.44D-03 at cycle  31 NSaved=   5.
 NSaved= 5 IEnMin= 5 EnMin= -1926.19860523650     IErMin= 5 ErrMin= 1.44D-03
 ErrMax= 1.44D-03  0.00D+00 EMaxC= 1.00D+00 BMatC= 2.29D-04 BMatP= 1.24D-04
 IDIUse=1 WtCom= 1.00D+00 WtEn= 0.00D+00
 Coeff-Com:  0.360D+00 0.138D+01-0.131D+01 0.367D+00 0.202D+00
 Coeff:      0.360D+00 0.138D+01-0.131D+01 0.367D+00 0.202D+00
 Gap=     0.245 Goal=   None    Shift=    0.500
 Gap=     0.097 Goal=   None    Shift=    0.500
 RMSDP=3.97D-05 MaxDP=2.09D-03 DE=-1.25D-04 OVMax= 6.88D-03

 Cycle  32  Pass 1  IDiag  1:
 E= -1926.19884994581     Delta-E=       -0.000244709306 Rises=F Damp=F
 DIIS: error= 1.41D-03 at cycle  32 NSaved=   6.
 NSaved= 6 IEnMin= 6 EnMin= -1926.19884994581     IErMin= 6 ErrMin= 1.41D-03
 ErrMax= 1.41D-03  0.00D+00 EMaxC= 1.00D+00 BMatC= 2.59D-04 BMatP= 1.24D-04
 IDIUse=1 WtCom= 1.00D+00 WtEn= 0.00D+00
 Large coefficients: NSaved=  6 BigCof=   20.60 CofMax=   10.00 Det=-2.68D-09
 Inversion failed.  Reducing to  5 matrices.
 Large coefficients: NSaved=  5 BigCof=   19.48 CofMax=   10.00 Det=-2.78D-09
 Inversion failed.  Reducing to  4 matrices.
 Large coefficients: NSaved=  4 BigCof=   20.26 CofMax=   10.00 Det=-6.57D-08
 Inversion failed.  Reducing to  3 matrices.
 Large coefficients: NSaved=  3 BigCof=   16.97 CofMax=   10.00 Det=-1.11D-07
 Inversion failed.  Reducing to  2 matrices.
 Coeff-Com:  0.788D+01-0.688D+01
 Coeff:      0.788D+01-0.688D+01
 Gap=     0.239 Goal=   None    Shift=    0.500
 Gap=     0.096 Goal=   None    Shift=    0.500
 GapD=    0.096 DampG=0.500 DampE=1.000 DampFc=0.5000 IDamp=-1.
 Damping current iteration by 5.00D-01
 RMSDP=7.28D-05 MaxDP=5.17D-03 DE=-2.45D-04 OVMax= 7.61D-03

 >>>>>>>>>> Convergence criterion not met.
 SCF Done:  E(ULC-wHPBE) =  -1926.19884995     A.U. after   33 cycles
            NFock= 32  Conv=0.73D-04     -V/T= 2.0033
 <Sx>= 0.0000 <Sy>= 0.0000 <Sz>= 0.5000 <S**2>= 0.7578 S= 0.5039
 <L.S>= 0.000000000000E+00
 KE= 1.919851731731D+03 PE=-1.015280600252D+04 EE= 3.479509140760D+03
 Annihilation of the first spin contaminant:
 S**2 before annihilation     0.7580,   after     0.7500
 Leave Link  502 at Mon Jan 18 14:45:44 2021, MaxMem=  4026531840 cpu:           13636.0 elap:            1709.0
 (Enter /opt/ohpc/pub/libs/gaussian/g16-A.03/sandybridge/g16/l508.exe)
 Integral symmetry usage will be decided dynamically.
 Tight linear equation convergence will be used.
 ULC-wHPBE wavefunction.
 Quadratic Convergence SCF Method.
 Line search only if initial step raises energy.
 FoFJK:  IHMeth= 1 ICntrl=       0 DoSepK=T KAlg= 0 I1Cent=           0 FoldK=F
 IRaf=         1 NMat=       1 IRICut=       1 DoRegI=T DoRafI=F ISym2E= 1 IDoP0=0 IntGTp=1.
 FoFCou: FMM=F IPFlag=           0 FMFlag=      100000 FMFlg1=           0
         NFxFlg=           0 DoJE=T BraDBF=F KetDBF=F FulRan=T
         wScrn=  0.000000 ICntrl=       500 IOpCl=  0 I1Cent=           0 NGrid=           0
         NMat0=    1 NMatS0=      1 NMatT0=    0 NMatD0=    1 NMtDS0=    0 NMtDT0=    0
 Petite list used in FoFCou.
 Iteration   1 EE= -1926.19852547305                                    Grad=1.980D-02 Max rot=    0.2136 deg.
 Gradient too large for Newton-Raphson -- use scaled steepest descent instead.
     ILin= 1 X=0.000D+00 Y=-1.926198525473D+03 DE= 0.00D+00 F= -6.30D-04
     ILin= 2 X=3.000D-01 Y=-1.926198686444D+03 DE=-1.61D-04 F= -4.43D-04
     ILin= 3 X=6.000D-01 Y=-1.926198791079D+03 DE=-2.66D-04 F= -2.55D-04
     ILin= 4 X=1.200D+00 Y=-1.926198831471D+03 DE=-3.06D-04 F=  1.20D-04
     Accept linear search using points  3 and  4.
     An  expanding polynomial of degree  4 produced  0.9452
 Iteration   2 EE= -1926.19884181428     Delta-E=       -0.000316341231 Grad=1.121D-02 Max rot=    0.4215 deg.
 Gradient too large for Newton-Raphson -- use scaled steepest descent instead.
     ILin= 1 X=0.000D+00 Y=-1.926198841814D+03 DE= 0.00D+00 F= -2.79D-04
     ILin= 2 X=5.000D-01 Y=-1.926198965001D+03 DE=-1.23D-04 F= -2.13D-04
     ILin= 3 X=1.100D+00 Y=-1.926199069041D+03 DE=-2.27D-04 F= -1.33D-04
     ILin= 4 X=2.100D+00 Y=-1.926199135747D+03 DE=-2.94D-04 F=  2.24D-07
     Accept linear search using points  3 and  4.
     An  expanding polynomial of degree  4 produced  2.0983
     Minimum is close to point  4 DX= -1.67D-03 DF= -1.87D-10 DXR=  7.96D-04 DFR=  6.37D-07 which will be used.
 Iteration   3 EE= -1926.19913574735     Delta-E=       -0.000293933062 Grad=2.156D-02 Max rot=    0.2766 deg.
 Gradient too large for Newton-Raphson -- use scaled steepest descent instead.
     ILin= 1 X=0.000D+00 Y=-1.926199135747D+03 DE= 0.00D+00 F= -6.53D-04
     ILin= 2 X=1.400D+00 Y=-1.926199326469D+03 DE=-1.91D-04 F=  3.80D-04
     Accept linear search using points  1 and  2.
     An  expanding polynomial of degree  2 produced  0.9796
 Iteration   4 EE= -1926.19942116016     Delta-E=       -0.000285412817 Grad=1.324D-02 Max rot=    0.4576 deg.
 Gradient too large for Newton-Raphson -- use scaled steepest descent instead.
     ILin= 1 X=0.000D+00 Y=-1.926199421160D+03 DE= 0.00D+00 F= -3.56D-04
     ILin= 2 X=1.400D+00 Y=-1.926199665379D+03 DE=-2.44D-04 F=  7.08D-06
     Accept linear search using points  1 and  2.
     An  expanding polynomial of degree  2 produced  1.3886
     Minimum is close to point  2 DX= -1.14D-02 DF= -2.88D-08 DXR=  8.21D-03 DFR=  1.18D-04 which will be used.
 Iteration   5 EE= -1926.19966537868     Delta-E=       -0.000244218514 Grad=1.743D-02 Max rot=    0.3166 deg.
 Gradient too large for Newton-Raphson -- use scaled steepest descent instead.
     ILin= 1 X=0.000D+00 Y=-1.926199665379D+03 DE= 0.00D+00 F= -4.63D-04
     ILin= 2 X=1.200D+00 Y=-1.926199909067D+03 DE=-2.44D-04 F=  5.72D-05
     Accept linear search using points  1 and  2.
     An  expanding polynomial of degree  2 produced  1.1097
     Minimum is close to point  2 DX= -9.03D-02 DF= -2.13D-06 DXR=  8.13D-02 DFR=  8.75D-03 which will be used.
 Iteration   6 EE= -1926.19990906738     Delta-E=       -0.000243688701 Grad=1.586D-02 Max rot=    0.4722 deg.
 Gradient too large for Newton-Raphson -- use scaled steepest descent instead.
     ILin= 1 X=0.000D+00 Y=-1.926199909067D+03 DE= 0.00D+00 F= -4.51D-04
     ILin= 2 X=1.200D+00 Y=-1.926200153146D+03 DE=-2.44D-04 F=  4.43D-05
     Accept linear search using points  1 and  2.
     An  expanding polynomial of degree  2 produced  1.1285
     Minimum is close to point  2 DX= -7.15D-02 DF= -1.31D-06 DXR=  6.34D-02 DFR=  5.36D-03 which will be used.
 Iteration   7 EE= -1926.20015314626     Delta-E=       -0.000244078883 Grad=1.691D-02 Max rot=    0.3287 deg.
 Gradient too large for Newton-Raphson -- use scaled steepest descent instead.
     ILin= 1 X=0.000D+00 Y=-1.926200153146D+03 DE= 0.00D+00 F= -4.41D-04
     ILin= 2 X=1.100D+00 Y=-1.926200399303D+03 DE=-2.46D-04 F= -6.35D-06
     Reject lnstep minimum 1.112D+00 FVal=-1.926200399338D+03 Lims=  0.00D+00  1.10D+00
     ILin= 3 X=2.200D+00 Y=-1.926200167146D+03 DE=-1.40D-05 F=  4.28D-04
     An  expanding polynomial of degree  3 produced  1.1161
     Minimum is close to point  2 DX=  1.61D-02 DF= -5.12D-08 DXR=  1.44D-02 DFR=  2.08D-04 which will be used.
 Iteration   8 EE= -1926.20039930318     Delta-E=       -0.000246156922 Grad=1.357D-02 Max rot=    0.4564 deg.
 Gradient too large for Newton-Raphson -- use scaled steepest descent instead.
     ILin= 1 X=0.000D+00 Y=-1.926200399303D+03 DE= 0.00D+00 F= -3.62D-04
     ILin= 2 X=1.100D+00 Y=-1.926200638014D+03 DE=-2.39D-04 F= -7.15D-05
     Reject lnstep minimum 1.272D+00 FVal=-1.926200643710D+03 Lims=  0.00D+00  1.10D+00
     ILin= 3 X=2.200D+00 Y=-1.926200556351D+03 DE=-1.57D-04 F=  2.20D-04
     An  expanding polynomial of degree  3 produced  1.3696
 Iteration   9 EE= -1926.20064766210     Delta-E=       -0.000248358915 Grad=1.740D-02 Max rot=    0.3315 deg.
 Gradient too large for Newton-Raphson -- use scaled steepest descent instead.
     ILin= 1 X=0.000D+00 Y=-1.926200647662D+03 DE= 0.00D+00 F= -4.59D-04
     ILin= 2 X=1.200D+00 Y=-1.926200893785D+03 DE=-2.46D-04 F=  4.91D-05
     Accept linear search using points  1 and  2.
     An  expanding polynomial of degree  2 produced  1.1219
     Minimum is close to point  2 DX= -7.81D-02 DF= -1.58D-06 DXR=  6.96D-02 DFR=  6.44D-03 which will be used.
 Iteration  10 EE= -1926.20089378492     Delta-E=       -0.000246122823 Grad=1.604D-02 Max rot=    0.4692 deg.
 Gradient too large for Newton-Raphson -- use scaled steepest descent instead.
     ILin= 1 X=0.000D+00 Y=-1.926200893785D+03 DE= 0.00D+00 F= -4.53D-04
     ILin= 2 X=1.200D+00 Y=-1.926201139773D+03 DE=-2.46D-04 F=  4.27D-05
     Accept linear search using points  1 and  2.
     An  expanding polynomial of degree  2 produced  1.1313
     Minimum is close to point  2 DX= -6.87D-02 DF= -1.21D-06 DXR=  6.08D-02 DFR=  4.93D-03 which will be used.
 Iteration  11 EE= -1926.20113977265     Delta-E=       -0.000245987725 Grad=1.710D-02 Max rot=    0.3360 deg.
 Gradient too large for Newton-Raphson -- use scaled steepest descent instead.
     ILin= 1 X=0.000D+00 Y=-1.926201139773D+03 DE= 0.00D+00 F= -4.46D-04
     ILin= 2 X=1.100D+00 Y=-1.926201387385D+03 DE=-2.48D-04 F= -3.77D-06
     Reject lnstep minimum 1.107D+00 FVal=-1.926201387397D+03 Lims=  0.00D+00  1.10D+00
     ILin= 3 X=2.300D+00 Y=-1.926201101968D+03 DE= 3.78D-05 F=  4.80D-04
     An  expanding polynomial of degree  3 produced  1.1092
[...]
    19   Atom        0.000676      0.000713     -0.001390
    20   Atom        0.000307     -0.000111     -0.000196
    21   Atom        0.000390     -0.000182     -0.000207
    22   Atom        0.000241     -0.000148     -0.000093
    23   Atom        0.004523      0.005608     -0.010131
    24   Atom       -0.424843     -0.479798      0.904641
    25   Atom       -0.009675     -0.007279      0.016955
    26   Atom        0.010872     -0.008127     -0.002745
    27   Atom       -0.023909      0.032822     -0.008912
    28   Atom        0.010925     -0.001387     -0.009538
    29   Atom        0.004935      0.007382     -0.012318
    30   Atom       -0.037698     -0.012003      0.049701
    31   Atom        0.001298     -0.000579     -0.000719
    32   Atom        0.001957     -0.001273     -0.000684
    33   Atom        0.000595     -0.000158     -0.000437
    34   Atom        0.000439      0.000046     -0.000484
    35   Atom       -0.014643      0.003214      0.011429
    36   Atom        0.078788     -0.043818     -0.034970
    37   Atom        0.050953     -0.018500     -0.032453
    38   Atom       -0.003056      0.006657     -0.003601
    39   Atom       -0.010942      0.013601     -0.002659
    40   Atom        0.038700     -0.043056      0.004356
    41   Atom       -0.000811     -0.001639      0.002450
    42   Atom       -0.000864     -0.001592      0.002456
    43   Atom       -0.001247      0.000586      0.000662
    44   Atom       -0.001342      0.000780      0.000562
    45   Atom        0.084464     -0.075536     -0.008927
    46   Atom        0.000793     -0.003340      0.002547
    47   Atom       -0.056919     -0.008819      0.065738
    48   Atom       -0.004056      0.002925      0.001131
 --------------------------------------------------------
                        XY            XZ            YZ
 --------------------------------------------------------
     1   Atom        0.000806     -0.000948     -0.001536
     2   Atom       -0.001206      0.003409      0.000662
     3   Atom        0.005538     -0.035850     -0.033180
     4   Atom        0.003973     -0.002616     -0.002314
     5   Atom       -0.004132     -0.000979      0.022265
     6   Atom       -0.005489      0.001635     -0.098890
     7   Atom        0.000392      0.000038      0.000314
     8   Atom       -0.000199      0.001184      0.001247
     9   Atom        0.000658      0.000669      0.000649
    10   Atom        0.012377     -0.009411     -0.076040
    11   Atom       -0.000341      0.000306      0.028415
    12   Atom       -0.004770      0.002181     -0.100312
    13   Atom       -0.006400      0.002239      0.007760
    14   Atom        0.001104     -0.000081      0.004954
    15   Atom        0.000280      0.000120      0.001619
    16   Atom        0.004902      0.003952      0.003724
    17   Atom        0.000735     -0.000559     -0.002657
    18   Atom       -0.000334     -0.000051      0.000079
    19   Atom       -0.001379     -0.000202      0.000412
    20   Atom       -0.000065      0.000079      0.000024
    21   Atom        0.000217      0.000250      0.000145
    22   Atom        0.000306      0.000251      0.000059
    23   Atom        0.011383     -0.000686     -0.003169
    24   Atom        0.010859      0.282677      0.053411
    25   Atom        0.011294     -0.002138      0.004198
    26   Atom       -0.039369     -0.041653      0.037550
    27   Atom       -0.043455     -0.031137      0.050859
    28   Atom        0.004973      0.002768     -0.014536
    29   Atom        0.006546      0.009291     -0.009320
    30   Atom       -0.021221     -0.039400      0.064305
    31   Atom       -0.002315      0.003247     -0.003445
    32   Atom       -0.002104      0.004092     -0.002519
    33   Atom        0.000633      0.001169     -0.001451
    34   Atom        0.000744      0.001057     -0.001546
    35   Atom       -0.002282      0.012673      0.007333
    36   Atom        0.013518      0.033893      0.007061
    37   Atom        0.044477      0.028836      0.010630
    38   Atom       -0.008924     -0.010527     -0.006168
    39   Atom       -0.001959     -0.015556     -0.001151
    40   Atom        0.023604      0.074606      0.019978
    41   Atom        0.000701     -0.004516     -0.002575
    42   Atom        0.000442     -0.004639     -0.001055
    43   Atom       -0.000781     -0.001600     -0.000287
    44   Atom       -0.000703     -0.001459     -0.000381
    45   Atom        0.045493      0.115806      0.032565
    46   Atom       -0.002102     -0.004579      0.003227
    47   Atom       -0.049004     -0.069398      0.107318
    48   Atom       -0.002164      0.001004     -0.005041
 --------------------------------------------------------


 ---------------------------------------------------------------------------------
              Anisotropic Spin Dipole Couplings in Principal Axis System
 ---------------------------------------------------------------------------------

       Atom             a.u.   MegaHertz   Gauss  10(-4) cm-1        Axes

              Baa    -0.0016    -0.219    -0.078    -0.073 -0.0277  0.7861  0.6175
     1 C(13)  Bbb    -0.0006    -0.082    -0.029    -0.027  0.8623 -0.2937  0.4126
              Bcc     0.0022     0.301     0.107     0.100 -0.5057 -0.5439  0.6697
 
              Baa    -0.0043    -0.583    -0.208    -0.194  0.4924  0.8267 -0.2721
     2 C(13)  Bbb    -0.0014    -0.186    -0.066    -0.062  0.7231 -0.5626 -0.4007
              Bcc     0.0057     0.768     0.274     0.256  0.4843 -0.0006  0.8749
 
              Baa    -0.0599    -2.454    -0.876    -0.819  0.9482  0.1757  0.2646
     3 S(33)  Bbb    -0.0470    -1.929    -0.688    -0.643 -0.2257  0.9588  0.1723
              Bcc     0.1069     4.383     1.564     1.462 -0.2234 -0.2231  0.9489
 
              Baa    -0.0048    -0.642    -0.229    -0.214  0.8246 -0.5448  0.1524
     4 C(13)  Bbb    -0.0012    -0.162    -0.058    -0.054  0.2180  0.5545  0.8031
              Bcc     0.0060     0.805     0.287     0.268  0.5221  0.6290 -0.5760
 
              Baa    -0.0340    -4.557    -1.626    -1.520 -0.0247 -0.5086  0.8606
     5 C(13)  Bbb     0.0129     1.734     0.619     0.578  0.7100  0.5971  0.3733
              Bcc     0.0210     2.823     1.007     0.942  0.7038 -0.6203 -0.3463
 
              Baa    -0.0866   -11.620    -4.146    -3.876  0.3351  0.8427  0.4215
     6 C(13)  Bbb    -0.0734    -9.855    -3.516    -3.287  0.9420 -0.2916 -0.1658
              Bcc     0.1600    21.475     7.663     7.163  0.0168 -0.4526  0.8915
 
              Baa    -0.0011    -0.144    -0.051    -0.048  0.0344 -0.2613  0.9646
     7 C(13)  Bbb     0.0000     0.005     0.002     0.002 -0.4293  0.8677  0.2504
              Bcc     0.0010     0.139     0.050     0.046  0.9025  0.4228  0.0823
 
              Baa    -0.0021    -0.280    -0.100    -0.093 -0.3355 -0.5585  0.7586
     8 C(13)  Bbb     0.0004     0.056     0.020     0.019 -0.5113  0.7843  0.3513
              Bcc     0.0017     0.225     0.080     0.075  0.7912  0.2700  0.5487
 
              Baa    -0.0010    -0.552    -0.197    -0.184 -0.0740 -0.6060  0.7920
     9 H(1)   Bbb    -0.0004    -0.237    -0.084    -0.079 -0.6135  0.6538  0.4429
              Bcc     0.0015     0.789     0.281     0.263  0.7862  0.4532  0.4202
 
              Baa    -0.0538    -7.225    -2.578    -2.410 -0.5711  0.6383  0.5161
    10 C(13)  Bbb    -0.0482    -6.470    -2.309    -2.158  0.8146  0.3632  0.4522
              Bcc     0.1021    13.695     4.887     4.568 -0.1013 -0.6787  0.7274
 
              Baa    -0.0464    -6.222    -2.220    -2.075 -0.0060 -0.4810  0.8767
    11 C(13)  Bbb     0.0210     2.821     1.007     0.941  0.0351  0.8761  0.4808
              Bcc     0.0253     3.401     1.213     1.134  0.9994 -0.0336 -0.0116
 
              Baa    -0.0702    -9.415    -3.359    -3.140  0.9100  0.3151  0.2697
    12 C(13)  Bbb    -0.0650    -8.719    -3.111    -2.908 -0.4140  0.6528  0.6343
              Bcc     0.1351    18.134     6.471     6.049  0.0238 -0.6889  0.7245
 
              Baa    -0.0186    -2.491    -0.889    -0.831  0.2343  0.9146 -0.3296
    13 C(13)  Bbb     0.0074     0.988     0.352     0.329  0.0166  0.3352  0.9420
              Bcc     0.0112     1.504     0.536     0.502  0.9720 -0.2262  0.0633
 
              Baa    -0.0044    -2.344    -0.836    -0.782  0.4144 -0.5046  0.7574
    14 H(1)   Bbb    -0.0027    -1.434    -0.512    -0.478  0.9057  0.1464 -0.3979
              Bcc     0.0071     3.778     1.348     1.260  0.0899  0.8508  0.5177
 
              Baa    -0.0028    -1.502    -0.536    -0.501  0.0132 -0.5850  0.8109
    15 H(1)   Bbb     0.0005     0.292     0.104     0.097 -0.1758  0.7970  0.5779
              Bcc     0.0023     1.210     0.432     0.404  0.9843  0.1502  0.0923
 
              Baa    -0.0052    -2.772    -0.989    -0.925 -0.6270  0.0234  0.7787
    16 H(1)   Bbb    -0.0036    -1.904    -0.679    -0.635 -0.5236  0.7274 -0.4435
              Bcc     0.0088     4.676     1.669     1.560  0.5768  0.6858  0.4438
 
              Baa    -0.0023    -0.305    -0.109    -0.102 -0.5514  0.7390  0.3871
    17 C(13)  Bbb    -0.0016    -0.216    -0.077    -0.072  0.8197  0.3937  0.4160
              Bcc     0.0039     0.520     0.186     0.174 -0.1550 -0.5467  0.8228
 
              Baa    -0.0004    -0.209    -0.075    -0.070  0.2308  0.7374 -0.6347
    18 H(1)   Bbb    -0.0003    -0.148    -0.053    -0.049  0.2833  0.5732  0.7689
              Bcc     0.0007     0.357     0.127     0.119  0.9308 -0.3573 -0.0766
 
              Baa    -0.0015    -0.784    -0.280    -0.262 -0.0448 -0.2125  0.9761
    19 H(1)   Bbb    -0.0007    -0.351    -0.125    -0.117  0.7201  0.6704  0.1790
              Bcc     0.0021     1.136     0.405     0.379 -0.6924  0.7109  0.1230
 
              Baa    -0.0002    -0.117    -0.042    -0.039 -0.1790 -0.3136  0.9325
    20 H(1)   Bbb    -0.0001    -0.058    -0.021    -0.019  0.0830  0.9397  0.3319
              Bcc     0.0003     0.175     0.062     0.058  0.9803 -0.1368  0.1422
 
              Baa    -0.0003    -0.183    -0.065    -0.061 -0.1011 -0.5851  0.8046
    21 H(1)   Bbb    -0.0002    -0.119    -0.042    -0.040 -0.4607  0.7444  0.4834
              Bcc     0.0006     0.302     0.108     0.101  0.8818  0.3218  0.3448
 
              Baa    -0.0003    -0.184    -0.066    -0.061 -0.5512  0.7444  0.3769
    22 H(1)   Bbb    -0.0002    -0.089    -0.032    -0.030 -0.1279 -0.5218  0.8434
              Bcc     0.0005     0.273     0.098     0.091  0.8245  0.4167  0.3829
 
              Baa    -0.0110    -0.452    -0.161    -0.151 -0.1793  0.3013  0.9365
    23 S(33)  Bbb    -0.0057    -0.235    -0.084    -0.078  0.7101 -0.6193  0.3352
              Bcc     0.0167     0.687     0.245     0.229  0.6809  0.7251 -0.1029
 
              Baa    -0.4825   -18.607    -6.639    -6.207  0.9787  0.0420 -0.2011
    24 N(14)  Bbb    -0.4819   -18.584    -6.631    -6.199 -0.0487  0.9984 -0.0285
              Bcc     0.9643    37.191    13.271    12.406  0.1995  0.0377  0.9792
 
              Baa    -0.0204    -2.731    -0.975    -0.911  0.7326 -0.6705  0.1174
    25 C(13)  Bbb     0.0027     0.361     0.129     0.120  0.6806  0.7242 -0.1111
              Bcc     0.0177     2.370     0.846     0.791 -0.0106  0.1613  0.9869
 
              Baa    -0.0431    -5.784    -2.064    -1.929  0.0419  0.7527 -0.6571
    26 C(13)  Bbb    -0.0367    -4.930    -1.759    -1.644  0.7679  0.3964  0.5031
              Bcc     0.0798    10.714     3.823     3.574  0.6391 -0.5257 -0.5614
 
              Baa    -0.0490    -6.575    -2.346    -2.193  0.8807  0.2011  0.4289
    27 C(13)  Bbb    -0.0426    -5.722    -2.042    -1.909 -0.2196 -0.6290  0.7457
              Bcc     0.0916    12.297     4.388     4.102 -0.4198  0.7509  0.5098
 
              Baa    -0.0214    -2.872    -1.025    -0.958 -0.1599  0.6058  0.7794
    28 C(13)  Bbb     0.0082     1.101     0.393     0.367 -0.5275  0.6150 -0.5862
              Bcc     0.0132     1.771     0.632     0.591  0.8344  0.5049 -0.2212
 
              Baa    -0.0208    -2.793    -0.997    -0.932 -0.3971  0.3698  0.8400
    29 C(13)  Bbb     0.0079     1.057     0.377     0.352  0.7276 -0.4310  0.5337
              Bcc     0.0129     1.736     0.620     0.579  0.5594  0.8231 -0.0979
 
              Baa    -0.0550    -7.383    -2.635    -2.463  0.6318 -0.5316  0.5641
    30 C(13)  Bbb    -0.0492    -6.602    -2.356    -2.202  0.7146  0.6814 -0.1583
              Bcc     0.1042    13.986     4.991     4.665 -0.3002  0.5032  0.8104
 
              Baa    -0.0042    -2.262    -0.807    -0.755 -0.2030  0.5998  0.7740
    31 H(1)   Bbb    -0.0018    -0.973    -0.347    -0.325  0.7419  0.6100 -0.2782
              Bcc     0.0061     3.235     1.154     1.079  0.6390 -0.5178  0.5688
 
              Baa    -0.0040    -2.161    -0.771    -0.721 -0.4004  0.4304  0.8090
    32 H(1)   Bbb    -0.0022    -1.194    -0.426    -0.398  0.5600  0.8137 -0.1557
              Bcc     0.0063     3.355     1.197     1.119  0.7253 -0.3907  0.5668
 
              Baa    -0.0023    -1.244    -0.444    -0.415 -0.4068  0.5863  0.7005
    33 H(1)   Bbb     0.0009     0.467     0.167     0.156  0.6355  0.7325 -0.2441
              Bcc     0.0015     0.777     0.277     0.259  0.6562 -0.3459  0.6706
 
              Baa    -0.0024    -1.269    -0.453    -0.423 -0.4163  0.5764  0.7032
    34 H(1)   Bbb     0.0010     0.532     0.190     0.178  0.8716  0.4733  0.1280
              Bcc     0.0014     0.736     0.263     0.246  0.2590 -0.6662  0.6994
 
              Baa    -0.0208    -2.793    -0.997    -0.932  0.8938  0.2064 -0.3982
    35 C(13)  Bbb     0.0019     0.256     0.091     0.085 -0.3270  0.9075 -0.2636
              Bcc     0.0189     2.538     0.905     0.846  0.3070  0.3658  0.8786
 
              Baa    -0.0481    -6.461    -2.305    -2.155  0.0893  0.7639 -0.6391
    36 C(13)  Bbb    -0.0416    -5.588    -1.994    -1.864 -0.2744  0.6357  0.7215
              Bcc     0.0898    12.048     4.299     4.019  0.9575  0.1110  0.2664
 
              Baa    -0.0434    -5.830    -2.080    -1.945 -0.4654  0.5266  0.7114
    37 C(13)  Bbb    -0.0375    -5.027    -1.794    -1.677 -0.1597  0.7406 -0.6527
              Bcc     0.0809    10.857     3.874     3.622  0.8706  0.4174  0.2606
 
              Baa    -0.0184    -2.471    -0.882    -0.824  0.6643  0.3929  0.6358
    38 C(13)  Bbb     0.0064     0.865     0.309     0.289 -0.5412 -0.3339  0.7718
              Bcc     0.0120     1.605     0.573     0.535 -0.5156  0.8568  0.0091
 
              Baa    -0.0230    -3.091    -1.103    -1.031  0.7917  0.0614  0.6078
    39 C(13)  Bbb     0.0093     1.245     0.444     0.415 -0.6047 -0.0626  0.7940
              Bcc     0.0138     1.846     0.659     0.616 -0.0868  0.9961  0.0124
 
              Baa    -0.0552    -7.404    -2.642    -2.470 -0.5902 -0.1561  0.7920
    40 C(13)  Bbb    -0.0494    -6.626    -2.364    -2.210 -0.2576  0.9662 -0.0015
              Bcc     0.1046    14.031     5.006     4.680  0.7650  0.2050  0.6105
 
              Baa    -0.0044    -2.333    -0.832    -0.778  0.6912  0.3935  0.6061
    41 H(1)   Bbb    -0.0020    -1.088    -0.388    -0.363 -0.4950  0.8689  0.0003
              Bcc     0.0064     3.421     1.221     1.141 -0.5265 -0.3002  0.7954
 
              Baa    -0.0042    -2.217    -0.791    -0.740  0.8069  0.1005  0.5821
    42 H(1)   Bbb    -0.0017    -0.925    -0.330    -0.309 -0.1674  0.9839  0.0623
              Bcc     0.0059     3.142     1.121     1.048 -0.5665 -0.1477  0.8107
 
              Baa    -0.0024    -1.271    -0.454    -0.424  0.8426  0.2668  0.4678
    43 H(1)   Bbb     0.0008     0.422     0.150     0.141 -0.1480  0.9499 -0.2752
              Bcc     0.0016     0.850     0.303     0.283 -0.5178  0.1627  0.8399
 
              Baa    -0.0023    -1.247    -0.445    -0.416  0.8517  0.2486  0.4614
    44 H(1)   Bbb     0.0010     0.526     0.188     0.175 -0.2185  0.9686 -0.1186
              Bcc     0.0014     0.722     0.257     0.241 -0.4764  0.0002  0.8793
 
              Baa    -0.0891     6.449     2.301     2.151  0.1884  0.7846 -0.5907
    45 O(17)  Bbb    -0.0860     6.222     2.220     2.075 -0.5579  0.5805  0.5931
              Bcc     0.1751   -12.671    -4.521    -4.227  0.8082  0.2178  0.5471
 
              Baa    -0.0048    -2.543    -0.908    -0.848  0.0276  0.9208 -0.3890
    46 H(1)   Bbb    -0.0029    -1.546    -0.552    -0.516  0.8060  0.2097  0.5536
              Bcc     0.0077     4.090     1.459     1.364 -0.5913  0.3289  0.7364
 
              Baa    -0.0883     6.388     2.279     2.131  0.9347  0.1294  0.3310
    47 O(17)  Bbb    -0.0851     6.160     2.198     2.055  0.0809  0.8294 -0.5528
              Bcc     0.1734   -12.547    -4.477    -4.185 -0.3461  0.5435  0.7648
 
              Baa    -0.0047    -2.527    -0.902    -0.843  0.9206  0.3598  0.1516
    48 H(1)   Bbb    -0.0029    -1.531    -0.546    -0.511 -0.3386  0.5425  0.7688
              Bcc     0.0076     4.058     1.448     1.353 -0.1944  0.7591 -0.6213
 

 ---------------------------------------------------------------------------------

 No NMR shielding tensors so no spin-rotation constants.
 Leave Link  601 at Mon Jan 18 17:02:20 2021, MaxMem=  4026531840 cpu:               6.9 elap:               1.0
 (Enter /opt/ohpc/pub/libs/gaussian/g16-A.03/sandybridge/g16/l9999.exe)

 Test job not archived.
 1\1\GINC-CASCADEB025\SP\ULC-wHPBE\TZVP\C24H19N1O2S2(1+,2)\RDU230\18-Ja
 n-2021\0\\#P LC-wHPBE/TZVP iop(3/107=0183600000, 3/108=0183600000) scf
 =(conver=6,fermi,ndamp=35,noincfock,novaracc,vshift=500,xqc)\\H19 C24 
 S2 N1 O2\\1,2\C,0,-6.54463,-1.193879,0.12701\C,0,-5.283469,-0.647909,0
 .131523\S,0,-3.665919,-1.107322,1.042984\C,0,-4.996815,0.486583,-0.537
 83\C,0,-1.475687,0.036886,0.221747\C,0,-1.772288,-1.094442,0.892846\C,
 0,-7.517398,-0.549399,-0.618903\C,0,-5.951198,1.159916,-1.262339\H,0,-
 2.843406,1.345523,-1.332578\C,0,-0.186077,0.430997,-0.028463\C,0,-0.77
 363,-1.912541,1.366813\C,0,0.53691,-1.552052,1.124661\C,0,0.845585,-0.
 387156,0.425435\H,0,0.045427,1.33981,-0.567415\H,0,-0.986976,-2.816418
 ,1.923251\H,0,1.342687,-2.175375,1.48462\C,0,-7.223748,0.615229,-1.306
 247\H,0,-6.782458,-2.097666,0.673346\H,0,-3.815781,-2.43941,0.928305\H
 ,0,-8.517553,-0.958288,-0.663525\H,0,-5.730059,2.077989,-1.791552\H,0,
 -7.997253,1.105431,-1.881471\S,0,-3.166075,0.851646,-0.124057\N,0,2.18
 2887,-0.044483,0.184905\C,0,3.146505,-1.044921,-0.067172\C,0,4.392012,
 -0.989098,0.539344\C,0,2.878694,-2.090316,-0.930362\C,0,5.345494,-1.94
 6131,0.285899\C,0,3.822608,-3.066997,-1.170354\C,0,5.062274,-2.995295,
 -0.567641\H,0,4.612943,-0.17489,1.215121\H,0,1.913696,-2.145516,-1.414
 069\H,0,6.317156,-1.901598,0.755555\H,0,3.591387,-3.881585,-1.84538\C,
 0,2.575405,1.310294,0.123192\C,0,3.391681,1.763268,-0.894977\C,0,2.164
 04,2.211964,1.09371\C,0,3.796835,3.081396,-0.942072\C,0,2.544098,3.531
 176,1.038879\C,0,3.368807,3.972023,0.020733\H,0,3.723839,1.07184,-1.65
 6403\H,0,1.529535,1.868488,1.898614\H,0,4.442764,3.41523,-1.744528\H,0
 ,2.220724,4.234697,1.791974\O,0,3.726245,5.28132,0.019257\H,0,4.294203
 ,5.466041,-0.728132\O,0,6.032969,-3.920806,-0.776143\H,0,5.721078,-4.5
 93785,-1.380389\\Version=EM64L-G16RevA.03\State=2-A\HF=-1926.2088766\S
 2=0.764769\S2-1=0.\S2A=0.750195\RMSD=7.463e-08\Dipole=2.8525346,-0.563
 4106,-1.1926677\Quadrupole=28.4884078,0.9859708,-29.4743786,4.9051549,
 -5.4339486,-3.4847923\PG=C01 [X(C24H19N1O2S2)]\\@


 The theorems and results in mathematical physics are
 not theorems and results about Nature, but about our
 description of it.
                   --Gerard 't Hooft
 Job cpu time:       0 days 21 hours 53 minutes 15.5 seconds.
 Elapsed time:       0 days  2 hours 45 minutes 13.9 seconds.
 File lengths (MBytes):  RWF=    264 Int=      0 D2E=      0 Chk=     36 Scr=      8
 Normal termination of Gaussian 16 at Mon Jan 18 17:02:21 2021.
