 Entering Gaussian System, Link 0=g16
 Input=mol_ta_ma_half_tune_n3.gjf
 Output=mol_ta_ma_half_tune_n3.log
 Initial command:
 /opt/ohpc/pub/libs/gaussian/g16-A.03/sandybridge/g16/l1.exe "/mnt/gpfs2_4m/scratch/rdu230/ondemand/projects/init_structures/wtuning/mol_ta_ma_half/tuning_mol_ta_ma_half_ocycle0/Gau-158006.inp" -scrdir="/mnt/gpfs2_4m/scratch/rdu230/ondemand/projects/init_structures/wtuning/mol_ta_ma_half/tuning_mol_ta_ma_half_ocycle0/"
 Entering Link 1 = /opt/ohpc/pub/libs/gaussian/g16-A.03/sandybridge/g16/l1.exe PID=    158007.
  
 Copyright (c) 1988,1990,1992,1993,1995,1998,2003,2009,2016,
            Gaussian, Inc.  All Rights Reserved.
  
 This is part of the Gaussian(R) 16 program.  It is based on
 the Gaussian(R) 09 system (copyright 2009, Gaussian, Inc.),
 the Gaussian(R) 03 system (copyright 2003, Gaussian, Inc.),
 the Gaussian(R) 98 system (copyright 1998, Gaussian, Inc.),
 the Gaussian(R) 94 system (copyright 1995, Gaussian, Inc.),
 the Gaussian 92(TM) system (copyright 1992, Gaussian, Inc.),
 the Gaussian 90(TM) system (copyright 1990, Gaussian, Inc.),
 the Gaussian 88(TM) system (copyright 1988, Gaussian, Inc.),
 the Gaussian 86(TM) system (copyright 1986, Carnegie Mellon
 University), and the Gaussian 82(TM) system (copyright 1983,
 Carnegie Mellon University). Gaussian is a federally registered
 trademark of Gaussian, Inc.
  
 This software contains proprietary and confidential information,
 including trade secrets, belonging to Gaussian, Inc.
  
 This software is provided under written license and may be
 used, copied, transmitted, or stored only in accord with that
 written license.
  
 The following legend is applicable only to US Government
 contracts under FAR:
  
                    RESTRICTED RIGHTS LEGEND
  
 Use, reproduction and disclosure by the US Government is
 subject to restrictions as set forth in subparagraphs (a)
 and (c) of the Commercial Computer Software - Restricted
 Rights clause in FAR 52.227-19.
  
 Gaussian, Inc.
 340 Quinnipiac St., Bldg. 40, Wallingford CT 06492
  
  
 ---------------------------------------------------------------
 Warning -- This program may not be used in any manner that
 competes with the business of Gaussian, Inc. or will provide
 assistance to any competitor of Gaussian, Inc.  The licensee
 of this program is prohibited from giving any competitor of
 Gaussian, Inc. access to this program.  By using this program,
 the user acknowledges that Gaussian, Inc. is engaged in the
 business of creating and licensing software in the field of
 computational chemistry and represents and warrants to the
 licensee that it is not a competitor of Gaussian, Inc. and that
 it will not use this program in any manner prohibited above.
 ---------------------------------------------------------------
  

 Cite this work as:
 Gaussian 16, Revision A.03,
 M. J. Frisch, G. W. Trucks, H. B. Schlegel, G. E. Scuseria, 
 M. A. Robb, J. R. Cheeseman, G. Scalmani, V. Barone, 
 G. A. Petersson, H. Nakatsuji, X. Li, M. Caricato, A. V. Marenich, 
 J. Bloino, B. G. Janesko, R. Gomperts, B. Mennucci, H. P. Hratchian, 
 J. V. Ortiz, A. F. Izmaylov, J. L. Sonnenberg, D. Williams-Young, 
 F. Ding, F. Lipparini, F. Egidi, J. Goings, B. Peng, A. Petrone, 
 T. Henderson, D. Ranasinghe, V. G. Zakrzewski, J. Gao, N. Rega, 
 G. Zheng, W. Liang, M. Hada, M. Ehara, K. Toyota, R. Fukuda, 
 J. Hasegawa, M. Ishida, T. Nakajima, Y. Honda, O. Kitao, H. Nakai, 
 T. Vreven, K. Throssell, J. A. Montgomery, Jr., J. E. Peralta, 
 F. Ogliaro, M. J. Bearpark, J. J. Heyd, E. N. Brothers, K. N. Kudin, 
 V. N. Staroverov, T. A. Keith, R. Kobayashi, J. Normand, 
 K. Raghavachari, A. P. Rendell, J. C. Burant, S. S. Iyengar, 
 J. Tomasi, M. Cossi, J. M. Millam, M. Klene, C. Adamo, R. Cammi, 
 J. W. Ochterski, R. L. Martin, K. Morokuma, O. Farkas, 
 J. B. Foresman, and D. J. Fox, Gaussian, Inc., Wallingford CT, 2016.
 
 ******************************************
 Gaussian 16:  EM64L-G16RevA.03 25-Dec-2016
                18-Jan-2021 
 ******************************************
 %mem=30GB
 %nproc=8
 Will use up to    8 processors via shared memory.
 ----------------------------------------------------------------------
 #P LC-wHPBE/TZVP iop(3/107=0115700000, 3/108=0115700000) scf=(conver=6
 ,fermi,ndamp=35,noincfock,novaracc,vshift=500,xqc)
 ----------------------------------------------------------------------
 1/38=1,172=1/1;
 2/12=2,17=6,18=5,40=1/2;
 3/5=19,7=101,11=2,25=1,30=1,74=-71,107=115700000,108=115700000/1,2,3;
 4//1;
 5/5=100002,6=6,8=3,10=500,13=1,18=-1,22=13,38=1,93=35/2,8;
 6/7=2,8=2,9=2,10=2,28=1/1;
 99/5=1,9=1/99;
 Leave Link    1 at Mon Jan 18 09:24:03 2021, MaxMem=  4026531840 cpu:               1.2 elap:               0.2
 (Enter /opt/ohpc/pub/libs/gaussian/g16-A.03/sandybridge/g16/l101.exe)
 ----------------
 H19 C24 S2 N1 O2
 ----------------
 Symbolic Z-matrix:
 Charge =  0 Multiplicity = 1
 C                    -6.54463  -1.19388   0.12701 
 C                    -5.28347  -0.64791   0.13152 
 S                    -3.66592  -1.10732   1.04298 
 C                    -4.99682   0.48658  -0.53783 
 C                    -1.47569   0.03689   0.22175 
 C                    -1.77229  -1.09444   0.89285 
 C                    -7.5174   -0.5494   -0.6189 
 C                    -5.9512    1.15992  -1.26234 
 H                    -2.84341   1.34552  -1.33258 
 C                    -0.18608   0.431    -0.02846 
 C                    -0.77363  -1.91254   1.36681 
 C                     0.53691  -1.55205   1.12466 
 C                     0.84559  -0.38716   0.42544 
 H                     0.04543   1.33981  -0.56742 
 H                    -0.98698  -2.81642   1.92325 
 H                     1.34269  -2.17537   1.48462 
 C                    -7.22375   0.61523  -1.30625 
 H                    -6.78246  -2.09767   0.67335 
 H                    -3.81578  -2.43941   0.92831 
 H                    -8.51755  -0.95829  -0.66353 
 H                    -5.73006   2.07799  -1.79155 
 H                    -7.99725   1.10543  -1.88147 
 S                    -3.16608   0.85165  -0.12406 
 N                     2.18289  -0.04448   0.18491 
 C                     3.1465   -1.04492  -0.06717 
 C                     4.39201  -0.9891    0.53934 
 C                     2.87869  -2.09032  -0.93036 
 C                     5.34549  -1.94613   0.2859 
 C                     3.82261  -3.067    -1.17035 
 C                     5.06227  -2.9953   -0.56764 
 H                     4.61294  -0.17489   1.21512 
 H                     1.9137   -2.14552  -1.41407 
 H                     6.31716  -1.9016    0.75556 
 H                     3.59139  -3.88159  -1.84538 
 C                     2.5754    1.31029   0.12319 
 C                     3.39168   1.76327  -0.89498 
 C                     2.16404   2.21196   1.09371 
 C                     3.79684   3.0814   -0.94207 
 C                     2.5441    3.53118   1.03888 
 C                     3.36881   3.97202   0.02073 
 H                     3.72384   1.07184  -1.6564 
 H                     1.52954   1.86849   1.89861 
 H                     4.44276   3.41523  -1.74453 
 H                     2.22072   4.2347    1.79197 
 O                     3.72625   5.28132   0.01926 
 H                     4.2942    5.46604  -0.72813 
 O                     6.03297  -3.92081  -0.77614 
 H                     5.72108  -4.59379  -1.38039 
 
 ITRead=  0  0  0  0  0  0  0  0  0  0  0  0  0  0  0  0  0  0  0  0
 ITRead=  0  0  0  0  0  0  0  0  0  0  0  0  0  0  0  0  0  0  0  0
 ITRead=  0  0  0  0  0  0  0  0
 MicOpt= -1 -1 -1 -1 -1 -1 -1 -1 -1 -1 -1 -1 -1 -1 -1 -1 -1 -1 -1 -1
 MicOpt= -1 -1 -1 -1 -1 -1 -1 -1 -1 -1 -1 -1 -1 -1 -1 -1 -1 -1 -1 -1
 MicOpt= -1 -1 -1 -1 -1 -1 -1 -1
 NAtoms=     48 NQM=       48 NQMF=       0 NMMI=      0 NMMIF=      0
                NMic=       0 NMicF=      0.
                    Isotopes and Nuclear Properties:
 (Nuclear quadrupole moments (NQMom) in fm**2, nuclear magnetic moments (NMagM)
  in nuclear magnetons)

  Atom         1           2           3           4           5           6           7           8           9          10
 IAtWgt=          12          12          32          12          12          12          12          12           1          12
 AtmWgt=  12.0000000  12.0000000  31.9720718  12.0000000  12.0000000  12.0000000  12.0000000  12.0000000   1.0078250  12.0000000
 NucSpn=           0           0           0           0           0           0           0           0           1           0
 AtZEff=  -0.0000000  -0.0000000  -0.0000000  -0.0000000  -0.0000000  -0.0000000  -0.0000000  -0.0000000  -0.0000000  -0.0000000
 NQMom=    0.0000000   0.0000000   0.0000000   0.0000000   0.0000000   0.0000000   0.0000000   0.0000000   0.0000000   0.0000000
 NMagM=    0.0000000   0.0000000   0.0000000   0.0000000   0.0000000   0.0000000   0.0000000   0.0000000   2.7928460   0.0000000
 AtZNuc=   6.0000000   6.0000000  16.0000000   6.0000000   6.0000000   6.0000000   6.0000000   6.0000000   1.0000000   6.0000000

  Atom        11          12          13          14          15          16          17          18          19          20
 IAtWgt=          12          12          12           1           1           1          12           1           1           1
 AtmWgt=  12.0000000  12.0000000  12.0000000   1.0078250   1.0078250   1.0078250  12.0000000   1.0078250   1.0078250   1.0078250
 NucSpn=           0           0           0           1           1           1           0           1           1           1
 AtZEff=  -0.0000000  -0.0000000  -0.0000000  -0.0000000  -0.0000000  -0.0000000  -0.0000000  -0.0000000  -0.0000000  -0.0000000
 NQMom=    0.0000000   0.0000000   0.0000000   0.0000000   0.0000000   0.0000000   0.0000000   0.0000000   0.0000000   0.0000000
 NMagM=    0.0000000   0.0000000   0.0000000   2.7928460   2.7928460   2.7928460   0.0000000   2.7928460   2.7928460   2.7928460
 AtZNuc=   6.0000000   6.0000000   6.0000000   1.0000000   1.0000000   1.0000000   6.0000000   1.0000000   1.0000000   1.0000000

  Atom        21          22          23          24          25          26          27          28          29          30
 IAtWgt=           1           1          32          14          12          12          12          12          12          12
 AtmWgt=   1.0078250   1.0078250  31.9720718  14.0030740  12.0000000  12.0000000  12.0000000  12.0000000  12.0000000  12.0000000
 NucSpn=           1           1           0           2           0           0           0           0           0           0
 AtZEff=  -0.0000000  -0.0000000  -0.0000000  -0.0000000  -0.0000000  -0.0000000  -0.0000000  -0.0000000  -0.0000000  -0.0000000
 NQMom=    0.0000000   0.0000000   0.0000000   2.0440000   0.0000000   0.0000000   0.0000000   0.0000000   0.0000000   0.0000000
 NMagM=    2.7928460   2.7928460   0.0000000   0.4037610   0.0000000   0.0000000   0.0000000   0.0000000   0.0000000   0.0000000
 AtZNuc=   1.0000000   1.0000000  16.0000000   7.0000000   6.0000000   6.0000000   6.0000000   6.0000000   6.0000000   6.0000000

  Atom        31          32          33          34          35          36          37          38          39          40
 IAtWgt=           1           1           1           1          12          12          12          12          12          12
 AtmWgt=   1.0078250   1.0078250   1.0078250   1.0078250  12.0000000  12.0000000  12.0000000  12.0000000  12.0000000  12.0000000
 NucSpn=           1           1           1           1           0           0           0           0           0           0
 AtZEff=  -0.0000000  -0.0000000  -0.0000000  -0.0000000  -0.0000000  -0.0000000  -0.0000000  -0.0000000  -0.0000000  -0.0000000
 NQMom=    0.0000000   0.0000000   0.0000000   0.0000000   0.0000000   0.0000000   0.0000000   0.0000000   0.0000000   0.0000000
 NMagM=    2.7928460   2.7928460   2.7928460   2.7928460   0.0000000   0.0000000   0.0000000   0.0000000   0.0000000   0.0000000
 AtZNuc=   1.0000000   1.0000000   1.0000000   1.0000000   6.0000000   6.0000000   6.0000000   6.0000000   6.0000000   6.0000000

  Atom        41          42          43          44          45          46          47          48
 IAtWgt=           1           1           1           1          16           1          16           1
 AtmWgt=   1.0078250   1.0078250   1.0078250   1.0078250  15.9949146   1.0078250  15.9949146   1.0078250
 NucSpn=           1           1           1           1           0           1           0           1
 AtZEff=  -0.0000000  -0.0000000  -0.0000000  -0.0000000  -0.0000000  -0.0000000  -0.0000000  -0.0000000
 NQMom=    0.0000000   0.0000000   0.0000000   0.0000000   0.0000000   0.0000000   0.0000000   0.0000000
 NMagM=    2.7928460   2.7928460   2.7928460   2.7928460   0.0000000   2.7928460   0.0000000   2.7928460
 AtZNuc=   1.0000000   1.0000000   1.0000000   1.0000000   8.0000000   1.0000000   8.0000000   1.0000000
 Leave Link  101 at Mon Jan 18 09:24:04 2021, MaxMem=  4026531840 cpu:               0.6 elap:               0.1
 (Enter /opt/ohpc/pub/libs/gaussian/g16-A.03/sandybridge/g16/l202.exe)
                          Input orientation:                          
 ---------------------------------------------------------------------
 Center     Atomic      Atomic             Coordinates (Angstroms)
 Number     Number       Type             X           Y           Z
 ---------------------------------------------------------------------
      1          6           0       -6.544630   -1.193879    0.127010
      2          6           0       -5.283469   -0.647909    0.131523
      3         16           0       -3.665919   -1.107322    1.042984
      4          6           0       -4.996815    0.486583   -0.537830
      5          6           0       -1.475687    0.036886    0.221747
      6          6           0       -1.772288   -1.094442    0.892846
      7          6           0       -7.517398   -0.549399   -0.618903
      8          6           0       -5.951198    1.159916   -1.262339
      9          1           0       -2.843406    1.345523   -1.332578
     10          6           0       -0.186077    0.430997   -0.028463
     11          6           0       -0.773630   -1.912541    1.366813
     12          6           0        0.536910   -1.552052    1.124661
     13          6           0        0.845585   -0.387156    0.425435
     14          1           0        0.045427    1.339810   -0.567415
     15          1           0       -0.986976   -2.816418    1.923251
     16          1           0        1.342687   -2.175375    1.484620
     17          6           0       -7.223748    0.615229   -1.306247
     18          1           0       -6.782458   -2.097666    0.673346
     19          1           0       -3.815781   -2.439410    0.928305
     20          1           0       -8.517553   -0.958288   -0.663525
     21          1           0       -5.730059    2.077989   -1.791552
     22          1           0       -7.997253    1.105431   -1.881471
     23         16           0       -3.166075    0.851646   -0.124057
     24          7           0        2.182887   -0.044483    0.184905
     25          6           0        3.146505   -1.044921   -0.067172
     26          6           0        4.392012   -0.989098    0.539344
     27          6           0        2.878694   -2.090316   -0.930362
     28          6           0        5.345494   -1.946131    0.285899
     29          6           0        3.822608   -3.066997   -1.170354
     30          6           0        5.062274   -2.995295   -0.567641
     31          1           0        4.612943   -0.174890    1.215121
     32          1           0        1.913696   -2.145516   -1.414069
     33          1           0        6.317156   -1.901598    0.755555
     34          1           0        3.591387   -3.881585   -1.845380
     35          6           0        2.575405    1.310294    0.123192
     36          6           0        3.391681    1.763268   -0.894977
     37          6           0        2.164040    2.211964    1.093710
     38          6           0        3.796835    3.081396   -0.942072
     39          6           0        2.544098    3.531176    1.038879
     40          6           0        3.368807    3.972023    0.020733
     41          1           0        3.723839    1.071840   -1.656403
     42          1           0        1.529535    1.868488    1.898614
     43          1           0        4.442764    3.415230   -1.744528
     44          1           0        2.220724    4.234697    1.791974
     45          8           0        3.726245    5.281320    0.019257
     46          1           0        4.294203    5.466041   -0.728132
     47          8           0        6.032969   -3.920806   -0.776143
     48          1           0        5.721078   -4.593785   -1.380389
 ---------------------------------------------------------------------
                    Distance matrix (angstroms):
                    1          2          3          4          5
     1  C    0.000000
     2  C    1.374275   0.000000
     3  S    3.022164   1.912666   0.000000
     4  C    2.379432   1.348064   2.609749   0.000000
     5  C    5.217082   3.869921   2.603989   3.630086   0.000000
     6  C    4.834422   3.620414   1.899617   3.865753   1.348425
     7  C    1.384925   2.358661   4.231671   2.726384   6.128025
     8  C    2.796927   2.378433   3.959467   1.374459   4.847051
     9  H    4.719960   3.474373   3.512303   2.450831   2.449309
    10  C    6.564723   5.212777   3.952686   4.837948   1.371504
    11  C    5.946262   4.843953   3.019698   5.217159   2.367346
    12  C    7.160433   5.973325   4.227083   6.127154   2.718552
    13  C    7.440103   6.141635   4.610171   5.985394   2.368460
    14  H    7.094410   5.730329   4.728206   5.114008   2.152713
    15  H    6.061900   5.135423   3.297365   5.748525   3.357871
    16  H    8.063263   6.933251   5.140225   7.166981   3.798971
    17  C    2.405888   2.725323   4.598284   2.359289   5.975739
    18  H    1.082532   2.154608   3.290931   3.366573   5.737776
    19  H    3.104841   2.449172   1.345388   3.479343   3.479555
    20  H    2.138428   3.344807   5.145166   3.807761   7.166726
    21  H    3.879372   3.365736   4.737243   2.154539   5.130220
    22  H    3.380967   3.806701   5.675312   3.345291   6.935138
    23  S    3.957504   2.607172   2.334392   1.912090   1.908095
    24  N    8.803069   7.490891   6.006202   7.235503   3.659664
    25  C    9.694225   8.441656   6.902569   8.299439   4.755885
    26  C   10.946328   9.690081   8.074521   9.564937   5.965183
    27  C    9.524740   8.356377   6.905963   8.295669   4.981263
    28  C   11.914956  10.709065   9.081979  10.656453   7.103871
    29  C   10.614676   9.511441   8.050915   9.529441   6.296345
    30  C   11.766387  10.631719   9.074134  10.644700   7.249979
    31  H   11.256721   9.966790   8.332984   9.790701   6.172767
    32  H    8.650076   7.512048   6.184421   7.446536   4.350482
    33  H   12.896568  11.684847  10.018746  11.635385   8.048048
    34  H   10.670189   9.650278   8.289009   9.723569   6.730726
    35  C    9.457586   8.099168   6.756109   7.645519   4.247661
    36  C   10.417267   9.062323   7.861660   8.492605   5.283819
    37  C    9.400809   8.035550   6.708849   7.544316   4.328845
    38  C   11.241299   9.874829   8.785130   9.177404   6.198629
    39  C   10.284096   8.919577   7.751128   8.283775   5.388547
    40  C   11.179180   9.809074   8.736825   9.079863   6.244584
    41  H   10.665622   9.342688   8.163575   8.811557   5.624380
    42  H    8.815260   7.474750   6.048164   7.102054   3.898462
    43  H   12.061068  10.706459   9.694041   9.956844   7.092779
    44  H   10.443801   9.105485   7.984405   8.459859   5.809534
    45  O   12.142104  10.786255   9.823790   9.969535   7.389532
    46  H   12.750141  11.395227  10.474230  10.542971   7.979325
    47  O   12.901466  11.815138  10.261254  11.880152   8.546287
    48  H   12.817145  11.787954  10.302615  11.890890   8.706514
                    6          7          8          9         10
     6  C    0.000000
     7  C    5.965630   0.000000
     8  C    5.214426   2.405982   0.000000
     9  H    3.471777   5.093747   3.114122   0.000000
    10  C    2.385758   7.420112   5.940572   3.098140   0.000000
    11  C    1.375227   7.160980   6.569600   4.710166   2.790015
    12  C    2.365489   8.301639   7.426176   5.085322   2.405180
    13  C    2.751724   8.429499   7.172048   4.438631   1.392740
    14  H    3.370761   7.795389   6.039436   2.988455   1.081667
    15  H    2.154913   7.365347   7.113559   5.600760   3.872510
    16  H    3.349878   9.250390   8.477659   6.152780   3.379307
    17  C    6.121879   1.383846   1.384917   4.440880   7.155102
    18  H    5.114337   2.146433   3.879396   5.603161   7.099219
    19  H    2.446643   4.434858   4.723778   4.514734   4.725399
    20  H    6.923830   1.081430   3.381057   6.160448   8.470355
    21  H    5.738838   3.387160   1.082510   3.013292   6.046222
    22  H    7.161457   2.136071   2.138372   5.188551   8.056238
    23  S    2.600768   4.598023   3.024504   1.344824   3.011058
    24  N    4.152951   9.746619   8.349157   5.431251   2.425613
    25  C    5.011847  10.689657   9.437051   6.572253   3.644988
    26  C    6.175326  11.973676  10.716637   7.829803   4.826797
    27  C    5.093867  10.514284   9.414946   6.686494   4.069799
    28  C    7.194205  12.970101  11.817776   8.972878   6.028917
    29  C    6.280974  11.629193  10.649063   7.995773   5.441455
    30  C    7.242755  12.815349  11.791732   9.051387   6.290896
    31  H    6.459149  12.273918  10.932547   8.024934   4.994416
    32  H    4.473599   9.598198   8.532612   5.901187   3.601023
    33  H    8.130772  13.968266  12.804580   9.940824   6.953253
    34  H    6.635892  11.662453  10.808219   8.306153   6.014049
    35  C    5.027679  10.289501   8.639749   5.611062   2.902059
    36  C    6.166798  11.154938   9.369545   6.264369   3.914862
    37  C    5.144642  10.212170   8.515566   5.631351   3.155022
    38  C    7.198589  11.886925   9.940765   6.874485   4.870614
    39  C    6.328417  10.983307   9.115291   6.279020   4.266636
    40  C    7.270523  11.805162   9.819201   6.879066   5.017817
    41  H    6.434195  11.404834   9.683459   6.580917   4.283493
    42  H    4.548907   9.696962   8.151998   5.462299   2.953529
    43  H    8.119098  12.650328  10.646755   7.585622   5.768596
    44  H    6.719546  11.114447   9.250049   6.614799   4.855390
    45  O    8.464477  12.681642  10.596290   7.776778   6.231707
    46  H    9.081290  13.255616  11.126380   8.263745   6.775995
    47  O    8.467343  13.964367  13.025758  10.336047   7.627172
    48  H    8.576919  13.863411  13.013879  10.422478   7.872142
                   11         12         13         14         15
    11  C    0.000000
    12  C    1.380618   0.000000
    13  C    2.415543   1.393262   0.000000
    14  H    3.871677   3.386376   2.146722   0.000000
    15  H    1.082651   2.135087   3.391614   4.954140   0.000000
    16  H    2.135827   1.080453   2.136986   4.272032   2.455741
    17  C    7.425557   8.416308   8.313702   7.342465   7.816853
    18  H    6.051544   7.353538   7.821403   7.744401   5.972142
    19  H    3.118423   4.446558   5.117906   5.606122   3.022282
    20  H    8.062333   9.248430   9.443536   8.866517   8.176408
    21  H    7.103928   7.807458   7.364174   5.949761   7.762204
    22  H    8.475862   9.430323   9.259882   8.152691   8.888239
    23  S    3.948065   4.587936   4.234382   3.278508   4.732297
    24  N    3.691550   2.421806   1.401305   2.655370   4.555601
    25  C    4.263395   2.913354   2.443266   3.943839   4.917891
    26  C    5.312373   3.939711   3.598952   5.053863   5.847034
    27  C    4.318343   3.161772   2.978669   4.463731   4.859397
    28  C    6.213951   4.897071   4.764352   6.294145   6.598371
    29  C    5.375443   4.284619   4.311700   5.835287   5.724096
    30  C    6.242775   5.042396   5.056585   6.630376   6.544461
    31  H    5.661944   4.303348   3.855081   5.131662   6.232031
    32  H    3.874184   2.948371   2.759795   4.044101   4.472327
    33  H    7.117092   5.802557   5.686880   7.182727   7.453238
    34  H    5.766168   4.855687   4.990698   6.439720   6.024829
    35  C    4.811371   3.653960   2.442328   2.622708   5.741126
    36  C    5.998090   4.818714   3.584748   3.388809   6.934592
    37  C    5.071098   4.100771   2.990040   2.829931   5.991800
    38  C    7.152587   6.030534   4.755082   4.152897   8.116596
    39  C    6.383488   5.465837   4.314462   3.691290   7.317277
    40  C    7.321189   6.305054   5.053006   4.280107   8.287059
    41  H    6.186565   4.977514   3.840191   3.845571   7.079848
    42  H    4.459099   3.644777   2.779564   2.926325   5.318062
    43  H    8.079378   6.939873   5.666266   5.002953   9.042572
    44  H    6.850945   6.063580   5.011982   4.321921   7.747567
    45  O    8.591648   7.621598   6.371405   5.424768   9.561015
    46  H    9.193215   8.173354   6.890834   5.924838  10.174469
    47  O    7.413176   6.279388   6.390573   7.972974   7.601712
    48  H    7.544363   6.511760   6.687837   8.251151   7.685770
                   16         17         18         19         20
    16  H    0.000000
    17  C    9.431872   0.000000
    18  H    8.165916   3.387230   0.000000
    19  H    5.195093   5.092964   2.997160   0.000000
    20  H   10.164653   2.136113   2.469000   5.180184   0.000000
    21  H    8.879648   2.146228   4.961790   5.609722   4.273353
    22  H   10.456038   1.081430   4.273482   6.159988   2.452150
    23  S    5.663888   4.232987   4.734186   3.515769   5.674963
    24  N    2.633609   9.546912   9.210404   6.501718  10.772850
    25  C    2.634339  10.575138  10.012040   7.170007  11.679614
    26  C    3.405757  11.870381  11.230123   8.344014  12.965520
    27  C    2.863336  10.465209   9.793354   6.956472  11.455441
    28  C    4.184728  12.925995  12.135085   9.197009  13.930589
    29  C    3.740840  11.644709  10.807694   7.946271  12.529290
    30  C    4.326589  12.826837  11.943344   9.020351  13.732090
    31  H    3.843064  12.128019  11.569172   8.732337  13.287323
    32  H    2.954546   9.546006   8.943304   6.196773  10.525388
    33  H    5.035060  13.926289  13.101339  10.148670  14.932254
    34  H    4.365399  11.725150  10.823262   8.039859  12.512748
    35  C    3.939920   9.927226   9.974290   7.453573  11.349850
    36  C    5.037238  10.685245  10.994524   8.540162  12.218441
    37  C    4.480644   9.820383   9.939288   7.577658  11.279840
    38  C    6.288507  11.299020  11.889226   9.587989  12.963055
    39  C    5.848658  10.460075  10.899639   8.724000  12.058756
    40  C    6.636161  11.190673  11.845472   9.672046  12.886494
    41  H    5.106889  10.962699  11.218546   8.709504  12.448249
    42  H    4.069291   9.405411   9.290903   6.933389  10.747055
    43  H    7.161895  12.005815  12.737494  10.470168  13.721007
    44  H    6.477225  10.578165  11.063789   9.040410  12.178143
    45  O    7.964354  11.976298  12.857298  10.831352  13.758978
    46  H    8.485220  12.511107  13.485779  11.446038  14.332385
    47  O    5.491477  14.021311  13.025361  10.104333  14.849474
    48  H    5.764312  13.953775  12.914598  10.046048  14.712897
                   21         22         23         24         25
    21  H    0.000000
    22  H    2.468628   0.000000
    23  S    3.295219   5.147154   0.000000
    24  N    8.427692  10.451194   5.432301   0.000000
    25  C    9.566579  11.493435   6.591576   1.411729   0.000000
    26  C   10.830347  12.796143   7.807248   2.428612   1.386458
    27  C    9.603491  11.375572   6.770857   2.431748   1.381908
    28  C   11.965668  13.857793   8.968970   3.691686   2.402580
    29  C   10.867852  12.554838   8.080358   3.696079   2.400608
    30  C   11.987936  13.751122   9.094034   4.191001   2.779316
    31  H   11.004237  13.047802   7.959918   2.642636   2.133464
    32  H    8.741137  10.440978   6.037482   2.653963   2.131961
    33  H   12.940644  14.862652   9.913916   4.568008   3.385824
    34  H   11.063850  12.616188   8.427913   4.563911   3.377367
    35  C    8.557823  10.762980   5.765074   1.411843   2.430932
    36  C    9.171098  11.450491   6.665548   2.428022   2.937907
    37  C    8.405920  10.645562   5.634141   2.432660   3.594466
    38  C    9.617180  11.995308   7.356837   3.694053   4.267888
    39  C    8.864805  11.204140   6.413921   3.693925   4.746252
    40  C    9.468955  11.875313   7.243093   4.191143   5.022636
    41  H    9.508248  11.723301   7.061691   2.647853   2.709178
    42  H    8.146344  10.277694   5.212861   2.650118   3.868702
    43  H   10.260446  12.653377   8.190990   4.560633   4.938295
    44  H    8.983763  11.300157   6.643328   4.571158   5.673435
    45  O   10.147021  12.589330   8.194304   5.547393   6.353337
    46  H   10.634641  13.092937   8.792798   5.971362   6.644299
    47  O   13.243316  14.944294  10.383830   5.547308   4.135823
    48  H   13.259342  14.863538  10.498218   5.972026   4.576833
                   26         27         28         29         30
    26  C    0.000000
    27  C    2.379674   0.000000
    28  C    1.374509   2.754121   0.000000
    29  C    2.750446   1.379303   2.386670   0.000000
    30  C    2.387361   2.391354   1.381843   1.380281   0.000000
    31  H    1.080935   3.358508   2.130112   3.831371   3.366723
    32  H    3.360830   1.080852   3.834955   2.133652   3.369289
    33  H    2.141397   3.834182   1.080133   3.360067   2.126441
    34  H    3.833326   2.133971   3.371235   1.082902   2.140476
    35  C    2.959805   3.572969   4.278337   4.731749   5.019947
    36  C    3.260898   3.887739   4.355628   4.857262   5.053905
    37  C    3.939287   4.808036   5.297543   5.978651   6.186711
    38  C    4.372385   5.252592   5.402063   6.152683   6.218336
    39  C    4.908890   5.965822   6.198039   7.074686   7.177530
    40  C    5.092016   6.156033   6.245170   7.153490   7.194271
    41  H    3.084676   3.352706   3.938331   4.168449   4.417963
    42  H    4.266988   5.049303   5.631493   6.247860   6.497618
    43  H    4.961527   5.781022   5.803598   6.537089   6.547036
    44  H    5.794101   6.917357   7.087671   8.040905   8.118804
    45  O    6.327075   7.480718   7.411418   8.433200   8.404271
    46  H    6.579125   7.690455   7.554718   8.557494   8.497641
    47  O    3.608068   3.650196   2.345186   2.402101   1.357311
    48  H    4.294829   3.814319   3.150817   2.445278   1.910432
                   31         32         33         34         35
    31  H    0.000000
    32  H    4.252287   0.000000
    33  H    2.469223   4.915000   0.000000
    34  H    4.914248   2.452471   4.256175   0.000000
    35  C    2.747661   3.839746   4.971603   5.644741   0.000000
    36  C    3.114555   4.210996   4.971308   5.727784   1.381362
    37  C    3.421833   5.033812   5.855264   6.914254   1.387132
    38  C    3.990352   5.575805   5.836453   7.024335   2.400725
    39  C    4.248071   6.216043   6.620519   8.022767   2.402453
    40  C    4.491250   6.449829   6.613029   8.075338   2.779350
    41  H    3.254304   3.699557   4.624302   4.958798   2.131366
    42  H    3.761643   5.218590   6.200117   7.164640   2.134841
    43  H    4.655904   6.117784   6.167043   7.347008   3.377301
    44  H    5.049745   7.147034   7.450439   8.999061   3.385671
    45  O    5.655665   7.778024   7.671327   9.351678   4.135732
    46  H    5.974774   8.004569   7.783044   9.440355   4.577035
    47  O    4.473644   4.530675   2.550306   2.665732   6.334663
    48  H    5.243212   4.526733   3.487899   2.293257   6.856687
                   36         37         38         39         40
    36  C    0.000000
    37  C    2.379770   0.000000
    38  C    1.379793   2.750698   0.000000
    39  C    2.753851   1.373962   2.386591   0.000000
    40  C    2.391160   2.387583   1.379644   1.382430   0.000000
    41  H    1.080820   3.360949   2.133990   3.834667   3.368960
    42  H    3.358989   1.080945   3.831617   2.129088   3.366633
    43  H    2.134360   3.833540   1.082869   3.371310   2.139988
    44  H    3.833902   2.140615   3.359946   1.080123   2.127061
    45  O    3.650267   3.607753   2.401833   2.345230   1.357211
    46  H    3.814828   4.294848   2.445338   3.151015   1.910300
    47  O    6.268909   7.488380   7.352459   8.426064   8.368364
    48  H    6.787771   8.067955   7.924849   9.053234   8.992741
                   41         42         43         44         45
    41  H    0.000000
    42  H    4.252971   0.000000
    43  H    2.452773   4.914448   0.000000
    44  H    4.914705   2.467399   4.256270   0.000000
    45  O    4.530735   4.472688   2.665826   2.550400   0.000000
    46  H    4.527251   5.242668   2.293678   3.488045   0.956707
    47  O    5.570768   7.807123   7.568616   9.361659   9.520124
    48  H    6.013689   8.371491   8.118559  10.012915  10.171336
                   46         47         48
    46  H    0.000000
    47  O    9.546649   0.000000
    48  H   10.181430   0.956708   0.000000
 Stoichiometry    C24H19NO2S2
 Framework group  C1[X(C24H19NO2S2)]
 Deg. of freedom   138
 Full point group                 C1      NOp   1
 Largest Abelian subgroup         C1      NOp   1
 Largest concise Abelian subgroup C1      NOp   1
                         Standard orientation:                         
 ---------------------------------------------------------------------
 Center     Atomic      Atomic             Coordinates (Angstroms)
 Number     Number       Type             X           Y           Z
 ---------------------------------------------------------------------
      1          6           0        6.544630   -1.193879   -0.127010
      2          6           0        5.283469   -0.647909   -0.131523
      3         16           0        3.665919   -1.107322   -1.042984
      4          6           0        4.996815    0.486583    0.537830
      5          6           0        1.475687    0.036886   -0.221747
      6          6           0        1.772288   -1.094442   -0.892846
      7          6           0        7.517398   -0.549399    0.618903
      8          6           0        5.951198    1.159916    1.262339
      9          1           0        2.843406    1.345523    1.332578
     10          6           0        0.186077    0.430997    0.028463
     11          6           0        0.773630   -1.912541   -1.366813
     12          6           0       -0.536910   -1.552052   -1.124661
     13          6           0       -0.845585   -0.387156   -0.425435
     14          1           0       -0.045427    1.339810    0.567415
     15          1           0        0.986976   -2.816418   -1.923251
     16          1           0       -1.342687   -2.175375   -1.484620
     17          6           0        7.223748    0.615229    1.306247
     18          1           0        6.782458   -2.097666   -0.673346
     19          1           0        3.815781   -2.439410   -0.928305
     20          1           0        8.517553   -0.958288    0.663525
     21          1           0        5.730059    2.077989    1.791552
     22          1           0        7.997253    1.105431    1.881471
     23         16           0        3.166075    0.851646    0.124057
     24          7           0       -2.182887   -0.044483   -0.184905
     25          6           0       -3.146505   -1.044921    0.067172
     26          6           0       -4.392012   -0.989098   -0.539344
     27          6           0       -2.878694   -2.090316    0.930362
     28          6           0       -5.345494   -1.946131   -0.285899
     29          6           0       -3.822608   -3.066997    1.170354
     30          6           0       -5.062274   -2.995295    0.567641
     31          1           0       -4.612943   -0.174890   -1.215121
     32          1           0       -1.913696   -2.145516    1.414069
     33          1           0       -6.317156   -1.901598   -0.755555
     34          1           0       -3.591387   -3.881585    1.845380
     35          6           0       -2.575405    1.310294   -0.123192
     36          6           0       -3.391681    1.763268    0.894977
     37          6           0       -2.164040    2.211964   -1.093710
     38          6           0       -3.796835    3.081396    0.942072
     39          6           0       -2.544098    3.531176   -1.038879
     40          6           0       -3.368807    3.972023   -0.020733
     41          1           0       -3.723839    1.071840    1.656403
     42          1           0       -1.529535    1.868488   -1.898614
     43          1           0       -4.442764    3.415230    1.744528
     44          1           0       -2.220724    4.234697   -1.791974
     45          8           0       -3.726245    5.281320   -0.019257
     46          1           0       -4.294203    5.466041    0.728132
     47          8           0       -6.032969   -3.920806    0.776143
     48          1           0       -5.721078   -4.593785    1.380389
 ---------------------------------------------------------------------
 Rotational constants (GHZ):           0.2280536           0.0702108           0.0568934
 Leave Link  202 at Mon Jan 18 09:24:04 2021, MaxMem=  4026531840 cpu:               0.2 elap:               0.0
 (Enter /opt/ohpc/pub/libs/gaussian/g16-A.03/sandybridge/g16/l301.exe)
 Standard basis: TZVP (5D, 7F)
 Ernie: Thresh=  0.10000D-02 Tol=  0.10000D-05 Strict=F.
 There are   700 symmetry adapted cartesian basis functions of A   symmetry.
 There are   671 symmetry adapted basis functions of A   symmetry.
   671 basis functions,  1191 primitive gaussians,   700 cartesian basis functions
   109 alpha electrons      109 beta electrons
       nuclear repulsion energy      2827.2462800785 Hartrees.
 IExCor=33909 DFT=T Ex+Corr=LC-wHPBE ExCW=0 ScaHFX=  1.000000
 ScaDFX=  1.000000  1.000000  1.000000  1.000000 ScalE2=  1.000000  1.000000
 IRadAn=      5 IRanWt=     -1 IRanGd=            0 ICorTp=0 IEmpDi=  4
 HFx  wShort=  0.000000 wLong=  0.115700 cFull=  0.000000 cShort=  0.000000 cLong=  1.000000
 DFx  wShort=  0.000000 wLong=  0.115700 cFull=  0.000000 cShort=  1.000000 cLong=  0.000000
 NAtoms=   48 NActive=   48 NUniq=   48 SFac= 1.00D+00 NAtFMM=   60 NAOKFM=F Big=F
 Integral buffers will be    131072 words long.
 Raffenetti 2 integral format.
 Two-electron integral symmetry is turned on.
 Leave Link  301 at Mon Jan 18 09:24:04 2021, MaxMem=  4026531840 cpu:               0.4 elap:               0.1
 (Enter /opt/ohpc/pub/libs/gaussian/g16-A.03/sandybridge/g16/l302.exe)
 NPDir=0 NMtPBC=     1 NCelOv=     1 NCel=       1 NClECP=     1 NCelD=      1
         NCelK=      1 NCelE2=     1 NClLst=     1 CellRange=     0.0.
 One-electron integrals computed using PRISM.
 One-electron integral symmetry used in STVInt
 NBasis=   671 RedAO= T EigKep=  6.34D-06  NBF=   671
 NBsUse=   671 1.00D-06 EigRej= -1.00D+00 NBFU=   671
 Precomputing XC quadrature grid using
 IXCGrd= 4 IRadAn=           5 IRanWt=          -1 IRanGd=           0 AccXCQ= 0.00D+00.
 Generated NRdTot=       0 NPtTot=           0 NUsed=           0 NTot=          32
 NSgBfM=   657   657   657   657   657 MxSgAt=    48 MxSgA2=    48.
 Leave Link  302 at Mon Jan 18 09:24:05 2021, MaxMem=  4026531840 cpu:              10.3 elap:               1.3
 (Enter /opt/ohpc/pub/libs/gaussian/g16-A.03/sandybridge/g16/l303.exe)
 DipDrv:  MaxL=1.
 Leave Link  303 at Mon Jan 18 09:24:05 2021, MaxMem=  4026531840 cpu:               1.0 elap:               0.2
 (Enter /opt/ohpc/pub/libs/gaussian/g16-A.03/sandybridge/g16/l401.exe)
 ExpMin= 9.52D-02 ExpMax= 6.07D+04 ExpMxC= 2.07D+03 IAcc=3 IRadAn=         5 AccDes= 0.00D+00
 Harris functional with IExCor=33909 and IRadAn=       5 diagonalized for initial guess.
 HarFok:  IExCor=33909 AccDes= 0.00D+00 IRadAn=         5 IDoV= 1 UseB2=F ITyADJ=14
 ICtDFT=  3500011 ScaDFX=  1.000000  1.000000  1.000000  1.000000
 FoFCou: FMM=F IPFlag=           0 FMFlag=      100000 FMFlg1=           0
         NFxFlg=           0 DoJE=T BraDBF=F KetDBF=T FulRan=T
         wScrn=  0.000000 ICntrl=       500 IOpCl=  0 I1Cent=   200000004 NGrid=           0
         NMat0=    1 NMatS0=      1 NMatT0=    0 NMatD0=    1 NMtDS0=    0 NMtDT0=    0
 Petite list used in FoFCou.
 Harris En= -1912.69065348167    
 JPrj=0 DoOrth=F DoCkMO=F.
 Leave Link  401 at Mon Jan 18 09:24:12 2021, MaxMem=  4026531840 cpu:              56.0 elap:               7.0
 (Enter /opt/ohpc/pub/libs/gaussian/g16-A.03/sandybridge/g16/l502.exe)
 Integral symmetry usage will be decided dynamically.
 Closed shell SCF:
 Using DIIS extrapolation, IDIIS=    10.
 NGot=  4026531840 LenX=  4025539370 LenY=  4025048670
 Requested convergence on RMS density matrix=1.00D-06 within  32 cycles.
 Requested convergence on MAX density matrix=1.00D-04.
 Requested convergence on             energy=1.00D-04.
 Virtual orbitals will be shifted by   0.500 hartree.
 No special actions if energy rises.
 Dynamic level shift is on during FON iterations.

 Cycle   1  Pass 1  IDiag  1:
 FoFJK:  IHMeth= 1 ICntrl=       0 DoSepK=T KAlg= 0 I1Cent=           0 FoldK=F
 IRaf=         1 NMat=       1 IRICut=       1 DoRegI=T DoRafI=F ISym2E= 0 IDoP0=0 IntGTp=1.
 FoFCou: FMM=F IPFlag=           0 FMFlag=      100000 FMFlg1=           0
         NFxFlg=           0 DoJE=T BraDBF=F KetDBF=F FulRan=T
         wScrn=  0.000000 ICntrl=       500 IOpCl=  0 I1Cent=           0 NGrid=           0
         NMat0=    1 NMatS0=      1 NMatT0=    0 NMatD0=    1 NMtDS0=    0 NMtDT0=    0
 Symmetry not used in FoFCou.
 E= -1925.66747015883    
 DIIS: error= 2.15D-02 at cycle   1 NSaved=   1.
 NSaved= 1 IEnMin= 1 EnMin= -1925.66747015883     IErMin= 1 ErrMin= 2.15D-02
 ErrMax= 2.15D-02  0.00D+00 EMaxC= 1.00D+00 BMatC= 6.81D-01 BMatP= 6.81D-01
 IDIUse=1 WtCom= 1.00D+00 WtEn= 0.00D+00
 Coeff-Com:  0.100D+01
 Coeff:      0.100D+01
 Gap=     0.331 Goal=   None    Shift=    0.500
 T= 1297. Gap= 0.606 NK=0 IS=  110 IE=  671 IFin=  109
          NO(<0.9)=   0  NV(>0.1)=   0    109.00e < EF      0.00e >EF  Err=0.0D+00
 GapD=    0.331 DampG=1.000 DampE=0.500 DampFc=0.5000 IDamp=-1.
 Damping current iteration by 5.00D-01
 RMSDP=4.89D-03 MaxDP=3.18D-01              OVMax= 1.10D-01

 Cycle   2  Pass 1  IDiag  1:
 E= -1926.09752816205     Delta-E=       -0.430058003220 Rises=F Damp=T
 DIIS: error= 9.13D-03 at cycle   2 NSaved=   2.
 NSaved= 2 IEnMin= 2 EnMin= -1926.09752816205     IErMin= 2 ErrMin= 9.13D-03
 ErrMax= 9.13D-03  0.00D+00 EMaxC= 1.00D+00 BMatC= 8.55D-02 BMatP= 6.81D-01
 IDIUse=1 WtCom= 1.00D+00 WtEn= 0.00D+00
 Coeff-Com: -0.423D+00 0.142D+01
 Coeff:     -0.423D+00 0.142D+01
 Gap=     0.227 Goal=   None    Shift=    0.500
 T= 1169. Gap= 0.699 NK=0 IS=  110 IE=  671 IFin=  109
          NO(<0.9)=   0  NV(>0.1)=   0    109.00e < EF      0.00e >EF  Err=0.0D+00
 GapD=    0.227 DampG=1.000 DampE=1.000 DampFc=1.0000 IDamp=-1.
 RMSDP=2.13D-03 MaxDP=1.33D-01 DE=-4.30D-01 OVMax= 2.15D-02

 Cycle   3  Pass 1  IDiag  1:
 E= -1926.32253898964     Delta-E=       -0.225010827598 Rises=F Damp=F
 DIIS: error= 3.34D-03 at cycle   3 NSaved=   3.
 NSaved= 3 IEnMin= 3 EnMin= -1926.32253898964     IErMin= 3 ErrMin= 3.34D-03
 ErrMax= 3.34D-03  0.00D+00 EMaxC= 1.00D+00 BMatC= 1.31D-02 BMatP= 8.55D-02
 IDIUse=1 WtCom= 1.00D+00 WtEn= 0.00D+00
 Coeff-Com:  0.754D-01 0.817D-01 0.843D+00
 Coeff:      0.754D-01 0.817D-01 0.843D+00
 Gap=     0.218 Goal=   None    Shift=    0.500
 T=  912. Gap= 0.712 NK=0 IS=  110 IE=  671 IFin=  109
          NO(<0.9)=   0  NV(>0.1)=   0    109.00e < EF      0.00e >EF  Err=0.0D+00
 GapD=    0.218 DampG=1.000 DampE=1.000 DampFc=1.0000 IDamp=-1.
 RMSDP=6.95D-04 MaxDP=4.95D-02 DE=-2.25D-01 OVMax= 1.03D-02

 Cycle   4  Pass 1  IDiag  1:
 E= -1926.33431837641     Delta-E=       -0.011779386765 Rises=F Damp=F
 DIIS: error= 1.74D-03 at cycle   4 NSaved=   4.
 NSaved= 4 IEnMin= 4 EnMin= -1926.33431837641     IErMin= 4 ErrMin= 1.74D-03
 ErrMax= 1.74D-03  0.00D+00 EMaxC= 1.00D+00 BMatC= 1.84D-03 BMatP= 1.31D-02
 IDIUse=1 WtCom= 1.00D+00 WtEn= 0.00D+00
 Coeff-Com:  0.788D-01-0.886D-01 0.921D-01 0.918D+00
 Coeff:      0.788D-01-0.886D-01 0.921D-01 0.918D+00
 Gap=     0.212 Goal=   None    Shift=    0.500
 T=  388. Gap= 0.711 NK=0 IS=  110 IE=  671 IFin=  109
          NO(<0.9)=   0  NV(>0.1)=   0    109.00e < EF      0.00e >EF  Err=0.0D+00
 GapD=    0.212 DampG=1.000 DampE=1.000 DampFc=1.0000 IDamp=-1.
 RMSDP=3.25D-04 MaxDP=2.23D-02 DE=-1.18D-02 OVMax= 6.81D-03

 Cycle   5  Pass 1  IDiag  1:
 E= -1926.33611340439     Delta-E=       -0.001795027983 Rises=F Damp=F
 DIIS: error= 4.38D-04 at cycle   5 NSaved=   5.
 NSaved= 5 IEnMin= 5 EnMin= -1926.33611340439     IErMin= 5 ErrMin= 4.38D-04
 ErrMax= 4.38D-04  0.00D+00 EMaxC= 1.00D+00 BMatC= 2.18D-04 BMatP= 1.84D-03
 IDIUse=1 WtCom= 1.00D+00 WtEn= 0.00D+00
 Coeff-Com:  0.857D-02-0.134D-01-0.837D-01 0.158D-01 0.107D+01
 Coeff:      0.857D-02-0.134D-01-0.837D-01 0.158D-01 0.107D+01
 Gap=     0.211 Goal=   None    Shift=    0.500
 RMSDP=1.80D-04 MaxDP=1.22D-02 DE=-1.80D-03 OVMax= 5.72D-03

 Cycle   6  Pass 1  IDiag  1:
 E= -1926.33650626304     Delta-E=       -0.000392858643 Rises=F Damp=F
 DIIS: error= 3.67D-04 at cycle   6 NSaved=   6.
 NSaved= 6 IEnMin= 6 EnMin= -1926.33650626304     IErMin= 6 ErrMin= 3.67D-04
 ErrMax= 3.67D-04  0.00D+00 EMaxC= 1.00D+00 BMatC= 4.64D-05 BMatP= 2.18D-04
 IDIUse=1 WtCom= 1.00D+00 WtEn= 0.00D+00
 Coeff-Com: -0.130D-01 0.155D-01-0.523D-01-0.126D+00-0.344D-01 0.121D+01
 Coeff:     -0.130D-01 0.155D-01-0.523D-01-0.126D+00-0.344D-01 0.121D+01
 Gap=     0.212 Goal=   None    Shift=    0.500
 RMSDP=1.03D-04 MaxDP=7.56D-03 DE=-3.93D-04 OVMax= 4.87D-03

 Cycle   7  Pass 1  IDiag  1:
 E= -1926.33665747587     Delta-E=       -0.000151212839 Rises=F Damp=F
 DIIS: error= 2.72D-04 at cycle   7 NSaved=   7.
 NSaved= 7 IEnMin= 7 EnMin= -1926.33665747587     IErMin= 7 ErrMin= 2.72D-04
 ErrMax= 2.72D-04  0.00D+00 EMaxC= 1.00D+00 BMatC= 1.81D-05 BMatP= 4.64D-05
 IDIUse=1 WtCom= 1.00D+00 WtEn= 0.00D+00
 Coeff-Com: -0.706D-02 0.664D-02 0.391D-02-0.611D-01-0.348D+00 0.690D-01
 Coeff-Com:  0.134D+01
 Coeff:     -0.706D-02 0.664D-02 0.391D-02-0.611D-01-0.348D+00 0.690D-01
 Coeff:      0.134D+01
 Gap=     0.211 Goal=   None    Shift=    0.500
 RMSDP=6.35D-05 MaxDP=4.94D-03 DE=-1.51D-04 OVMax= 4.18D-03

 Cycle   8  Pass 1  IDiag  1:
 E= -1926.33673521351     Delta-E=       -0.000077737636 Rises=F Damp=F
 DIIS: error= 1.97D-04 at cycle   8 NSaved=   8.
 NSaved= 8 IEnMin= 8 EnMin= -1926.33673521351     IErMin= 8 ErrMin= 1.97D-04
 ErrMax= 1.97D-04  0.00D+00 EMaxC= 1.00D+00 BMatC= 8.21D-06 BMatP= 1.81D-05
 IDIUse=1 WtCom= 1.00D+00 WtEn= 0.00D+00
 Coeff-Com:  0.295D-02-0.648D-02 0.278D-01 0.183D-01-0.163D+00-0.548D+00
 Coeff-Com:  0.146D+00 0.152D+01
 Coeff:      0.295D-02-0.648D-02 0.278D-01 0.183D-01-0.163D+00-0.548D+00
 Coeff:      0.146D+00 0.152D+01
 Gap=     0.211 Goal=   None    Shift=    0.500
 RMSDP=4.43D-05 MaxDP=3.89D-03 DE=-7.77D-05 OVMax= 3.54D-03

 Cycle   9  Pass 1  IDiag  1:
 E= -1926.33677790066     Delta-E=       -0.000042687153 Rises=F Damp=F
 DIIS: error= 1.57D-04 at cycle   9 NSaved=   9.
 NSaved= 9 IEnMin= 9 EnMin= -1926.33677790066     IErMin= 9 ErrMin= 1.57D-04
 ErrMax= 1.57D-04  0.00D+00 EMaxC= 1.00D+00 BMatC= 3.86D-06 BMatP= 8.21D-06
 IDIUse=1 WtCom= 1.00D+00 WtEn= 0.00D+00
 Coeff-Com:  0.382D-02-0.545D-02 0.794D-02 0.369D-01 0.126D+00-0.377D+00
 Coeff-Com: -0.613D+00-0.535D-01 0.187D+01
 Coeff:      0.382D-02-0.545D-02 0.794D-02 0.369D-01 0.126D+00-0.377D+00
 Coeff:     -0.613D+00-0.535D-01 0.187D+01
 Gap=     0.211 Goal=   None    Shift=    0.500
 RMSDP=3.41D-05 MaxDP=2.91D-03 DE=-4.27D-05 OVMax= 2.95D-03

 Cycle  10  Pass 1  IDiag  1:
 E= -1926.33680112491     Delta-E=       -0.000023224249 Rises=F Damp=F
 DIIS: error= 1.19D-04 at cycle  10 NSaved=  10.
 NSaved=10 IEnMin=10 EnMin= -1926.33680112491     IErMin=10 ErrMin= 1.19D-04
 ErrMax= 1.19D-04  0.00D+00 EMaxC= 1.00D+00 BMatC= 1.95D-06 BMatP= 3.86D-06
 IDIUse=1 WtCom= 1.00D+00 WtEn= 0.00D+00
 Coeff-Com:  0.118D-02-0.101D-02-0.408D-02 0.229D-01 0.129D+00-0.907D-01
 Coeff-Com: -0.445D+00-0.513D+00 0.418D+00 0.148D+01
 Coeff:      0.118D-02-0.101D-02-0.408D-02 0.229D-01 0.129D+00-0.907D-01
 Coeff:     -0.445D+00-0.513D+00 0.418D+00 0.148D+01
 Gap=     0.211 Goal=   None    Shift=    0.500
 RMSDP=2.30D-05 MaxDP=1.91D-03 DE=-2.32D-05 OVMax= 2.25D-03

 Cycle  11  Pass 1  IDiag  1:
 E= -1926.33681306272     Delta-E=       -0.000011937808 Rises=F Damp=F
 DIIS: error= 8.70D-05 at cycle  11 NSaved=  11.
 NSaved=11 IEnMin=11 EnMin= -1926.33681306272     IErMin=11 ErrMin= 8.70D-05
 ErrMax= 8.70D-05  0.00D+00 EMaxC= 1.00D+00 BMatC= 9.49D-07 BMatP= 1.95D-06
 IDIUse=1 WtCom= 1.00D+00 WtEn= 0.00D+00
 Coeff-Com: -0.104D-02 0.175D-02-0.391D-02-0.145D-02-0.110D-01 0.132D+00
 Coeff-Com:  0.103D+00-0.279D+00-0.925D+00-0.288D+00 0.227D+01
 Coeff:     -0.104D-02 0.175D-02-0.391D-02-0.145D-02-0.110D-01 0.132D+00
 Coeff:      0.103D+00-0.279D+00-0.925D+00-0.288D+00 0.227D+01
 Gap=     0.211 Goal=   None    Shift=    0.500
 RMSDP=1.73D-05 MaxDP=1.44D-03 DE=-1.19D-05 OVMax= 1.77D-03

 Cycle  12  Pass 1  IDiag  1:
 E= -1926.33681936690     Delta-E=       -0.000006304183 Rises=F Damp=F
 DIIS: error= 6.42D-05 at cycle  12 NSaved=  12.
 NSaved=12 IEnMin=12 EnMin= -1926.33681936690     IErMin=12 ErrMin= 6.42D-05
 ErrMax= 6.42D-05  0.00D+00 EMaxC= 1.00D+00 BMatC= 5.03D-07 BMatP= 9.49D-07
 IDIUse=1 WtCom= 1.00D+00 WtEn= 0.00D+00
 Coeff-Com: -0.528D-03 0.624D-03 0.169D-02-0.877D-02-0.347D-01 0.718D-01
 Coeff-Com:  0.181D+00 0.550D-01-0.597D+00-0.101D+01 0.599D+00 0.174D+01
 Coeff:     -0.528D-03 0.624D-03 0.169D-02-0.877D-02-0.347D-01 0.718D-01
 Coeff:      0.181D+00 0.550D-01-0.597D+00-0.101D+01 0.599D+00 0.174D+01
 Gap=     0.211 Goal=   None    Shift=    0.500
 RMSDP=1.08D-05 MaxDP=8.96D-04 DE=-6.30D-06 OVMax= 1.31D-03

 Cycle  13  Pass 1  IDiag  1:
 E= -1926.33682256558     Delta-E=       -0.000003198676 Rises=F Damp=F
 DIIS: error= 4.67D-05 at cycle  13 NSaved=  13.
 NSaved=13 IEnMin=13 EnMin= -1926.33682256558     IErMin=13 ErrMin= 4.67D-05
 ErrMax= 4.67D-05  0.00D+00 EMaxC= 1.00D+00 BMatC= 2.62D-07 BMatP= 5.03D-07
 IDIUse=1 WtCom= 1.00D+00 WtEn= 0.00D+00
 Coeff-Com:  0.323D-05-0.138D-03 0.333D-02-0.565D-02-0.146D-01-0.156D-01
 Coeff-Com:  0.918D-01 0.171D+00-0.324D-01-0.773D+00-0.349D+00-0.409D-01
 Coeff-Com:  0.197D+01
 Coeff:      0.323D-05-0.138D-03 0.333D-02-0.565D-02-0.146D-01-0.156D-01
 Coeff:      0.918D-01 0.171D+00-0.324D-01-0.773D+00-0.349D+00-0.409D-01
 Coeff:      0.197D+01
 Gap=     0.211 Goal=   None    Shift=    0.500
 RMSDP=7.44D-06 MaxDP=6.25D-04 DE=-3.20D-06 OVMax= 9.61D-04

 Cycle  14  Pass 1  IDiag  1:
 E= -1926.33682417340     Delta-E=       -0.000001607816 Rises=F Damp=F
 DIIS: error= 3.25D-05 at cycle  14 NSaved=  14.
 NSaved=14 IEnMin=14 EnMin= -1926.33682417340     IErMin=14 ErrMin= 3.25D-05
 ErrMax= 3.25D-05  0.00D+00 EMaxC= 1.00D+00 BMatC= 1.33D-07 BMatP= 2.62D-07
 IDIUse=1 WtCom= 1.00D+00 WtEn= 0.00D+00
 Coeff-Com:  0.114D-03-0.163D-03 0.150D-02 0.634D-03 0.434D-03-0.369D-01
 Coeff-Com:  0.927D-02 0.991D-01 0.174D+00-0.202D+00-0.353D+00-0.971D+00
 Coeff-Com:  0.539D+00 0.174D+01
 Coeff:      0.114D-03-0.163D-03 0.150D-02 0.634D-03 0.434D-03-0.369D-01
 Coeff:      0.927D-02 0.991D-01 0.174D+00-0.202D+00-0.353D+00-0.971D+00
 Coeff:      0.539D+00 0.174D+01
 Gap=     0.211 Goal=   None    Shift=    0.500
 RMSDP=4.69D-06 MaxDP=3.65D-04 DE=-1.61D-06 OVMax= 6.85D-04

 Cycle  15  Pass 1  IDiag  1:
 E= -1926.33682496141     Delta-E=       -0.000000788015 Rises=F Damp=F
 DIIS: error= 2.25D-05 at cycle  15 NSaved=  15.
 NSaved=15 IEnMin=15 EnMin= -1926.33682496141     IErMin=15 ErrMin= 2.25D-05
 ErrMax= 2.25D-05  0.00D+00 EMaxC= 1.00D+00 BMatC= 6.26D-08 BMatP= 1.33D-07
 IDIUse=1 WtCom= 1.00D+00 WtEn= 0.00D+00
 Coeff-Com:  0.870D-04-0.106D-03-0.260D-03 0.268D-02 0.433D-02-0.143D-01
 Coeff-Com: -0.233D-01 0.147D-03 0.116D+00 0.144D+00-0.102D+00-0.719D+00
 Coeff-Com: -0.299D+00-0.613D-02 0.190D+01
 Coeff:      0.870D-04-0.106D-03-0.260D-03 0.268D-02 0.433D-02-0.143D-01
 Coeff:     -0.233D-01 0.147D-03 0.116D+00 0.144D+00-0.102D+00-0.719D+00
 Coeff:     -0.299D+00-0.613D-02 0.190D+01
 Gap=     0.211 Goal=   None    Shift=    0.500
 RMSDP=3.03D-06 MaxDP=2.22D-04 DE=-7.88D-07 OVMax= 4.78D-04

 Cycle  16  Pass 1  IDiag  1:
 E= -1926.33682533710     Delta-E=       -0.000000375685 Rises=F Damp=F
 DIIS: error= 1.56D-05 at cycle  16 NSaved=  16.
 NSaved=16 IEnMin=16 EnMin= -1926.33682533710     IErMin=16 ErrMin= 1.56D-05
 ErrMax= 1.56D-05  0.00D+00 EMaxC= 1.00D+00 BMatC= 2.97D-08 BMatP= 6.26D-08
 IDIUse=1 WtCom= 1.00D+00 WtEn= 0.00D+00
 Coeff-Com:  0.407D-04-0.756D-04-0.559D-03 0.118D-02 0.274D-02 0.480D-02
 Coeff-Com: -0.171D-01-0.309D-01 0.817D-02 0.157D+00 0.639D-01-0.184D+00
 Coeff-Com: -0.352D+00-0.822D+00 0.545D+00 0.162D+01
 Coeff:      0.407D-04-0.756D-04-0.559D-03 0.118D-02 0.274D-02 0.480D-02
 Coeff:     -0.171D-01-0.309D-01 0.817D-02 0.157D+00 0.639D-01-0.184D+00
 Coeff:     -0.352D+00-0.822D+00 0.545D+00 0.162D+01
 Gap=     0.211 Goal=   None    Shift=    0.500
 RMSDP=2.10D-06 MaxDP=1.46D-04 DE=-3.76D-07 OVMax= 3.28D-04

 Cycle  17  Pass 1  IDiag  1:
 E= -1926.33682551282     Delta-E=       -0.000000175720 Rises=F Damp=F
 DIIS: error= 1.07D-05 at cycle  17 NSaved=  17.
 NSaved=17 IEnMin=17 EnMin= -1926.33682551282     IErMin=17 ErrMin= 1.07D-05
 ErrMax= 1.07D-05  0.00D+00 EMaxC= 1.00D+00 BMatC= 1.49D-08 BMatP= 2.97D-08
 IDIUse=1 WtCom= 1.00D+00 WtEn= 0.00D+00
 Coeff-Com: -0.700D-05-0.105D-04-0.726D-04-0.578D-03-0.372D-04 0.711D-02
 Coeff-Com:  0.690D-03-0.105D-01-0.407D-01 0.286D-01 0.854D-01 0.131D+00
 Coeff-Com: -0.103D+00-0.495D+00-0.661D+00 0.176D+00 0.188D+01
 Coeff:     -0.700D-05-0.105D-04-0.726D-04-0.578D-03-0.372D-04 0.711D-02
 Coeff:      0.690D-03-0.105D-01-0.407D-01 0.286D-01 0.854D-01 0.131D+00
 Coeff:     -0.103D+00-0.495D+00-0.661D+00 0.176D+00 0.188D+01
 Gap=     0.211 Goal=   None    Shift=    0.500
 RMSDP=1.45D-06 MaxDP=9.51D-05 DE=-1.76D-07 OVMax= 2.25D-04

 Cycle  18  Pass 1  IDiag  1:
 E= -1926.33682559585     Delta-E=       -0.000000083036 Rises=F Damp=F
 DIIS: error= 7.35D-06 at cycle  18 NSaved=  18.
 NSaved=18 IEnMin=18 EnMin= -1926.33682559585     IErMin=18 ErrMin= 7.35D-06
 ErrMax= 7.35D-06  0.00D+00 EMaxC= 1.00D+00 BMatC= 7.40D-09 BMatP= 1.49D-08
 IDIUse=1 WtCom= 1.00D+00 WtEn= 0.00D+00
 Coeff-Com: -0.187D-04 0.199D-04 0.108D-03-0.682D-03-0.763D-03 0.360D-02
 Coeff-Com:  0.503D-02 0.164D-02-0.323D-01-0.178D-01 0.552D-01 0.135D+00
 Coeff-Com:  0.829D-02-0.160D+00-0.748D+00-0.262D+00 0.698D+00 0.131D+01
 Coeff:     -0.187D-04 0.199D-04 0.108D-03-0.682D-03-0.763D-03 0.360D-02
 Coeff:      0.503D-02 0.164D-02-0.323D-01-0.178D-01 0.552D-01 0.135D+00
 Coeff:      0.829D-02-0.160D+00-0.748D+00-0.262D+00 0.698D+00 0.131D+01
 Gap=     0.211 Goal=   None    Shift=    0.500
 RMSDP=9.66D-07 MaxDP=5.70D-05 DE=-8.30D-08 OVMax= 1.55D-04

 SCF Done:  E(RLC-wHPBE) =  -1926.33682560     A.U. after   18 cycles
            NFock= 18  Conv=0.97D-06     -V/T= 2.0031
 KE= 1.920430739307D+03 PE=-1.017911754157D+04 EE= 3.505103696583D+03
 Leave Link  502 at Mon Jan 18 09:39:32 2021, MaxMem=  4026531840 cpu:            7338.3 elap:             919.7
 (Enter /opt/ohpc/pub/libs/gaussian/g16-A.03/sandybridge/g16/l508.exe)
 QCSCF skips out because SCF is already converged.
 Leave Link  508 at Mon Jan 18 09:39:32 2021, MaxMem=  4026531840 cpu:               0.1 elap:               0.0
 (Enter /opt/ohpc/pub/libs/gaussian/g16-A.03/sandybridge/g16/l601.exe)
 Copying SCF densities to generalized density rwf, IOpCl= 0 IROHF=0.

 **********************************************************************

            Population analysis using the SCF density.

 **********************************************************************

 Orbital symmetries:
       Occupied  (A) (A) (A) (A) (A) (A) (A) (A) (A) (A) (A) (A)
                 (A) (A) (A) (A) (A) (A) (A) (A) (A) (A) (A) (A)
                 (A) (A) (A) (A) (A) (A) (A) (A) (A) (A) (A) (A)
                 (A) (A) (A) (A) (A) (A) (A) (A) (A) (A) (A) (A)
                 (A) (A) (A) (A) (A) (A) (A) (A) (A) (A) (A) (A)
                 (A) (A) (A) (A) (A) (A) (A) (A) (A) (A) (A) (A)
                 (A) (A) (A) (A) (A) (A) (A) (A) (A) (A) (A) (A)
                 (A) (A) (A) (A) (A) (A) (A) (A) (A) (A) (A) (A)
                 (A) (A) (A) (A) (A) (A) (A) (A) (A) (A) (A) (A)
                 (A)
       Virtual   (A) (A) (A) (A) (A) (A) (A) (A) (A) (A) (A) (A)
                 (A) (A) (A) (A) (A) (A) (A) (A) (A) (A) (A) (A)
                 (A) (A) (A) (A) (A) (A) (A) (A) (A) (A) (A) (A)
                 (A) (A) (A) (A) (A) (A) (A) (A) (A) (A) (A) (A)
                 (A) (A) (A) (A) (A) (A) (A) (A) (A) (A) (A) (A)
                 (A) (A) (A) (A) (A) (A) (A) (A) (A) (A) (A) (A)
                 (A) (A) (A) (A) (A) (A) (A) (A) (A) (A) (A) (A)
                 (A) (A) (A) (A) (A) (A) (A) (A) (A) (A) (A) (A)
                 (A) (A) (A) (A) (A) (A) (A) (A) (A) (A) (A) (A)
                 (A) (A) (A) (A) (A) (A) (A) (A) (A) (A) (A) (A)
                 (A) (A) (A) (A) (A) (A) (A) (A) (A) (A) (A) (A)
                 (A) (A) (A) (A) (A) (A) (A) (A) (A) (A) (A) (A)
                 (A) (A) (A) (A) (A) (A) (A) (A) (A) (A) (A) (A)
                 (A) (A) (A) (A) (A) (A) (A) (A) (A) (A) (A) (A)
                 (A) (A) (A) (A) (A) (A) (A) (A) (A) (A) (A) (A)
                 (A) (A) (A) (A) (A) (A) (A) (A) (A) (A) (A) (A)
                 (A) (A) (A) (A) (A) (A) (A) (A) (A) (A) (A) (A)
                 (A) (A) (A) (A) (A) (A) (A) (A) (A) (A) (A) (A)
                 (A) (A) (A) (A) (A) (A) (A) (A) (A) (A) (A) (A)
                 (A) (A) (A) (A) (A) (A) (A) (A) (A) (A) (A) (A)
                 (A) (A) (A) (A) (A) (A) (A) (A) (A) (A) (A) (A)
                 (A) (A) (A) (A) (A) (A) (A) (A) (A) (A) (A) (A)
                 (A) (A) (A) (A) (A) (A) (A) (A) (A) (A) (A) (A)
                 (A) (A) (A) (A) (A) (A) (A) (A) (A) (A) (A) (A)
                 (A) (A) (A) (A) (A) (A) (A) (A) (A) (A) (A) (A)
                 (A) (A) (A) (A) (A) (A) (A) (A) (A) (A) (A) (A)
                 (A) (A) (A) (A) (A) (A) (A) (A) (A) (A) (A) (A)
                 (A) (A) (A) (A) (A) (A) (A) (A) (A) (A) (A) (A)
                 (A) (A) (A) (A) (A) (A) (A) (A) (A) (A) (A) (A)
                 (A) (A) (A) (A) (A) (A) (A) (A) (A) (A) (A) (A)
                 (A) (A) (A) (A) (A) (A) (A) (A) (A) (A) (A) (A)
                 (A) (A) (A) (A) (A) (A) (A) (A) (A) (A) (A) (A)
                 (A) (A) (A) (A) (A) (A) (A) (A) (A) (A) (A) (A)
                 (A) (A) (A) (A) (A) (A) (A) (A) (A) (A) (A) (A)
                 (A) (A) (A) (A) (A) (A) (A) (A) (A) (A) (A) (A)
                 (A) (A) (A) (A) (A) (A) (A) (A) (A) (A) (A) (A)
                 (A) (A) (A) (A) (A) (A) (A) (A) (A) (A) (A) (A)
                 (A) (A) (A) (A) (A) (A) (A) (A) (A) (A) (A) (A)
                 (A) (A) (A) (A) (A) (A) (A) (A) (A) (A) (A) (A)
                 (A) (A) (A) (A) (A) (A) (A) (A) (A) (A) (A) (A)
                 (A) (A) (A) (A) (A) (A) (A) (A) (A) (A) (A) (A)
                 (A) (A) (A) (A) (A) (A) (A) (A) (A) (A) (A) (A)
                 (A) (A) (A) (A) (A) (A) (A) (A) (A) (A) (A) (A)
                 (A) (A) (A) (A) (A) (A) (A) (A) (A) (A) (A) (A)
                 (A) (A) (A) (A) (A) (A) (A) (A) (A) (A) (A) (A)
                 (A) (A) (A) (A) (A) (A) (A) (A) (A) (A) (A) (A)
                 (A) (A) (A) (A) (A) (A) (A) (A) (A) (A)
 The electronic state is 1-A.
 Alpha  occ. eigenvalues --  -88.19592 -88.19513 -18.84943 -18.84840 -14.08063
 Alpha  occ. eigenvalues --  -10.00892 -10.00794  -9.98910  -9.98396  -9.98332
 Alpha  occ. eigenvalues --   -9.95506  -9.95464  -9.95457  -9.95452  -9.95431
 Alpha  occ. eigenvalues --   -9.95419  -9.95415  -9.95346  -9.95296  -9.95206
 Alpha  occ. eigenvalues --   -9.95131  -9.95051  -9.94993  -9.94931  -9.94922
 Alpha  occ. eigenvalues --   -9.94890  -9.94827  -9.94738  -9.94486  -7.78052
 Alpha  occ. eigenvalues --   -7.77985  -5.80184  -5.80121  -5.80021  -5.79951
 Alpha  occ. eigenvalues --   -5.79285  -5.79216  -1.05049  -1.04949  -0.95890
 Alpha  occ. eigenvalues --   -0.87543  -0.85812  -0.85771  -0.84248  -0.81281
 Alpha  occ. eigenvalues --   -0.76655  -0.76098  -0.75858  -0.75235  -0.75110
 Alpha  occ. eigenvalues --   -0.74571  -0.72768  -0.71678  -0.69610  -0.65155
 Alpha  occ. eigenvalues --   -0.64430  -0.62985  -0.62617  -0.61538  -0.61019
 Alpha  occ. eigenvalues --   -0.59525  -0.58009  -0.56962  -0.56824  -0.55226
 Alpha  occ. eigenvalues --   -0.54919  -0.53337  -0.51665  -0.50166  -0.49295
 Alpha  occ. eigenvalues --   -0.48106  -0.47646  -0.46492  -0.46394  -0.46116
 Alpha  occ. eigenvalues --   -0.45786  -0.45221  -0.44759  -0.44620  -0.44345
 Alpha  occ. eigenvalues --   -0.44019  -0.43693  -0.43538  -0.42317  -0.42268
 Alpha  occ. eigenvalues --   -0.41514  -0.40926  -0.40388  -0.39852  -0.39151
 Alpha  occ. eigenvalues --   -0.38418  -0.37928  -0.37472  -0.37275  -0.36875
 Alpha  occ. eigenvalues --   -0.36494  -0.36283  -0.35043  -0.32381  -0.30679
 Alpha  occ. eigenvalues --   -0.30248  -0.29682  -0.29538  -0.28834  -0.27229
 Alpha  occ. eigenvalues --   -0.27008  -0.26460  -0.22603  -0.21211
 Alpha virt. eigenvalues --   -0.00069   0.00836   0.01148   0.01851   0.02071
 Alpha virt. eigenvalues --    0.02128   0.02172   0.04009   0.05407   0.06078
 Alpha virt. eigenvalues --    0.06196   0.06562   0.07674   0.08761   0.09349
 Alpha virt. eigenvalues --    0.09628   0.10422   0.11500   0.11726   0.11995
 Alpha virt. eigenvalues --    0.12254   0.13064   0.13697   0.14256   0.14790
 Alpha virt. eigenvalues --    0.15142   0.15341   0.15570   0.15733   0.15867
 Alpha virt. eigenvalues --    0.16321   0.16956   0.17119   0.18003   0.18601
 Alpha virt. eigenvalues --    0.19107   0.19242   0.19718   0.20193   0.20697
 Alpha virt. eigenvalues --    0.21703   0.22015   0.22767   0.23170   0.23624
 Alpha virt. eigenvalues --    0.24200   0.24260   0.24438   0.24557   0.24770
 Alpha virt. eigenvalues --    0.25091   0.25699   0.25806   0.25947   0.26337
 Alpha virt. eigenvalues --    0.26604   0.26976   0.27224   0.27321   0.27958
 Alpha virt. eigenvalues --    0.28102   0.28363   0.28708   0.29139   0.29217
 Alpha virt. eigenvalues --    0.29668   0.30171   0.30854   0.31010   0.31213
 Alpha virt. eigenvalues --    0.31595   0.32348   0.32465   0.32826   0.32906
 Alpha virt. eigenvalues --    0.33322   0.33669   0.33861   0.34705   0.35869
 Alpha virt. eigenvalues --    0.36102   0.36253   0.36622   0.36868   0.36997
 Alpha virt. eigenvalues --    0.37150   0.37750   0.38049   0.38770   0.38863
 Alpha virt. eigenvalues --    0.39003   0.39323   0.39927   0.40754   0.40905
 Alpha virt. eigenvalues --    0.41031   0.41356   0.41598   0.41659   0.41723
 Alpha virt. eigenvalues --    0.42212   0.42414   0.42564   0.42855   0.43366
 Alpha virt. eigenvalues --    0.43783   0.43854   0.43998   0.44478   0.44820
 Alpha virt. eigenvalues --    0.44849   0.45238   0.45350   0.45951   0.46236
 Alpha virt. eigenvalues --    0.46942   0.47077   0.47524   0.47901   0.48179
 Alpha virt. eigenvalues --    0.48506   0.49043   0.49739   0.50028   0.50342
 Alpha virt. eigenvalues --    0.50579   0.50891   0.51130   0.51555   0.51673
 Alpha virt. eigenvalues --    0.52121   0.52218   0.52784   0.53138   0.53440
 Alpha virt. eigenvalues --    0.54230   0.54422   0.55013   0.55576   0.56110
 Alpha virt. eigenvalues --    0.56694   0.57204   0.57602   0.57974   0.58317
 Alpha virt. eigenvalues --    0.58660   0.59429   0.59616   0.59803   0.60044
 Alpha virt. eigenvalues --    0.61072   0.61211   0.61607   0.62144   0.63074
 Alpha virt. eigenvalues --    0.63511   0.64102   0.65066   0.67013   0.67221
 Alpha virt. eigenvalues --    0.67633   0.69242   0.69497   0.69761   0.70346
 Alpha virt. eigenvalues --    0.70538   0.70944   0.71331   0.71566   0.72274
 Alpha virt. eigenvalues --    0.72996   0.73246   0.73872   0.74148   0.74782
 Alpha virt. eigenvalues --    0.75456   0.76102   0.77163   0.77860   0.78458
 Alpha virt. eigenvalues --    0.79102   0.79581   0.79627   0.80156   0.80937
 Alpha virt. eigenvalues --    0.81806   0.82314   0.83387   0.84009   0.84508
 Alpha virt. eigenvalues --    0.85783   0.86250   0.87056   0.87413   0.88365
 Alpha virt. eigenvalues --    0.89355   0.89435   0.90303   0.92224   0.93129
 Alpha virt. eigenvalues --    0.93817   0.94723   0.97352   0.98421   1.00088
 Alpha virt. eigenvalues --    1.02320   1.04068   1.14928   1.15964   1.16797
 Alpha virt. eigenvalues --    1.20165   1.21047   1.22164   1.22642   1.23578
 Alpha virt. eigenvalues --    1.23923   1.24315   1.24438   1.24729   1.25034
 Alpha virt. eigenvalues --    1.25436   1.25804   1.26198   1.26693   1.27173
 Alpha virt. eigenvalues --    1.27563   1.27946   1.29322   1.29544   1.29966
 Alpha virt. eigenvalues --    1.30221   1.30966   1.32053   1.32525   1.32797
 Alpha virt. eigenvalues --    1.33273   1.33702   1.34156   1.34417   1.35735
 Alpha virt. eigenvalues --    1.35810   1.36071   1.38393   1.39154   1.39605
 Alpha virt. eigenvalues --    1.40257   1.40582   1.40845   1.41653   1.41971
 Alpha virt. eigenvalues --    1.42167   1.42432   1.42844   1.43179   1.43296
 Alpha virt. eigenvalues --    1.43428   1.44053   1.44454   1.44487   1.44912
 Alpha virt. eigenvalues --    1.44994   1.45243   1.45709   1.46135   1.46911
 Alpha virt. eigenvalues --    1.47235   1.48021   1.48179   1.48358   1.49095
 Alpha virt. eigenvalues --    1.49479   1.49921   1.49988   1.50101   1.50959
 Alpha virt. eigenvalues --    1.51107   1.51591   1.52697   1.52925   1.53151
 Alpha virt. eigenvalues --    1.53214   1.53716   1.53851   1.54022   1.54522
 Alpha virt. eigenvalues --    1.54896   1.54947   1.55290   1.55746   1.56018
 Alpha virt. eigenvalues --    1.56276   1.56716   1.57007   1.57524   1.57818
 Alpha virt. eigenvalues --    1.57917   1.58545   1.58611   1.59581   1.59660
 Alpha virt. eigenvalues --    1.60496   1.61206   1.61810   1.62593   1.62953
 Alpha virt. eigenvalues --    1.64459   1.65602   1.66943   1.67262   1.67524
 Alpha virt. eigenvalues --    1.68217   1.69433   1.70198   1.72577   1.73084
 Alpha virt. eigenvalues --    1.74816   1.75658   1.75993   1.76315   1.76491
 Alpha virt. eigenvalues --    1.76649   1.77039   1.77729   1.77774   1.78287
 Alpha virt. eigenvalues --    1.78764   1.79504   1.79579   1.80673   1.81174
 Alpha virt. eigenvalues --    1.81854   1.81899   1.82341   1.82974   1.83782
 Alpha virt. eigenvalues --    1.84608   1.85966   1.86754   1.87361   1.87662
 Alpha virt. eigenvalues --    1.88056   1.88597   1.88915   1.89567   1.90099
 Alpha virt. eigenvalues --    1.90301   1.90450   1.91051   1.91249   1.91943
 Alpha virt. eigenvalues --    1.92576   1.92673   1.92873   1.93269   1.93980
 Alpha virt. eigenvalues --    1.94382   1.95089   1.97106   1.97762   1.97902
 Alpha virt. eigenvalues --    1.99047   1.99606   2.00170   2.00608   2.01467
 Alpha virt. eigenvalues --    2.01790   2.02051   2.02587   2.03334   2.05514
 Alpha virt. eigenvalues --    2.07371   2.08095   2.08954   2.09672   2.09929
 Alpha virt. eigenvalues --    2.11711   2.13266   2.14267   2.14655   2.17306
 Alpha virt. eigenvalues --    2.18094   2.18839   2.19358   2.20785   2.21507
 Alpha virt. eigenvalues --    2.22234   2.22923   2.24429   2.24985   2.25182
 Alpha virt. eigenvalues --    2.25760   2.26835   2.27782   2.29755   2.29839
 Alpha virt. eigenvalues --    2.31041   2.31408   2.31588   2.31711   2.31898
 Alpha virt. eigenvalues --    2.32213   2.32925   2.33189   2.33942   2.34266
 Alpha virt. eigenvalues --    2.34501   2.34866   2.35393   2.35619   2.36226
 Alpha virt. eigenvalues --    2.36311   2.36821   2.36941   2.37095   2.37582
 Alpha virt. eigenvalues --    2.37987   2.38507   2.38710   2.38945   2.41448
 Alpha virt. eigenvalues --    2.43952   2.44865   2.45592   2.47330   2.48108
 Alpha virt. eigenvalues --    2.48466   2.50866   2.51649   2.51866   2.52372
 Alpha virt. eigenvalues --    2.53364   2.56622   2.56682   2.57735   2.58567
 Alpha virt. eigenvalues --    2.59077   2.59559   2.59869   2.60017   2.61622
 Alpha virt. eigenvalues --    2.61692   2.62082   2.62332   2.62754   2.63909
 Alpha virt. eigenvalues --    2.64711   2.64916   2.65323   2.65767   2.66958
 Alpha virt. eigenvalues --    2.67867   2.69052   2.69938   2.71026   2.72054
 Alpha virt. eigenvalues --    2.72599   2.73115   2.74179   2.76130   2.77589
 Alpha virt. eigenvalues --    2.77969   2.78872   2.79043   2.79690   2.80393
 Alpha virt. eigenvalues --    2.82269   2.83856   2.84501   2.85884   2.86563
 Alpha virt. eigenvalues --    2.87105   2.91699   2.91861   2.93034   2.93810
 Alpha virt. eigenvalues --    2.95515   2.96579   2.98360   2.98423   2.98881
 Alpha virt. eigenvalues --    2.99376   3.00659   3.01065   3.02889   3.03162
 Alpha virt. eigenvalues --    3.03728   3.06007   3.07002   3.09043   3.09856
 Alpha virt. eigenvalues --    3.10353   3.10911   3.11332   3.12097   3.12599
 Alpha virt. eigenvalues --    3.12878   3.13518   3.15608   3.16650   3.17972
 Alpha virt. eigenvalues --    3.18342   3.19401   3.20283   3.21558   3.22281
 Alpha virt. eigenvalues --    3.22944   3.23162   3.25563   3.27166   3.27464
 Alpha virt. eigenvalues --    3.30082   3.31506   3.32286   3.34932   3.36288
 Alpha virt. eigenvalues --    3.38162   3.39268   3.41992   3.45272   3.52777
 Alpha virt. eigenvalues --    3.53349   3.54068   3.55286   3.57626   3.58943
 Alpha virt. eigenvalues --    3.69381   3.70953   3.84001   3.85909   4.05972
 Alpha virt. eigenvalues --    4.06972   4.31694   4.31826  18.95136  19.16804
 Alpha virt. eigenvalues --   21.02839  21.13832  21.21256  21.23010  21.58810
 Alpha virt. eigenvalues --   21.66697  21.68543  21.69837  21.70927  21.74215
 Alpha virt. eigenvalues --   21.81188  21.82788  21.87805  21.90394  21.92215
 Alpha virt. eigenvalues --   21.94306  21.95969  21.97913  22.01264  22.02543
 Alpha virt. eigenvalues --   22.08690  22.09859  22.14735  22.17295  32.03453
 Alpha virt. eigenvalues --   43.20171  43.20407
          Condensed to atoms (all electrons):
               1          2          3          4          5          6
     1  C    5.656093  -0.306807  -0.026325   0.437469   0.001485  -0.006667
     2  C   -0.306807   6.647179   0.083972  -0.304722  -0.025650   0.039334
     3  S   -0.026325   0.083972  15.572807  -0.220632  -0.230211   0.100999
     4  C    0.437469  -0.304722  -0.220632   6.676943   0.036050  -0.025027
     5  C    0.001485  -0.025650  -0.230211   0.036050   7.123949  -0.248358
     6  C   -0.006667   0.039334   0.100999  -0.025027  -0.248358   6.796262
     7  C    0.004917   0.414537   0.012339  -0.451098  -0.000673   0.001624
     8  C   -0.370344   0.449317   0.033089  -0.330597  -0.006773   0.002735
     9  H    0.001122   0.006373   0.024085  -0.114135  -0.113532   0.006604
    10  C    0.000614   0.001841   0.057626  -0.006941  -0.867248   0.384709
    11  C   -0.000156  -0.009642  -0.046248   0.000402   0.411137  -0.408360
    12  C    0.000016   0.001916   0.014513  -0.000255  -0.393147   0.424911
    13  C   -0.000048  -0.001069  -0.009376   0.000899   0.509982  -0.494037
    14  H    0.000016  -0.000041   0.000547  -0.001239  -0.109813   0.032976
    15  H    0.000041  -0.001368  -0.009491  -0.000079   0.037657  -0.165666
    16  H    0.000000   0.000001  -0.000016  -0.000001  -0.006766   0.027323
    17  C    0.228628  -0.449913  -0.005602   0.420883   0.001393  -0.000765
    18  H    0.471779  -0.133147  -0.008806   0.039641  -0.000037  -0.001365
    19  H    0.009338  -0.114528   0.343529   0.008202   0.007267  -0.121788
    20  H   -0.083167   0.031613  -0.000097  -0.009305  -0.000001  -0.000004
    21  H   -0.004587   0.039145   0.000451  -0.133373  -0.001185  -0.000038
    22  H    0.029227  -0.009430   0.000055   0.032028  -0.000003  -0.000003
    23  S    0.031349  -0.212611   0.187384   0.085803   0.096793  -0.219904
    24  N    0.000000  -0.000002   0.000023  -0.000007   0.021996   0.007239
    25  C   -0.000000  -0.000000  -0.000113   0.000001   0.002069  -0.000536
    26  C   -0.000000   0.000000   0.000002  -0.000000  -0.000430   0.000540
    27  C    0.000000  -0.000001   0.000010  -0.000001   0.003002  -0.003917
    28  C   -0.000000   0.000000   0.000000   0.000000  -0.000138   0.000051
    29  C    0.000000  -0.000000   0.000000  -0.000000   0.000025  -0.000337
    30  C    0.000000  -0.000000   0.000000  -0.000000   0.000037  -0.000001
    31  H    0.000000  -0.000000  -0.000000  -0.000000   0.000071  -0.000030
    32  H    0.000000  -0.000000  -0.000011  -0.000001   0.000629   0.001107
    33  H    0.000000  -0.000000  -0.000000   0.000000   0.000000  -0.000000
    34  H    0.000000  -0.000000  -0.000000  -0.000000  -0.000002  -0.000005
    35  C    0.000000  -0.000001   0.000108  -0.000004  -0.024731   0.004366
    36  C   -0.000000   0.000000  -0.000002   0.000000   0.004970  -0.000469
    37  C    0.000000   0.000001   0.000016  -0.000005  -0.018060   0.000935
    38  C   -0.000000   0.000000   0.000000   0.000000  -0.000023   0.000033
    39  C    0.000000  -0.000000   0.000002  -0.000000  -0.001824   0.000069
    40  C    0.000000   0.000000  -0.000000  -0.000000  -0.000258  -0.000013
    41  H    0.000000  -0.000000   0.000000  -0.000000  -0.000166   0.000015
    42  H    0.000000   0.000000   0.000012  -0.000003  -0.005372   0.000728
    43  H    0.000000  -0.000000   0.000000  -0.000000  -0.000006   0.000000
    44  H   -0.000000   0.000000   0.000000   0.000000   0.000027  -0.000002
    45  O   -0.000000   0.000000   0.000000   0.000000   0.000001   0.000000
    46  H    0.000000   0.000000   0.000000  -0.000000  -0.000000  -0.000000
    47  O    0.000000  -0.000000  -0.000000  -0.000000  -0.000000   0.000000
    48  H    0.000000   0.000000   0.000000  -0.000000   0.000000  -0.000000
               7          8          9         10         11         12
     1  C    0.004917  -0.370344   0.001122   0.000614  -0.000156   0.000016
     2  C    0.414537   0.449317   0.006373   0.001841  -0.009642   0.001916
     3  S    0.012339   0.033089   0.024085   0.057626  -0.046248   0.014513
     4  C   -0.451098  -0.330597  -0.114135  -0.006941   0.000402  -0.000255
     5  C   -0.000673  -0.006773  -0.113532  -0.867248   0.411137  -0.393147
     6  C    0.001624   0.002735   0.006604   0.384709  -0.408360   0.424911
     7  C    5.381026   0.231108  -0.000424  -0.000091   0.000043   0.000001
     8  C    0.231108   5.669402   0.009300  -0.000992   0.000700  -0.000082
     9  H   -0.000424   0.009300   0.722904   0.012354   0.001869  -0.001526
    10  C   -0.000091  -0.000992   0.012354   6.653996  -0.359079  -0.033233
    11  C    0.000043   0.000700   0.001869  -0.359079   5.871845  -0.161133
    12  C    0.000001  -0.000082  -0.001526  -0.033233  -0.161133   5.969631
    13  C    0.000002   0.000071  -0.002069  -0.250816   0.285474   0.066356
    14  H   -0.000002   0.000010   0.006252   0.451448  -0.002976   0.012497
    15  H    0.000001   0.000016   0.000067  -0.002057   0.492535  -0.106203
    16  H   -0.000000   0.000000   0.000001   0.023983  -0.067104   0.414215
    17  C    0.226926   0.001694  -0.002580   0.000075  -0.000082   0.000004
    18  H   -0.094683  -0.004993   0.000067   0.000018   0.000036  -0.000002
    19  H   -0.002840   0.000970   0.000659   0.001092   0.015370  -0.005466
    20  H    0.434223   0.029078   0.000006   0.000000   0.000000  -0.000000
    21  H    0.020022   0.472290   0.007698   0.000020   0.000018  -0.000003
    22  H   -0.083189  -0.083403   0.000070   0.000000   0.000000  -0.000000
    23  S   -0.004916  -0.025653   0.343915  -0.030121   0.037070  -0.008585
    24  N   -0.000000   0.000000   0.000117  -0.007904   0.020739  -0.018578
    25  C    0.000000   0.000000  -0.000033  -0.012984   0.000021   0.026715
    26  C   -0.000000  -0.000000  -0.000000  -0.013082   0.000971   0.030552
    27  C   -0.000000   0.000000   0.000023   0.025108  -0.000801  -0.094363
    28  C    0.000000  -0.000000  -0.000000  -0.000065  -0.000275   0.001116
    29  C   -0.000000   0.000000   0.000001   0.001875   0.000565  -0.006744
    30  C   -0.000000   0.000000   0.000000  -0.000007  -0.000153  -0.001098
    31  H    0.000000   0.000000  -0.000000  -0.000266   0.000060  -0.000121
    32  H   -0.000000   0.000000  -0.000002   0.000466  -0.002216   0.004276
    33  H    0.000000   0.000000   0.000000   0.000003  -0.000001  -0.000046
    34  H   -0.000000  -0.000000   0.000000  -0.000027   0.000017  -0.000095
    35  C   -0.000000  -0.000000   0.000204   0.066527  -0.002116  -0.008515
    36  C    0.000000   0.000000  -0.000006   0.018262   0.000504  -0.016506
    37  C   -0.000000  -0.000000  -0.000013  -0.057627  -0.000914   0.032450
    38  C    0.000000  -0.000000   0.000001   0.001603  -0.000075  -0.000036
    39  C   -0.000000  -0.000000  -0.000002  -0.008013  -0.000179   0.001782
    40  C   -0.000000   0.000000  -0.000002  -0.001842   0.000020   0.000121
    41  H   -0.000000   0.000000   0.000001   0.000472   0.000005  -0.000243
    42  H   -0.000000   0.000000   0.000005   0.007647   0.000394  -0.000086
    43  H   -0.000000  -0.000000   0.000000  -0.000043  -0.000000   0.000004
    44  H    0.000000  -0.000000   0.000000   0.000079   0.000002  -0.000038
    45  O    0.000000  -0.000000   0.000000   0.000016  -0.000000   0.000000
    46  H   -0.000000   0.000000   0.000000  -0.000001   0.000000   0.000000
    47  O    0.000000  -0.000000   0.000000   0.000000   0.000000   0.000006
    48  H   -0.000000  -0.000000   0.000000  -0.000000   0.000000  -0.000000
              13         14         15         16         17         18
     1  C   -0.000048   0.000016   0.000041   0.000000   0.228628   0.471779
     2  C   -0.001069  -0.000041  -0.001368   0.000001  -0.449913  -0.133147
     3  S   -0.009376   0.000547  -0.009491  -0.000016  -0.005602  -0.008806
     4  C    0.000899  -0.001239  -0.000079  -0.000001   0.420883   0.039641
     5  C    0.509982  -0.109813   0.037657  -0.006766   0.001393  -0.000037
     6  C   -0.494037   0.032976  -0.165666   0.027323  -0.000765  -0.001365
     7  C    0.000002  -0.000002   0.000001  -0.000000   0.226926  -0.094683
     8  C    0.000071   0.000010   0.000016   0.000000   0.001694  -0.004993
     9  H   -0.002069   0.006252   0.000067   0.000001  -0.002580   0.000067
    10  C   -0.250816   0.451448  -0.002057   0.023983   0.000075   0.000018
    11  C    0.285474  -0.002976   0.492535  -0.067104  -0.000082   0.000036
    12  C    0.066356   0.012497  -0.106203   0.414215   0.000004  -0.000002
    13  C    6.051465  -0.076739   0.034275  -0.064393  -0.000002  -0.000001
    14  H   -0.076739   0.549927   0.000027  -0.000200   0.000003   0.000000
    15  H    0.034275   0.000027   0.633734  -0.009155  -0.000002   0.000005
    16  H   -0.064393  -0.000200  -0.009155   0.544000   0.000000   0.000000
    17  C   -0.000002   0.000003  -0.000002   0.000000   5.378223   0.020402
    18  H   -0.000001   0.000000   0.000005   0.000000   0.020402   0.617138
    19  H    0.000941   0.000038   0.007586   0.000014  -0.000360   0.008161
    20  H   -0.000000  -0.000000   0.000000  -0.000000  -0.082822  -0.008520
    21  H    0.000002  -0.000002   0.000000  -0.000000  -0.093997   0.000082
    22  H   -0.000000   0.000000   0.000000   0.000000   0.434247  -0.000101
    23  S    0.014326  -0.009358   0.000360   0.000006   0.011111   0.000450
    24  N    0.130186  -0.006855  -0.000318  -0.007795  -0.000000   0.000000
[...]
    15  H   -0.000173  -0.000094   0.000415  -0.000002   0.000110  -0.000008
    16  H    0.004510  -0.001493   0.004183   0.001564  -0.003912   0.000383
    17  C   -0.000000   0.000000  -0.000000  -0.000000  -0.000000   0.000000
    18  H   -0.000000  -0.000000   0.000000  -0.000000   0.000000   0.000000
    19  H   -0.000007  -0.000000   0.000008  -0.000000   0.000000   0.000000
    20  H   -0.000000  -0.000000   0.000000   0.000000   0.000000  -0.000000
    21  H   -0.000000  -0.000000   0.000000  -0.000000   0.000000  -0.000000
    22  H   -0.000000  -0.000000   0.000000   0.000000   0.000000  -0.000000
    23  S   -0.000024   0.000000   0.000022   0.000000   0.000001  -0.000000
    24  N    0.105594  -0.005647  -0.025757   0.018271   0.031655   0.004543
    25  C    5.769188   0.274525   0.255563   0.060581   0.117988  -0.190665
    26  C    0.274525   5.304104  -0.133378   0.251982  -0.081607   0.035884
    27  C    0.255563  -0.133378   5.724064  -0.026754  -0.276262   0.149331
    28  C    0.060581   0.251982  -0.026754   5.448517  -0.173560   0.342298
    29  C    0.117988  -0.081607  -0.276262  -0.173560   6.287122   0.090437
    30  C   -0.190665   0.035884   0.149331   0.342298   0.090437   5.205840
    31  H   -0.064613   0.444593   0.021737  -0.088986  -0.005348   0.024922
    32  H   -0.040217   0.014306   0.397835  -0.000307  -0.044477   0.011756
    33  H    0.023681  -0.054366  -0.004373   0.429332   0.020854  -0.092615
    34  H    0.015351   0.003952   0.010456   0.006065   0.378133  -0.093972
    35  C   -0.139467   0.038819  -0.015391  -0.003155  -0.000910   0.002698
    36  C    0.052693  -0.057884   0.012274  -0.006119   0.002494  -0.002078
    37  C   -0.006261   0.010932  -0.013635   0.001505   0.000638  -0.000075
    38  C   -0.016747  -0.001211   0.002811   0.000753   0.000006  -0.000123
    39  C   -0.004821   0.003337   0.000132  -0.000008  -0.000164   0.000053
    40  C    0.003904  -0.002232  -0.000182  -0.000185   0.000081  -0.000027
    41  H    0.006002   0.004324  -0.005050  -0.002565   0.002866   0.000275
    42  H   -0.001313   0.000562  -0.000489   0.000016   0.000049  -0.000012
    43  H   -0.000128   0.000095  -0.000051   0.000038  -0.000009  -0.000002
    44  H   -0.000030  -0.000019   0.000004  -0.000002  -0.000000   0.000000
    45  O    0.000016  -0.000006   0.000000  -0.000000  -0.000000   0.000000
    46  H   -0.000000  -0.000000  -0.000000   0.000000   0.000000  -0.000000
    47  O   -0.001761   0.006988   0.024264  -0.083676  -0.124654   0.412702
    48  H   -0.000819  -0.001890   0.008896   0.020084  -0.043609  -0.025691
              31         32         33         34         35         36
     1  C    0.000000   0.000000   0.000000   0.000000   0.000000  -0.000000
     2  C   -0.000000  -0.000000  -0.000000  -0.000000  -0.000001   0.000000
     3  S   -0.000000  -0.000011  -0.000000  -0.000000   0.000108  -0.000002
     4  C   -0.000000  -0.000001   0.000000  -0.000000  -0.000004   0.000000
     5  C    0.000071   0.000629   0.000000  -0.000002  -0.024731   0.004970
     6  C   -0.000030   0.001107  -0.000000  -0.000005   0.004366  -0.000469
     7  C    0.000000  -0.000000   0.000000  -0.000000  -0.000000   0.000000
     8  C    0.000000   0.000000   0.000000  -0.000000  -0.000000   0.000000
     9  H   -0.000000  -0.000002   0.000000   0.000000   0.000204  -0.000006
    10  C   -0.000266   0.000466   0.000003  -0.000027   0.066527   0.018262
    11  C    0.000060  -0.002216  -0.000001   0.000017  -0.002116   0.000504
    12  C   -0.000121   0.004276  -0.000046  -0.000095  -0.008515  -0.016506
    13  C   -0.001859  -0.003756   0.000010   0.000003  -0.132369  -0.015500
    14  H   -0.000009   0.000045  -0.000000   0.000000   0.011240  -0.003322
    15  H    0.000001  -0.000096   0.000000   0.000000   0.000161   0.000004
    16  H    0.000040   0.001176   0.000011  -0.000011  -0.001636  -0.000466
    17  C   -0.000000   0.000000  -0.000000  -0.000000  -0.000000  -0.000000
    18  H   -0.000000  -0.000000  -0.000000   0.000000   0.000000  -0.000000
    19  H   -0.000000  -0.000002   0.000000   0.000000   0.000006  -0.000000
    20  H   -0.000000  -0.000000   0.000000   0.000000   0.000000   0.000000
    21  H    0.000000  -0.000000   0.000000   0.000000   0.000000   0.000000
    22  H   -0.000000  -0.000000  -0.000000   0.000000   0.000000  -0.000000
    23  S   -0.000000  -0.000021   0.000000  -0.000000  -0.000013   0.000021
    24  N   -0.011415  -0.007590  -0.000626  -0.000865   0.127411  -0.035772
    25  C   -0.064613  -0.040217   0.023681   0.015351  -0.139467   0.052693
    26  C    0.444593   0.014306  -0.054366   0.003952   0.038819  -0.057884
    27  C    0.021737   0.397835  -0.004373   0.010456  -0.015391   0.012274
    28  C   -0.088986  -0.000307   0.429332   0.006065  -0.003155  -0.006119
    29  C   -0.005348  -0.044477   0.020854   0.378133  -0.000910   0.002494
    30  C    0.024922   0.011756  -0.092615  -0.093972   0.002698  -0.002078
    31  H    0.561444  -0.000316  -0.011036   0.000040   0.003232   0.005287
    32  H   -0.000316   0.540001   0.000045  -0.007699  -0.001895   0.001006
    33  H   -0.011036   0.000045   0.576233  -0.000417  -0.000303   0.000167
    34  H    0.000040  -0.007699  -0.000417   0.592039  -0.000009  -0.000040
    35  C    0.003232  -0.001895  -0.000303  -0.000009   5.785492   0.248630
    36  C    0.005287   0.001006   0.000167  -0.000040   0.248630   5.704470
    37  C   -0.002540  -0.000486  -0.000024   0.000002   0.247178  -0.130325
    38  C   -0.003598  -0.000055   0.000023  -0.000004   0.147084  -0.318165
    39  C    0.001482   0.000026  -0.000007   0.000000   0.046765  -0.020543
    40  C    0.000348  -0.000007   0.000003   0.000000  -0.192330   0.159572
    41  H    0.000860   0.000138  -0.000027   0.000010  -0.037176   0.400405
    42  H    0.000064  -0.000006   0.000001  -0.000000  -0.067086   0.020548
    43  H   -0.000031   0.000001  -0.000000   0.000000   0.015605   0.010124
    44  H    0.000004  -0.000000  -0.000000  -0.000000   0.023942  -0.004359
    45  O   -0.000001   0.000000  -0.000000  -0.000000  -0.002335   0.025121
    46  H    0.000000  -0.000000  -0.000000   0.000000  -0.000907   0.009322
    47  O   -0.000129  -0.000111   0.002397  -0.006714  -0.000010   0.000006
    48  H    0.000043  -0.000067  -0.000902   0.002578  -0.000000  -0.000001
              37         38         39         40         41         42
     1  C    0.000000  -0.000000   0.000000   0.000000   0.000000   0.000000
     2  C    0.000001   0.000000  -0.000000   0.000000  -0.000000   0.000000
     3  S    0.000016   0.000000   0.000002  -0.000000   0.000000   0.000012
     4  C   -0.000005   0.000000  -0.000000  -0.000000  -0.000000  -0.000003
     5  C   -0.018060  -0.000023  -0.001824  -0.000258  -0.000166  -0.005372
     6  C    0.000935   0.000033   0.000069  -0.000013   0.000015   0.000728
     7  C   -0.000000   0.000000  -0.000000  -0.000000  -0.000000  -0.000000
     8  C   -0.000000  -0.000000  -0.000000   0.000000   0.000000   0.000000
     9  H   -0.000013   0.000001  -0.000002  -0.000002   0.000001   0.000005
    10  C   -0.057627   0.001603  -0.008013  -0.001842   0.000472   0.007647
    11  C   -0.000914  -0.000075  -0.000179   0.000020   0.000005   0.000394
    12  C    0.032450  -0.000036   0.001782   0.000121  -0.000243  -0.000086
    13  C    0.014364  -0.000031   0.003957   0.001193  -0.002307  -0.005769
    14  H    0.004451   0.002214  -0.001959   0.000492   0.000166   0.001634
    15  H   -0.000068   0.000000  -0.000002   0.000000  -0.000000   0.000006
    16  H    0.000611   0.000026   0.000009  -0.000003  -0.000010   0.000007
    17  C    0.000000  -0.000000   0.000000   0.000000   0.000000   0.000000
    18  H    0.000000  -0.000000   0.000000   0.000000   0.000000   0.000000
    19  H   -0.000001   0.000000   0.000000  -0.000000   0.000000   0.000000
    20  H   -0.000000   0.000000  -0.000000  -0.000000   0.000000   0.000000
    21  H   -0.000000   0.000000  -0.000000   0.000000   0.000000   0.000000
    22  H    0.000000  -0.000000   0.000000  -0.000000   0.000000   0.000000
    23  S    0.000051  -0.000002  -0.000001   0.000000  -0.000001   0.000000
    24  N    0.002522   0.031675   0.012852   0.005324  -0.010855  -0.006210
    25  C   -0.006261  -0.016747  -0.004821   0.003904   0.006002  -0.001313
    26  C    0.010932  -0.001211   0.003337  -0.002232   0.004324   0.000562
    27  C   -0.013635   0.002811   0.000132  -0.000182  -0.005050  -0.000489
    28  C    0.001505   0.000753  -0.000008  -0.000185  -0.002565   0.000016
    29  C    0.000638   0.000006  -0.000164   0.000081   0.002866   0.000049
    30  C   -0.000075  -0.000123   0.000053  -0.000027   0.000275  -0.000012
    31  H   -0.002540  -0.003598   0.001482   0.000348   0.000860   0.000064
    32  H   -0.000486  -0.000055   0.000026  -0.000007   0.000138  -0.000006
    33  H   -0.000024   0.000023  -0.000007   0.000003  -0.000027   0.000001
    34  H    0.000002  -0.000004   0.000000   0.000000   0.000010  -0.000000
    35  C    0.247178   0.147084   0.046765  -0.192330  -0.037176  -0.067086
    36  C   -0.130325  -0.318165  -0.020543   0.159572   0.400405   0.020548
    37  C    5.332300  -0.093682   0.298416   0.030244   0.014722   0.437707
    38  C   -0.093682   6.351868  -0.173391   0.062683  -0.054742  -0.005166
    39  C    0.298416  -0.173391   5.377663   0.363399  -0.000080  -0.073834
    40  C    0.030244   0.062683   0.363399   5.211188   0.012455   0.023665
    41  H    0.014722  -0.054742  -0.000080   0.012455   0.550630  -0.000337
    42  H    0.437707  -0.005166  -0.073834   0.023665  -0.000337   0.547335
    43  H    0.003773   0.378729   0.006008  -0.094039  -0.007746   0.000034
    44  H   -0.052343   0.020939   0.426593  -0.092251   0.000047  -0.010857
    45  O    0.007649  -0.125570  -0.083954   0.413075  -0.000090  -0.000120
    46  H   -0.001787  -0.044665   0.019592  -0.024509  -0.000063   0.000042
    47  O    0.000000   0.000000  -0.000000   0.000000  -0.000006  -0.000000
    48  H   -0.000000   0.000000   0.000000  -0.000000  -0.000002  -0.000000
              43         44         45         46         47         48
     1  C    0.000000  -0.000000  -0.000000   0.000000   0.000000   0.000000
     2  C   -0.000000   0.000000   0.000000   0.000000  -0.000000   0.000000
     3  S    0.000000   0.000000   0.000000   0.000000  -0.000000   0.000000
     4  C   -0.000000   0.000000   0.000000  -0.000000  -0.000000  -0.000000
     5  C   -0.000006   0.000027   0.000001  -0.000000  -0.000000   0.000000
     6  C    0.000000  -0.000002   0.000000  -0.000000   0.000000  -0.000000
     7  C   -0.000000   0.000000   0.000000  -0.000000   0.000000  -0.000000
     8  C   -0.000000  -0.000000  -0.000000   0.000000  -0.000000  -0.000000
     9  H    0.000000   0.000000   0.000000   0.000000   0.000000   0.000000
    10  C   -0.000043   0.000079   0.000016  -0.000001   0.000000  -0.000000
    11  C   -0.000000   0.000002  -0.000000   0.000000   0.000000   0.000000
    12  C    0.000004  -0.000038   0.000000   0.000000   0.000006  -0.000000
    13  C    0.000012  -0.000181  -0.000009  -0.000000   0.000007  -0.000001
    14  H    0.000024  -0.000004  -0.000011  -0.000001   0.000000  -0.000000
    15  H   -0.000000   0.000000  -0.000000  -0.000000   0.000000  -0.000000
    16  H   -0.000000   0.000000  -0.000000  -0.000000  -0.000005   0.000001
    17  C    0.000000  -0.000000   0.000000   0.000000  -0.000000   0.000000
    18  H    0.000000   0.000000  -0.000000   0.000000  -0.000000   0.000000
    19  H    0.000000   0.000000   0.000000   0.000000  -0.000000   0.000000
    20  H    0.000000   0.000000  -0.000000  -0.000000  -0.000000   0.000000
    21  H   -0.000000   0.000000  -0.000000  -0.000000   0.000000   0.000000
    22  H    0.000000   0.000000   0.000000   0.000000   0.000000   0.000000
    23  S   -0.000000  -0.000002   0.000000  -0.000000   0.000000   0.000000
    24  N   -0.000798  -0.000705  -0.000009  -0.000004  -0.000007  -0.000004
    25  C   -0.000128  -0.000030   0.000016  -0.000000  -0.001761  -0.000819
    26  C    0.000095  -0.000019  -0.000006  -0.000000   0.006988  -0.001890
    27  C   -0.000051   0.000004   0.000000  -0.000000   0.024264   0.008896
    28  C    0.000038  -0.000002  -0.000000   0.000000  -0.083676   0.020084
    29  C   -0.000009  -0.000000  -0.000000   0.000000  -0.124654  -0.043609
    30  C   -0.000002   0.000000   0.000000  -0.000000   0.412702  -0.025691
    31  H   -0.000031   0.000004  -0.000001   0.000000  -0.000129   0.000043
    32  H    0.000001  -0.000000   0.000000  -0.000000  -0.000111  -0.000067
    33  H   -0.000000  -0.000000  -0.000000  -0.000000   0.002397  -0.000902
    34  H    0.000000  -0.000000  -0.000000   0.000000  -0.006714   0.002578
    35  C    0.015605   0.023942  -0.002335  -0.000907  -0.000010  -0.000000
    36  C    0.010124  -0.004359   0.025121   0.009322   0.000006  -0.000001
    37  C    0.003773  -0.052343   0.007649  -0.001787   0.000000  -0.000000
    38  C    0.378729   0.020939  -0.125570  -0.044665   0.000000   0.000000
    39  C    0.006008   0.426593  -0.083954   0.019592  -0.000000   0.000000
    40  C   -0.094039  -0.092251   0.413075  -0.024509   0.000000  -0.000000
    41  H   -0.007746   0.000047  -0.000090  -0.000063  -0.000006  -0.000002
    42  H    0.000034  -0.010857  -0.000120   0.000042  -0.000000  -0.000000
    43  H    0.591263  -0.000412  -0.006853   0.002453  -0.000000   0.000000
    44  H   -0.000412   0.574806   0.002547  -0.000909  -0.000000  -0.000000
    45  O   -0.006853   0.002547   7.708152   0.300775  -0.000000  -0.000000
    46  H    0.002453  -0.000909   0.300775   0.473020   0.000000  -0.000000
    47  O   -0.000000  -0.000000  -0.000000   0.000000   7.708724   0.300805
    48  H    0.000000  -0.000000  -0.000000  -0.000000   0.300805   0.472880
 Mulliken charges:
               1
     1  C   -0.073992
     2  C   -0.146298
     3  S    0.125362
     4  C   -0.140898
     5  C   -0.204134
     6  C   -0.135267
     7  C   -0.088854
     8  C   -0.076942
     9  H    0.090627
    10  C   -0.057392
    11  C   -0.078286
    12  C   -0.144977
    13  C    0.030063
    14  H    0.140257
    15  H    0.087783
    16  H    0.140902
    17  C   -0.087465
    18  H    0.093874
    19  H    0.088075
    20  H    0.100046
    21  H    0.094187
    22  H    0.100080
    23  S    0.125092
    24  N    0.017234
    25  C   -0.142965
    26  C   -0.051333
    27  C   -0.075419
    28  C   -0.196510
    29  C   -0.167717
    30  C    0.124064
    31  H    0.126070
    32  H    0.136526
    33  H    0.111984
    34  H    0.101213
    35  C   -0.139110
    36  C   -0.064326
    37  C   -0.062622
    38  C   -0.163163
    39  C   -0.193353
    40  C    0.120112
    41  H    0.128072
    42  H    0.136204
    43  H    0.101954
    44  H    0.113124
    45  O   -0.238395
    46  H    0.267643
    47  O   -0.238827
    48  H    0.267698
 Sum of Mulliken charges =  -0.00000
 Mulliken charges with hydrogens summed into heavy atoms:
               1
     1  C    0.019882
     2  C   -0.146298
     3  S    0.213438
     4  C   -0.140898
     5  C   -0.204134
     6  C   -0.135267
     7  C    0.011192
     8  C    0.017245
    10  C    0.082865
    11  C    0.009498
    12  C   -0.004075
    13  C    0.030063
    17  C    0.012616
    23  S    0.215719
    24  N    0.017234
    25  C   -0.142965
    26  C    0.074737
    27  C    0.061107
    28  C   -0.084526
    29  C   -0.066504
    30  C    0.124064
    35  C   -0.139110
    36  C    0.063746
    37  C    0.073581
    38  C   -0.061209
    39  C   -0.080229
    40  C    0.120112
    45  O    0.029247
    47  O    0.028871
 Electronic spatial extent (au):  <R**2>=          17770.2792
 Charge=             -0.0000 electrons
 Dipole moment (field-independent basis, Debye):
    X=             -1.0603    Y=             -1.3448    Z=              3.0379  Tot=              3.4873
 Quadrupole moment (field-independent basis, Debye-Ang):
   XX=           -175.0424   YY=           -165.7145   ZZ=           -178.1444
   XY=             -6.6799   XZ=             -5.4417   YZ=              4.9836
 Traceless Quadrupole moment (field-independent basis, Debye-Ang):
   XX=             -2.0753   YY=              7.2526   ZZ=             -5.1774
   XY=             -6.6799   XZ=             -5.4417   YZ=              4.9836
 Octapole moment (field-independent basis, Debye-Ang**2):
  XXX=             56.4509  YYY=            -61.3036  ZZZ=             11.2881  XYY=            -56.1540
  XXY=             26.4072  XXZ=             75.7405  XZZ=            -37.9144  YZZ=              4.7784
  YYZ=             68.5569  XYZ=             21.0791
 Hexadecapole moment (field-independent basis, Debye-Ang**3):
 XXXX=         -17797.8310 YYYY=          -4739.7903 ZZZZ=           -969.6048 XXXY=           -541.3522
 XXXZ=             39.5529 YYYX=             60.9147 YYYZ=             37.7994 ZZZX=            -50.4866
 ZZZY=            -27.8152 XXYY=          -3471.0566 XXZZ=          -3158.0406 YYZZ=           -868.2166
 XXYZ=            167.2793 YYXZ=           -384.0442 ZZXY=             60.6704
 N-N= 2.827246280079D+03 E-N=-1.017911742537D+04  KE= 1.920430739307D+03
 No NMR shielding tensors so no spin-rotation constants.
 Leave Link  601 at Mon Jan 18 09:39:33 2021, MaxMem=  4026531840 cpu:               4.0 elap:               0.6
 (Enter /opt/ohpc/pub/libs/gaussian/g16-A.03/sandybridge/g16/l9999.exe)

 Test job not archived.
 1\1\GINC-CASCADEB025\SP\RLC-wHPBE\TZVP\C24H19N1O2S2\RDU230\18-Jan-2021
 \0\\#P LC-wHPBE/TZVP iop(3/107=0115700000, 3/108=0115700000) scf=(conv
 er=6,fermi,ndamp=35,noincfock,novaracc,vshift=500,xqc)\\H19 C24 S2 N1 
 O2\\0,1\C,0,-6.54463,-1.193879,0.12701\C,0,-5.283469,-0.647909,0.13152
 3\S,0,-3.665919,-1.107322,1.042984\C,0,-4.996815,0.486583,-0.53783\C,0
 ,-1.475687,0.036886,0.221747\C,0,-1.772288,-1.094442,0.892846\C,0,-7.5
 17398,-0.549399,-0.618903\C,0,-5.951198,1.159916,-1.262339\H,0,-2.8434
 06,1.345523,-1.332578\C,0,-0.186077,0.430997,-0.028463\C,0,-0.77363,-1
 .912541,1.366813\C,0,0.53691,-1.552052,1.124661\C,0,0.845585,-0.387156
 ,0.425435\H,0,0.045427,1.33981,-0.567415\H,0,-0.986976,-2.816418,1.923
 251\H,0,1.342687,-2.175375,1.48462\C,0,-7.223748,0.615229,-1.306247\H,
 0,-6.782458,-2.097666,0.673346\H,0,-3.815781,-2.43941,0.928305\H,0,-8.
 517553,-0.958288,-0.663525\H,0,-5.730059,2.077989,-1.791552\H,0,-7.997
 253,1.105431,-1.881471\S,0,-3.166075,0.851646,-0.124057\N,0,2.182887,-
 0.044483,0.184905\C,0,3.146505,-1.044921,-0.067172\C,0,4.392012,-0.989
 098,0.539344\C,0,2.878694,-2.090316,-0.930362\C,0,5.345494,-1.946131,0
 .285899\C,0,3.822608,-3.066997,-1.170354\C,0,5.062274,-2.995295,-0.567
 641\H,0,4.612943,-0.17489,1.215121\H,0,1.913696,-2.145516,-1.414069\H,
 0,6.317156,-1.901598,0.755555\H,0,3.591387,-3.881585,-1.84538\C,0,2.57
 5405,1.310294,0.123192\C,0,3.391681,1.763268,-0.894977\C,0,2.16404,2.2
 11964,1.09371\C,0,3.796835,3.081396,-0.942072\C,0,2.544098,3.531176,1.
 038879\C,0,3.368807,3.972023,0.020733\H,0,3.723839,1.07184,-1.656403\H
 ,0,1.529535,1.868488,1.898614\H,0,4.442764,3.41523,-1.744528\H,0,2.220
 724,4.234697,1.791974\O,0,3.726245,5.28132,0.019257\H,0,4.294203,5.466
 041,-0.728132\O,0,6.032969,-3.920806,-0.776143\H,0,5.721078,-4.593785,
 -1.380389\\Version=EM64L-G16RevA.03\State=1-A\HF=-1926.3368256\RMSD=9.
 664e-07\Dipole=0.41715,-0.5290974,-1.1951863\Quadrupole=-1.5429126,5.3
 921481,-3.8492355,4.9663516,-4.045752,-3.7052086\PG=C01 [X(C24H19N1O2S
 2)]\\@


 SUPPORT THE RIGHT TO ARM BEARS!
 (ADD A CLAWS TO THE BILL OF RIGHTS)
 Job cpu time:       0 days  2 hours  3 minutes 32.8 seconds.
 Elapsed time:       0 days  0 hours 15 minutes 29.5 seconds.
 File lengths (MBytes):  RWF=    192 Int=      0 D2E=      0 Chk=     32 Scr=      8
 Normal termination of Gaussian 16 at Mon Jan 18 09:39:33 2021.
