 Entering Gaussian System, Link 0=g16
 Input=mol_NN_cp_frag_opt_0.gjf
 Output=mol_NN_cp_frag_opt_0.log
 Initial command:
 /opt/ohpc/pub/libs/gaussian/g16-A.03/sandybridge/g16/l1.exe "/mnt/gpfs2_4m/scratch/rdu230/ondemand/projects/init_structures/gaussian/wtuning/mol_NN_cp_frag/Gau-4533.inp" -scrdir="/mnt/gpfs2_4m/scratch/rdu230/ondemand/projects/init_structures/gaussian/wtuning/mol_NN_cp_frag/"
 Entering Link 1 = /opt/ohpc/pub/libs/gaussian/g16-A.03/sandybridge/g16/l1.exe PID=      4534.
  
 Copyright (c) 1988,1990,1992,1993,1995,1998,2003,2009,2016,
            Gaussian, Inc.  All Rights Reserved.
  
 This is part of the Gaussian(R) 16 program.  It is based on
 the Gaussian(R) 09 system (copyright 2009, Gaussian, Inc.),
 the Gaussian(R) 03 system (copyright 2003, Gaussian, Inc.),
 the Gaussian(R) 98 system (copyright 1998, Gaussian, Inc.),
 the Gaussian(R) 94 system (copyright 1995, Gaussian, Inc.),
 the Gaussian 92(TM) system (copyright 1992, Gaussian, Inc.),
 the Gaussian 90(TM) system (copyright 1990, Gaussian, Inc.),
 the Gaussian 88(TM) system (copyright 1988, Gaussian, Inc.),
 the Gaussian 86(TM) system (copyright 1986, Carnegie Mellon
 University), and the Gaussian 82(TM) system (copyright 1983,
 Carnegie Mellon University). Gaussian is a federally registered
 trademark of Gaussian, Inc.
  
 This software contains proprietary and confidential information,
 including trade secrets, belonging to Gaussian, Inc.
  
 This software is provided under written license and may be
 used, copied, transmitted, or stored only in accord with that
 written license.
  
 The following legend is applicable only to US Government
 contracts under FAR:
  
                    RESTRICTED RIGHTS LEGEND
  
 Use, reproduction and disclosure by the US Government is
 subject to restrictions as set forth in subparagraphs (a)
 and (c) of the Commercial Computer Software - Restricted
 Rights clause in FAR 52.227-19.
  
 Gaussian, Inc.
 340 Quinnipiac St., Bldg. 40, Wallingford CT 06492
  
  
 ---------------------------------------------------------------
 Warning -- This program may not be used in any manner that
 competes with the business of Gaussian, Inc. or will provide
 assistance to any competitor of Gaussian, Inc.  The licensee
 of this program is prohibited from giving any competitor of
 Gaussian, Inc. access to this program.  By using this program,
 the user acknowledges that Gaussian, Inc. is engaged in the
 business of creating and licensing software in the field of
 computational chemistry and represents and warrants to the
 licensee that it is not a competitor of Gaussian, Inc. and that
 it will not use this program in any manner prohibited above.
 ---------------------------------------------------------------
  

 Cite this work as:
 Gaussian 16, Revision A.03,
 M. J. Frisch, G. W. Trucks, H. B. Schlegel, G. E. Scuseria, 
 M. A. Robb, J. R. Cheeseman, G. Scalmani, V. Barone, 
 G. A. Petersson, H. Nakatsuji, X. Li, M. Caricato, A. V. Marenich, 
 J. Bloino, B. G. Janesko, R. Gomperts, B. Mennucci, H. P. Hratchian, 
 J. V. Ortiz, A. F. Izmaylov, J. L. Sonnenberg, D. Williams-Young, 
 F. Ding, F. Lipparini, F. Egidi, J. Goings, B. Peng, A. Petrone, 
 T. Henderson, D. Ranasinghe, V. G. Zakrzewski, J. Gao, N. Rega, 
 G. Zheng, W. Liang, M. Hada, M. Ehara, K. Toyota, R. Fukuda, 
 J. Hasegawa, M. Ishida, T. Nakajima, Y. Honda, O. Kitao, H. Nakai, 
 T. Vreven, K. Throssell, J. A. Montgomery, Jr., J. E. Peralta, 
 F. Ogliaro, M. J. Bearpark, J. J. Heyd, E. N. Brothers, K. N. Kudin, 
 V. N. Staroverov, T. A. Keith, R. Kobayashi, J. Normand, 
 K. Raghavachari, A. P. Rendell, J. C. Burant, S. S. Iyengar, 
 J. Tomasi, M. Cossi, J. M. Millam, M. Klene, C. Adamo, R. Cammi, 
 J. W. Ochterski, R. L. Martin, K. Morokuma, O. Farkas, 
 J. B. Foresman, and D. J. Fox, Gaussian, Inc., Wallingford CT, 2016.
 
 ******************************************
 Gaussian 16:  EM64L-G16RevA.03 25-Dec-2016
                25-Jan-2021 
 ******************************************
 %mem=30GB
 %nproc=8
 Will use up to    8 processors via shared memory.
 ------------------------------------------------------------
 #P LC-wHPBE/TZVP iop(3/107=0339000000, 3/108=0339000000) opt
 ------------------------------------------------------------
 1/18=20,19=15,26=3,38=1/1,3;
 2/9=110,12=2,17=6,18=5,40=1/2;
 3/5=19,7=101,11=2,25=1,30=1,71=1,74=-71,107=339000000,108=339000000/1,2,3;
 4//1;
 5/5=2,38=5/2;
 6/7=2,8=2,9=2,10=2,28=1/1;
 7//1,2,3,16;
 1/18=20,19=15,26=3/3(2);
 2/9=110/2;
 99//99;
 2/9=110/2;
 3/5=19,7=101,11=2,25=1,30=1,71=1,74=-71,107=339000000,108=339000000/1,2,3;
 4/5=5,16=3,69=1/1;
 5/5=2,38=5/2;
 7//1,2,3,16;
 1/18=20,19=15,26=3/3(-5);
 2/9=110/2;
 6/7=2,8=2,9=2,10=2,19=2,28=1/1;
 99/9=1/99;
 Leave Link    1 at Mon Jan 25 19:01:59 2021, MaxMem=  4026531840 cpu:               2.1 elap:               0.4
 (Enter /opt/ohpc/pub/libs/gaussian/g16-A.03/sandybridge/g16/l101.exe)
 ---------
 H18 C9 N3
 ---------
 Symbolic Z-matrix:
 Charge =  1 Multiplicity = 1
 C                     1.6472   -0.0695    0.53586 
 C                     2.38334   0.08507   1.83101 
 N                     1.70587  -0.06948  -0.9133 
 N                     3.706     0.37811   2.59825 
 C                     1.17208  -1.27987  -1.58369 
 H                     1.71542  -1.62215  -2.41151 
 H                     1.10998  -2.07576  -0.80315 
 H                     0.15766  -1.09105  -1.97897 
 C                     1.1055    1.13573  -1.56669 
 H                     1.75745   1.45563  -2.40297 
 H                     0.1194    1.03479  -1.886 
 H                     1.13675   2.03637  -0.85921 
 C                     4.68581  -0.74902   2.49659 
 H                     4.96382  -0.97554   3.48037 
 H                     4.27557  -1.63298   2.03473 
 H                     5.53663  -0.41437   2.00183 
 C                     4.28888   1.68511   2.24041 
 H                     4.85951   1.99518   3.11587 
 H                     4.97069   1.62979   1.37692 
 H                     3.52808   2.4896    2.09919 
 C                     1.02414  -0.15204   1.88181 
 N                    -0.19009  -0.53717   2.63715 
 C                    -0.11648  -1.88137   3.26443 
 H                    -1.06724  -2.23129   3.57815 
 H                     0.29792  -2.63925   2.57367 
 H                     0.54644  -1.91929   4.10808 
 C                    -0.60848   0.38344   3.60985 
 H                    -1.65486   0.65595   3.44416 
 H                    -0.50239   0.0153    4.64402 
 H                     0.00392   1.31975   3.51564 
 
 ITRead=  0  0  0  0  0  0  0  0  0  0  0  0  0  0  0  0  0  0  0  0
 ITRead=  0  0  0  0  0  0  0  0  0  0
 MicOpt= -1 -1 -1 -1 -1 -1 -1 -1 -1 -1 -1 -1 -1 -1 -1 -1 -1 -1 -1 -1
 MicOpt= -1 -1 -1 -1 -1 -1 -1 -1 -1 -1
 NAtoms=     30 NQM=       30 NQMF=       0 NMMI=      0 NMMIF=      0
                NMic=       0 NMicF=      0.
                    Isotopes and Nuclear Properties:
 (Nuclear quadrupole moments (NQMom) in fm**2, nuclear magnetic moments (NMagM)
  in nuclear magnetons)

  Atom         1           2           3           4           5           6           7           8           9          10
 IAtWgt=          12          12          14          14          12           1           1           1          12           1
 AtmWgt=  12.0000000  12.0000000  14.0030740  14.0030740  12.0000000   1.0078250   1.0078250   1.0078250  12.0000000   1.0078250
 NucSpn=           0           0           2           2           0           1           1           1           0           1
 AtZEff=  -0.0000000  -0.0000000  -0.0000000  -0.0000000  -0.0000000  -0.0000000  -0.0000000  -0.0000000  -0.0000000  -0.0000000
 NQMom=    0.0000000   0.0000000   2.0440000   2.0440000   0.0000000   0.0000000   0.0000000   0.0000000   0.0000000   0.0000000
 NMagM=    0.0000000   0.0000000   0.4037610   0.4037610   0.0000000   2.7928460   2.7928460   2.7928460   0.0000000   2.7928460
 AtZNuc=   6.0000000   6.0000000   7.0000000   7.0000000   6.0000000   1.0000000   1.0000000   1.0000000   6.0000000   1.0000000

  Atom        11          12          13          14          15          16          17          18          19          20
 IAtWgt=           1           1          12           1           1           1          12           1           1           1
 AtmWgt=   1.0078250   1.0078250  12.0000000   1.0078250   1.0078250   1.0078250  12.0000000   1.0078250   1.0078250   1.0078250
 NucSpn=           1           1           0           1           1           1           0           1           1           1
 AtZEff=  -0.0000000  -0.0000000  -0.0000000  -0.0000000  -0.0000000  -0.0000000  -0.0000000  -0.0000000  -0.0000000  -0.0000000
 NQMom=    0.0000000   0.0000000   0.0000000   0.0000000   0.0000000   0.0000000   0.0000000   0.0000000   0.0000000   0.0000000
 NMagM=    2.7928460   2.7928460   0.0000000   2.7928460   2.7928460   2.7928460   0.0000000   2.7928460   2.7928460   2.7928460
 AtZNuc=   1.0000000   1.0000000   6.0000000   1.0000000   1.0000000   1.0000000   6.0000000   1.0000000   1.0000000   1.0000000

  Atom        21          22          23          24          25          26          27          28          29          30
 IAtWgt=          12          14          12           1           1           1          12           1           1           1
 AtmWgt=  12.0000000  14.0030740  12.0000000   1.0078250   1.0078250   1.0078250  12.0000000   1.0078250   1.0078250   1.0078250
 NucSpn=           0           2           0           1           1           1           0           1           1           1
 AtZEff=  -0.0000000  -0.0000000  -0.0000000  -0.0000000  -0.0000000  -0.0000000  -0.0000000  -0.0000000  -0.0000000  -0.0000000
 NQMom=    0.0000000   2.0440000   0.0000000   0.0000000   0.0000000   0.0000000   0.0000000   0.0000000   0.0000000   0.0000000
 NMagM=    0.0000000   0.4037610   0.0000000   2.7928460   2.7928460   2.7928460   0.0000000   2.7928460   2.7928460   2.7928460
 AtZNuc=   6.0000000   7.0000000   6.0000000   1.0000000   1.0000000   1.0000000   6.0000000   1.0000000   1.0000000   1.0000000
 Leave Link  101 at Mon Jan 25 19:01:59 2021, MaxMem=  4026531840 cpu:               2.4 elap:               0.5
 (Enter /opt/ohpc/pub/libs/gaussian/g16-A.03/sandybridge/g16/l103.exe)

 GradGradGradGradGradGradGradGradGradGradGradGradGradGradGradGradGradGrad
 Berny optimization.
 Initialization pass.
                           ----------------------------
                           !    Initial Parameters    !
                           ! (Angstroms and Degrees)  !
 --------------------------                            --------------------------
 ! Name  Definition              Value          Derivative Info.                !
 --------------------------------------------------------------------------------
 ! R1    R(1,2)                  1.4977         estimate D2E/DX2                !
 ! R2    R(1,3)                  1.4503         estimate D2E/DX2                !
 ! R3    R(1,21)                 1.4855         estimate D2E/DX2                !
 ! R4    R(2,4)                  1.5569         estimate D2E/DX2                !
 ! R5    R(2,21)                 1.3807         estimate D2E/DX2                !
 ! R6    R(3,5)                  1.483          estimate D2E/DX2                !
 ! R7    R(3,9)                  1.4966         estimate D2E/DX2                !
 ! R8    R(4,13)                 1.4969         estimate D2E/DX2                !
 ! R9    R(4,17)                 1.4751         estimate D2E/DX2                !
 ! R10   R(5,6)                  1.0477         estimate D2E/DX2                !
 ! R11   R(5,7)                  1.1165         estimate D2E/DX2                !
 ! R12   R(5,8)                  1.105          estimate D2E/DX2                !
 ! R13   R(9,10)                 1.1076         estimate D2E/DX2                !
 ! R14   R(9,11)                 1.0414         estimate D2E/DX2                !
 ! R15   R(9,12)                 1.1457         estimate D2E/DX2                !
 ! R16   R(13,14)                1.0471         estimate D2E/DX2                !
 ! R17   R(13,15)                1.0784         estimate D2E/DX2                !
 ! R18   R(13,16)                1.0395         estimate D2E/DX2                !
 ! R19   R(17,18)                1.09           estimate D2E/DX2                !
 ! R20   R(17,19)                1.1016         estimate D2E/DX2                !
 ! R21   R(17,20)                1.1162         estimate D2E/DX2                !
 ! R22   R(21,22)                1.4809         estimate D2E/DX2                !
 ! R23   R(22,23)                1.4852         estimate D2E/DX2                !
 ! R24   R(22,27)                1.4031         estimate D2E/DX2                !
 ! R25   R(23,24)                1.0606         estimate D2E/DX2                !
 ! R26   R(23,25)                1.106          estimate D2E/DX2                !
 ! R27   R(23,26)                1.0736         estimate D2E/DX2                !
 ! R28   R(27,28)                1.0939         estimate D2E/DX2                !
 ! R29   R(27,29)                1.1029         estimate D2E/DX2                !
 ! R30   R(27,30)                1.1228         estimate D2E/DX2                !
 ! A1    A(2,1,3)              147.581          estimate D2E/DX2                !
 ! A2    A(3,1,21)             157.2654         estimate D2E/DX2                !
 ! A3    A(1,2,4)              149.6688         estimate D2E/DX2                !
 ! A4    A(4,2,21)             148.269          estimate D2E/DX2                !
 ! A5    A(1,3,5)              115.9191         estimate D2E/DX2                !
 ! A6    A(1,3,9)              114.8345         estimate D2E/DX2                !
 ! A7    A(5,3,9)              108.3914         estimate D2E/DX2                !
 ! A8    A(2,4,13)             112.3882         estimate D2E/DX2                !
 ! A9    A(2,4,17)             112.5139         estimate D2E/DX2                !
 ! A10   A(13,4,17)            113.0806         estimate D2E/DX2                !
 ! A11   A(3,5,6)              115.922          estimate D2E/DX2                !
 ! A12   A(3,5,7)              106.6064         estimate D2E/DX2                !
 ! A13   A(3,5,8)              110.6512         estimate D2E/DX2                !
 ! A14   A(6,5,7)              110.386          estimate D2E/DX2                !
 ! A15   A(6,5,8)              104.435          estimate D2E/DX2                !
 ! A16   A(7,5,8)              108.714          estimate D2E/DX2                !
 ! A17   A(3,9,10)             109.0324         estimate D2E/DX2                !
 ! A18   A(3,9,11)             115.8266         estimate D2E/DX2                !
 ! A19   A(3,9,12)             110.6409         estimate D2E/DX2                !
 ! A20   A(10,9,11)            110.7226         estimate D2E/DX2                !
 ! A21   A(10,9,12)            102.8935         estimate D2E/DX2                !
 ! A22   A(11,9,12)            106.9388         estimate D2E/DX2                !
 ! A23   A(4,13,14)            105.8347         estimate D2E/DX2                !
 ! A24   A(4,13,15)            113.408          estimate D2E/DX2                !
 ! A25   A(4,13,16)            109.0047         estimate D2E/DX2                !
 ! A26   A(14,13,15)           109.0293         estimate D2E/DX2                !
 ! A27   A(14,13,16)           107.4269         estimate D2E/DX2                !
 ! A28   A(15,13,16)           111.8014         estimate D2E/DX2                !
 ! A29   A(4,17,18)            105.311          estimate D2E/DX2                !
 ! A30   A(4,17,19)            112.9673         estimate D2E/DX2                !
 ! A31   A(4,17,20)            113.5748         estimate D2E/DX2                !
 ! A32   A(18,17,19)           108.6525         estimate D2E/DX2                !
 ! A33   A(18,17,20)           104.6789         estimate D2E/DX2                !
 ! A34   A(19,17,20)           111.0305         estimate D2E/DX2                !
 ! A35   A(1,21,22)            145.1333         estimate D2E/DX2                !
 ! A36   A(2,21,22)            150.5265         estimate D2E/DX2                !
 ! A37   A(21,22,23)           114.2141         estimate D2E/DX2                !
 ! A38   A(21,22,27)           115.3049         estimate D2E/DX2                !
 ! A39   A(23,22,27)           108.4101         estimate D2E/DX2                !
 ! A40   A(22,23,24)           112.2789         estimate D2E/DX2                !
 ! A41   A(22,23,25)           112.0229         estimate D2E/DX2                !
 ! A42   A(22,23,26)           113.2328         estimate D2E/DX2                !
 ! A43   A(24,23,25)           107.13           estimate D2E/DX2                !
 ! A44   A(24,23,26)           108.0252         estimate D2E/DX2                !
 ! A45   A(25,23,26)           103.6047         estimate D2E/DX2                !
 ! A46   A(22,27,28)           110.1008         estimate D2E/DX2                !
 ! A47   A(22,27,29)           113.7264         estimate D2E/DX2                !
 ! A48   A(22,27,30)           109.0474         estimate D2E/DX2                !
 ! A49   A(28,27,29)           108.4943         estimate D2E/DX2                !
 ! A50   A(28,27,30)           107.5347         estimate D2E/DX2                !
 ! A51   A(29,27,30)           107.7339         estimate D2E/DX2                !
 ! D1    D(3,1,2,4)              1.9792         estimate D2E/DX2                !
 ! D2    D(2,1,3,5)            125.9464         estimate D2E/DX2                !
 ! D3    D(2,1,3,9)           -106.3593         estimate D2E/DX2                !
 ! D4    D(21,1,3,5)           -56.8887         estimate D2E/DX2                !
 ! D5    D(21,1,3,9)            70.8057         estimate D2E/DX2                !
 ! D6    D(3,1,21,22)           14.4392         estimate D2E/DX2                !
 ! D7    D(1,2,4,13)           -72.1062         estimate D2E/DX2                !
 ! D8    D(1,2,4,17)            56.9224         estimate D2E/DX2                !
 ! D9    D(21,2,4,13)          113.4623         estimate D2E/DX2                !
 ! D10   D(21,2,4,17)         -117.5092         estimate D2E/DX2                !
 ! D11   D(4,2,21,22)          -17.8492         estimate D2E/DX2                !
 ! D12   D(1,3,5,6)           -139.9685         estimate D2E/DX2                !
 ! D13   D(1,3,5,7)            -16.6616         estimate D2E/DX2                !
 ! D14   D(1,3,5,8)            101.386          estimate D2E/DX2                !
 ! D15   D(9,3,5,6)             89.2111         estimate D2E/DX2                !
 ! D16   D(9,3,5,7)           -147.4819         estimate D2E/DX2                !
 ! D17   D(9,3,5,8)            -29.4344         estimate D2E/DX2                !
 ! D18   D(1,3,9,10)           138.3733         estimate D2E/DX2                !
 ! D19   D(1,3,9,11)           -95.9791         estimate D2E/DX2                !
 ! D20   D(1,3,9,12)            25.9047         estimate D2E/DX2                !
 ! D21   D(5,3,9,10)           -90.2169         estimate D2E/DX2                !
 ! D22   D(5,3,9,11)            35.4308         estimate D2E/DX2                !
 ! D23   D(5,3,9,12)           157.3145         estimate D2E/DX2                !
 ! D24   D(2,4,13,14)         -127.6945         estimate D2E/DX2                !
 ! D25   D(2,4,13,15)           -8.2164         estimate D2E/DX2                !
 ! D26   D(2,4,13,16)          117.0324         estimate D2E/DX2                !
 ! D27   D(17,4,13,14)         103.5724         estimate D2E/DX2                !
 ! D28   D(17,4,13,15)        -136.9495         estimate D2E/DX2                !
 ! D29   D(17,4,13,16)         -11.7007         estimate D2E/DX2                !
 ! D30   D(2,4,17,18)          152.8674         estimate D2E/DX2                !
 ! D31   D(2,4,17,19)          -88.6968         estimate D2E/DX2                !
 ! D32   D(2,4,17,20)           38.9063         estimate D2E/DX2                !
 ! D33   D(13,4,17,18)         -78.4644         estimate D2E/DX2                !
 ! D34   D(13,4,17,19)          39.9714         estimate D2E/DX2                !
 ! D35   D(13,4,17,20)         167.5745         estimate D2E/DX2                !
 ! D36   D(1,21,22,23)          98.3455         estimate D2E/DX2                !
 ! D37   D(1,21,22,27)        -135.0946         estimate D2E/DX2                !
 ! D38   D(2,21,22,23)         -58.4364         estimate D2E/DX2                !
 ! D39   D(2,21,22,27)          68.1235         estimate D2E/DX2                !
 ! D40   D(21,22,23,24)       -165.2662         estimate D2E/DX2                !
 ! D41   D(21,22,23,25)        -44.6639         estimate D2E/DX2                !
 ! D42   D(21,22,23,26)         72.0649         estimate D2E/DX2                !
 ! D43   D(27,22,23,24)         64.6702         estimate D2E/DX2                !
 ! D44   D(27,22,23,25)       -174.7275         estimate D2E/DX2                !
 ! D45   D(27,22,23,26)        -57.9987         estimate D2E/DX2                !
 ! D46   D(21,22,27,28)        125.694          estimate D2E/DX2                !
 ! D47   D(21,22,27,29)       -112.3128         estimate D2E/DX2                !
 ! D48   D(21,22,27,30)          7.9346         estimate D2E/DX2                !
 ! D49   D(23,22,27,28)       -104.8471         estimate D2E/DX2                !
 ! D50   D(23,22,27,29)         17.1461         estimate D2E/DX2                !
 ! D51   D(23,22,27,30)        137.3935         estimate D2E/DX2                !
 --------------------------------------------------------------------------------
 Trust Radius=3.00D-01 FncErr=1.00D-07 GrdErr=1.00D-06 EigMax=2.50D+02 EigMin=1.00D-04
 Number of steps in this run=    142 maximum allowed number of steps=    180.
 GradGradGradGradGradGradGradGradGradGradGradGradGradGradGradGradGradGrad

 Leave Link  103 at Mon Jan 25 19:01:59 2021, MaxMem=  4026531840 cpu:               0.2 elap:               0.1
 (Enter /opt/ohpc/pub/libs/gaussian/g16-A.03/sandybridge/g16/l202.exe)
                          Input orientation:                          
 ---------------------------------------------------------------------
 Center     Atomic      Atomic             Coordinates (Angstroms)
 Number     Number       Type             X           Y           Z
 ---------------------------------------------------------------------
      1          6           0        1.647202   -0.069501    0.535858
      2          6           0        2.383341    0.085070    1.831005
      3          7           0        1.705865   -0.069484   -0.913303
      4          7           0        3.705998    0.378107    2.598247
      5          6           0        1.172078   -1.279867   -1.583690
      6          1           0        1.715420   -1.622147   -2.411513
      7          1           0        1.109982   -2.075762   -0.803146
      8          1           0        0.157660   -1.091049   -1.978969
      9          6           0        1.105498    1.135727   -1.566686
     10          1           0        1.757445    1.455633   -2.402967
     11          1           0        0.119397    1.034790   -1.885997
     12          1           0        1.136746    2.036366   -0.859210
     13          6           0        4.685811   -0.749023    2.496586
     14          1           0        4.963819   -0.975541    3.480372
     15          1           0        4.275572   -1.632977    2.034733
     16          1           0        5.536630   -0.414373    2.001835
     17          6           0        4.288881    1.685108    2.240413
     18          1           0        4.859506    1.995175    3.115874
     19          1           0        4.970693    1.629787    1.376918
     20          1           0        3.528079    2.489604    2.099187
     21          6           0        1.024136   -0.152042    1.881811
     22          7           0       -0.190091   -0.537169    2.637149
     23          6           0       -0.116475   -1.881369    3.264431
     24          1           0       -1.067240   -2.231290    3.578152
     25          1           0        0.297920   -2.639253    2.573669
     26          1           0        0.546439   -1.919293    4.108076
     27          6           0       -0.608476    0.383439    3.609851
     28          1           0       -1.654858    0.655947    3.444157
     29          1           0       -0.502385    0.015295    4.644023
     30          1           0        0.003918    1.319752    3.515635
 ---------------------------------------------------------------------
                    Distance matrix (angstroms):
                    1          2          3          4          5
     1  C    0.000000
     2  C    1.497731   0.000000
     3  N    1.450348   2.830916   0.000000
     4  N    2.948295   1.556905   4.065938   0.000000
     5  C    2.486607   3.871738   1.483029   5.163160   0.000000
     6  H    3.332020   4.621652   2.157658   5.749879   1.047696
     7  H    2.471158   3.637223   2.095796   4.932570   1.116492
     8  H    3.096232   4.566488   2.139200   5.974950   1.104962
     9  C    2.483286   3.779030   1.496624   4.968225   2.416571
    10  H    3.312836   4.494075   2.132543   5.474492   2.914932
    11  H    3.069044   4.454606   2.163894   5.779566   2.560696
    12  H    2.577102   3.549481   2.182069   4.615722   3.394631
    13  C    3.679585   2.537731   4.579213   1.496927   5.410801
    14  H    4.526701   3.241014   5.544329   2.047589   6.333612
    15  H    3.405791   2.563928   4.211748   2.164814   4.780099
    16  H    4.170812   3.197164   4.826152   2.082053   5.714401
    17  C    3.600365   2.521670   4.438073   1.475144   5.755806
    18  H    4.608499   3.380944   5.517475   2.052663   6.812410
    19  H    3.826298   3.047415   4.334944   2.158194   5.626790
    20  H    3.539875   2.676589   4.352527   2.176956   5.772628
    21  C    1.485468   1.380667   2.878234   2.826079   3.647406
    22  N    2.830156   2.767599   4.052047   4.002343   4.496953
    23  C    3.720018   3.488649   4.904825   4.490026   5.052371
    24  H    4.614876   4.508276   5.704094   5.527474   5.706519
    25  H    3.546387   3.510337   4.554667   4.551929   4.460461
    26  H    4.170630   3.546369   5.475428   4.188131   5.761640
    27  C    3.839619   3.493463   5.101003   4.431485   5.736709
    28  H    4.459605   4.385797   5.550511   5.434293   6.084257
    29  H    4.637341   4.030552   5.980588   4.693327   6.577665
    30  H    3.675524   3.166081   4.943894   3.928574   5.841723
                    6          7          8          9         10
     6  H    0.000000
     7  H    1.777404   0.000000
     8  H    1.701698   1.805308   0.000000
     9  C    2.948153   3.301011   2.454976   0.000000
    10  H    3.078079   3.930571   3.037215   1.107583   0.000000
    11  H    3.143687   3.439383   2.128215   1.041414   1.768493
    12  H    4.016121   4.112597   3.463119   1.145709   1.762301
    13  C    5.803017   5.043314   6.375871   5.734205   6.118942
    14  H    6.759031   5.866095   7.274401   6.694542   7.127771
    15  H    5.130653   4.274409   5.775871   5.539432   5.964366
    16  H    5.961376   5.497576   6.725921   5.896786   6.097659
    17  C    6.261074   5.789024   6.525122   4.992970   5.293563
    18  H    7.315894   6.781606   7.588779   6.062804   6.353857
    19  H    5.960209   5.778310   6.467628   4.883506   4.964154
    20  H    6.366996   5.925647   6.388439   4.597881   4.947083
    21  C    4.590394   3.304098   4.066711   3.681997   4.634834
    22  N    5.504284   3.986614   4.662216   4.706311   5.759073
    23  C    5.969872   4.252901   5.309708   5.825442   6.838608
    24  H    6.632521   4.894922   5.803630   6.521269   7.572716
    25  H    5.281652   3.518501   4.810730   5.660848   6.607966
    26  H    6.630223   4.945924   6.155425   6.469051   7.433057
    27  C    6.758675   5.336226   5.830608   5.504560   6.549898
    28  H    7.130032   5.757270   5.978922   5.740932   6.817050
    29  H    7.574989   6.053420   6.747124   6.512570   7.539328
    30  H    6.834844   5.603995   6.002189   5.203588   6.174396
                   11         12         13         14         15
    11  H    0.000000
    12  H    1.758535   0.000000
    13  C    6.575801   5.622777   0.000000
    14  H    7.503850   6.523039   1.047107   0.000000
    15  H    6.305783   5.629495   1.078415   1.730832   0.000000
    16  H    6.823615   5.792295   1.039549   1.681991   1.753951
    17  C    5.902099   4.434749   2.479551   3.011991   3.324480
    18  H    6.957707   5.446277   2.818565   2.994811   3.830579
    19  H    5.876709   4.456986   2.644532   3.348477   3.400227
    20  H    5.442177   3.830928   3.462221   3.997030   4.190295
    21  C    4.052592   3.509274   3.760611   4.330664   3.576086
    22  N    4.798509   4.539615   4.882526   5.240800   4.637440
    23  C    5.923388   5.824399   4.993370   5.164934   4.567705
    24  H    6.475516   6.539161   6.038584   6.161180   5.593368
    25  H    5.780924   5.860862   4.778336   5.035937   4.138207
    26  H    6.696109   6.377275   4.593564   4.560474   4.276349
    27  C    5.581971   5.074492   5.527323   5.737078   5.513697
    28  H    5.630457   5.312022   6.563224   6.816887   6.511194
    29  H    6.638309   6.087450   5.666837   5.675846   5.688064
    30  H    5.410376   4.575599   5.219043   5.465367   5.399880
                   16         17         18         19         20
    16  H    0.000000
    17  C    2.453898   0.000000
    18  H    2.739617   1.090040   0.000000
    19  H    2.211198   1.101613   1.780404   0.000000
    20  H    3.532257   1.116234   1.746657   1.828139   0.000000
    21  C    4.521706   3.763280   4.565470   4.359489   3.646269
    22  N    5.763162   5.015686   5.669248   5.737384   4.824474
    23  C    5.975268   5.759821   6.309521   6.462987   5.809128
    24  H    7.028304   6.768733   7.294040   7.497332   6.752121
    25  H    5.720242   5.893974   6.525333   6.441407   6.079822
    26  H    5.621658   5.521390   5.908475   6.295174   5.688953
    27  C    6.401917   5.249172   5.721934   6.137304   4.881508
    28  H    7.412380   6.151114   6.658697   7.008550   5.659866
    29  H    6.605715   5.614432   5.916506   6.575344   5.370571
    30  H    5.992469   4.485597   4.918612   5.416557   3.974241
                   21         22         23         24         25
    21  C    0.000000
    22  N    1.480948   0.000000
    23  C    2.490623   1.485185   0.000000
    24  H    3.402161   2.127187   1.060575   0.000000
    25  H    2.681842   2.158921   1.106012   1.743296   0.000000
    26  H    2.882295   2.148574   1.073606   1.726882   1.713041
    27  C    2.436859   1.403109   2.343232   2.654859   3.321429
    28  H    3.204806   2.054344   2.972692   2.949472   3.928032
    29  H    3.160393   2.104825   2.376875   2.549958   3.460272
    30  H    2.424129   2.063379   3.213219   3.709607   4.080130
                   26         27         28         29         30
    26  H    0.000000
    27  C    2.623858   0.000000
    28  H    3.452297   1.093906   0.000000
    29  H    2.264929   1.102859   1.782781   0.000000
    30  H    3.337174   1.122758   1.788095   1.797557   0.000000
 Stoichiometry    C9H18N3(1+)
 Framework group  C1[X(C9H18N3)]
 Deg. of freedom    84
 Full point group                 C1      NOp   1
 Largest Abelian subgroup         C1      NOp   1
 Largest concise Abelian subgroup C1      NOp   1
                         Standard orientation:                         
 ---------------------------------------------------------------------
 Center     Atomic      Atomic             Coordinates (Angstroms)
 Number     Number       Type             X           Y           Z
 ---------------------------------------------------------------------
      1          6           0        0.883510   -0.107832    0.013314
      2          6           0       -0.390322    0.678934   -0.026075
      3          7           0        2.329222   -0.092039    0.128095
      4          7           0       -1.122406    2.052819   -0.004952
      5          6           0        2.904296   -0.948412    1.193595
      6          1           0        3.709487   -0.539748    1.724940
      7          1           0        2.066941   -1.198929    1.888312
      8          1           0        3.303485   -1.886202    0.766818
      9          6           0        3.064010   -0.366706   -1.146475
     10          1           0        3.927176    0.323246   -1.221655
     11          1           0        3.366425   -1.352498   -1.292429
     12          1           0        2.424829   -0.076110   -2.051821
     13          6           0       -1.095169    2.692630    1.348078
     14          1           0       -2.090458    2.927543    1.573133
     15          1           0       -0.703027    2.048332    2.118847
     16          1           0       -0.569780    3.587679    1.288784
     17          6           0       -0.664551    2.953405   -1.079830
     18          1           0       -1.509880    3.610492   -1.284384
     19          1           0        0.198481    3.571113   -0.784593
     20          1           0       -0.471326    2.431534   -2.047452
     21          6           0       -0.470264   -0.692229   -0.166659
     22          7           0       -1.262407   -1.943491   -0.174248
     23          6           0       -1.985967   -2.214078    1.094223
     24          1           0       -2.332814   -3.214566    1.153728
     25          1           0       -1.349085   -2.036804    1.980914
     26          1           0       -2.824295   -1.561960    1.250992
     27          6           0       -2.168552   -2.073213   -1.237633
     28          1           0       -1.992458   -3.012982   -1.769097
     29          1           0       -3.225983   -2.040319   -0.926099
     30          1           0       -2.000537   -1.235827   -1.966428
 ---------------------------------------------------------------------
 Rotational constants (GHZ):           0.7410896           0.7040166           0.4570257
 Leave Link  202 at Mon Jan 25 19:01:59 2021, MaxMem=  4026531840 cpu:               0.4 elap:               0.1
 (Enter /opt/ohpc/pub/libs/gaussian/g16-A.03/sandybridge/g16/l301.exe)
 Standard basis: TZVP (5D, 7F)
 Ernie: Thresh=  0.10000D-02 Tol=  0.10000D-05 Strict=F.
 There are   348 symmetry adapted cartesian basis functions of A   symmetry.
 There are   336 symmetry adapted basis functions of A   symmetry.
   336 basis functions,   564 primitive gaussians,   348 cartesian basis functions
    46 alpha electrons       46 beta electrons
       nuclear repulsion energy       708.4096122261 Hartrees.
 IExCor=33909 DFT=T Ex+Corr=LC-wHPBE ExCW=0 ScaHFX=  1.000000
 ScaDFX=  1.000000  1.000000  1.000000  1.000000 ScalE2=  1.000000  1.000000
 IRadAn=      5 IRanWt=     -1 IRanGd=            0 ICorTp=0 IEmpDi=  4
 HFx  wShort=  0.000000 wLong=  0.339000 cFull=  0.000000 cShort=  0.000000 cLong=  1.000000
 DFx  wShort=  0.000000 wLong=  0.339000 cFull=  0.000000 cShort=  1.000000 cLong=  0.000000
 NAtoms=   30 NActive=   30 NUniq=   30 SFac= 1.00D+00 NAtFMM=   60 NAOKFM=F Big=F
 Integral buffers will be    131072 words long.
 Raffenetti 2 integral format.
 Two-electron integral symmetry is turned on.
 Leave Link  301 at Mon Jan 25 19:01:59 2021, MaxMem=  4026531840 cpu:               0.5 elap:               0.1
 (Enter /opt/ohpc/pub/libs/gaussian/g16-A.03/sandybridge/g16/l302.exe)
 NPDir=0 NMtPBC=     1 NCelOv=     1 NCel=       1 NClECP=     1 NCelD=      1
         NCelK=      1 NCelE2=     1 NClLst=     1 CellRange=     0.0.
 One-electron integrals computed using PRISM.
 One-electron integral symmetry used in STVInt
 NBasis=   336 RedAO= T EigKep=  9.67D-05  NBF=   336
 NBsUse=   336 1.00D-06 EigRej= -1.00D+00 NBFU=   336
 Precomputing XC quadrature grid using
 IXCGrd= 4 IRadAn=           5 IRanWt=          -1 IRanGd=           0 AccXCQ= 0.00D+00.
 Generated NRdTot=       0 NPtTot=           0 NUsed=           0 NTot=          32
 NSgBfM=   343   343   343   343   343 MxSgAt=    30 MxSgA2=    30.
 Leave Link  302 at Mon Jan 25 19:02:00 2021, MaxMem=  4026531840 cpu:               4.1 elap:               0.6
 (Enter /opt/ohpc/pub/libs/gaussian/g16-A.03/sandybridge/g16/l303.exe)
 DipDrv:  MaxL=1.
 Leave Link  303 at Mon Jan 25 19:02:00 2021, MaxMem=  4026531840 cpu:               1.3 elap:               0.3
 (Enter /opt/ohpc/pub/libs/gaussian/g16-A.03/sandybridge/g16/l401.exe)
 ExpMin= 9.52D-02 ExpMax= 1.97D+04 ExpMxC= 6.73D+02 IAcc=3 IRadAn=         5 AccDes= 0.00D+00
 Harris functional with IExCor=33909 and IRadAn=       5 diagonalized for initial guess.
 HarFok:  IExCor=33909 AccDes= 0.00D+00 IRadAn=         5 IDoV= 1 UseB2=F ITyADJ=14
 ICtDFT=  3500011 ScaDFX=  1.000000  1.000000  1.000000  1.000000
 FoFCou: FMM=F IPFlag=           0 FMFlag=      100000 FMFlg1=           0
         NFxFlg=           0 DoJE=T BraDBF=F KetDBF=T FulRan=T
         wScrn=  0.000000 ICntrl=       500 IOpCl=  0 I1Cent=   200000004 NGrid=           0
         NMat0=    1 NMatS0=      1 NMatT0=    0 NMatD0=    1 NMtDS0=    0 NMtDT0=    0
 Petite list used in FoFCou.
 Harris En= -501.672689162016    
 JPrj=0 DoOrth=F DoCkMO=F.
 Leave Link  401 at Mon Jan 25 19:02:04 2021, MaxMem=  4026531840 cpu:              23.9 elap:               4.0
 (Enter /opt/ohpc/pub/libs/gaussian/g16-A.03/sandybridge/g16/l502.exe)
 Integral symmetry usage will be decided dynamically.
 Closed shell SCF:
 Using DIIS extrapolation, IDIIS=  1040.
 NGot=  4026531840 LenX=  4026283142 LenY=  4026161597
 Requested convergence on RMS density matrix=1.00D-08 within 128 cycles.
 Requested convergence on MAX density matrix=1.00D-06.
 Requested convergence on             energy=1.00D-06.
 No special actions if energy rises.
 Fock matrices will be formed incrementally for  20 cycles.
 Integral accuracy reduced to 1.0D-05 until final iterations.

 Cycle   1  Pass 0  IDiag  1:
 FoFJK:  IHMeth= 1 ICntrl=       0 DoSepK=T KAlg= 0 I1Cent=           0 FoldK=F
 IRaf=         1 NMat=       1 IRICut=       1 DoRegI=T DoRafI=F ISym2E= 0 IDoP0=0 IntGTp=1.
 FoFCou: FMM=F IPFlag=           0 FMFlag=      100000 FMFlg1=           0
         NFxFlg=           0 DoJE=T BraDBF=F KetDBF=F FulRan=T
         wScrn=  0.000000 ICntrl=       500 IOpCl=  0 I1Cent=           0 NGrid=           0
         NMat0=    1 NMatS0=      1 NMatT0=    0 NMatD0=    1 NMtDS0=    0 NMtDT0=    0
 Symmetry not used in FoFCou.
 E= -517.164419300201    
 DIIS: error= 2.29D-02 at cycle   1 NSaved=   1.
 NSaved= 1 IEnMin= 1 EnMin= -517.164419300201     IErMin= 1 ErrMin= 2.29D-02
 ErrMax= 2.29D-02  0.00D+00 EMaxC= 1.00D-01 BMatC= 2.15D-01 BMatP= 2.15D-01
 IDIUse=3 WtCom= 7.71D-01 WtEn= 2.29D-01
 Coeff-Com:  0.100D+01
 Coeff-En:   0.100D+01
 Coeff:      0.100D+01
 Gap=     0.258 Goal=   None    Shift=    0.000
 GapD=    0.258 DampG=1.000 DampE=0.500 DampFc=0.5000 IDamp=-1.
 Damping current iteration by 5.00D-01
 RMSDP=3.08D-03 MaxDP=2.13D-01              OVMax= 1.06D-01

 Cycle   2  Pass 0  IDiag  1:
 RMSU=  1.54D-03    CP:  1.00D+00
 E= -517.270031958510     Delta-E=       -0.105612658309 Rises=F Damp=T
 DIIS: error= 5.76D-03 at cycle   2 NSaved=   2.
 NSaved= 2 IEnMin= 2 EnMin= -517.270031958510     IErMin= 2 ErrMin= 5.76D-03
 ErrMax= 5.76D-03  0.00D+00 EMaxC= 1.00D-01 BMatC= 1.41D-02 BMatP= 2.15D-01
 IDIUse=3 WtCom= 9.42D-01 WtEn= 5.76D-02
 Coeff-Com: -0.139D+00 0.114D+01
 Coeff-En:   0.000D+00 0.100D+01
 Coeff:     -0.131D+00 0.113D+01
 Gap=     0.339 Goal=   None    Shift=    0.000
 RMSDP=8.99D-04 MaxDP=3.49D-02 DE=-1.06D-01 OVMax= 5.36D-02

 Cycle   3  Pass 0  IDiag  1:
 RMSU=  7.94D-04    CP:  9.97D-01  1.27D+00
 E= -517.365132657878     Delta-E=       -0.095100699368 Rises=F Damp=F
 DIIS: error= 2.27D-03 at cycle   3 NSaved=   3.
 NSaved= 3 IEnMin= 3 EnMin= -517.365132657878     IErMin= 3 ErrMin= 2.27D-03
 ErrMax= 2.27D-03  0.00D+00 EMaxC= 1.00D-01 BMatC= 1.62D-03 BMatP= 1.41D-02
 IDIUse=3 WtCom= 9.77D-01 WtEn= 2.27D-02
 Coeff-Com: -0.544D-01 0.241D+00 0.813D+00
 Coeff-En:   0.000D+00 0.000D+00 0.100D+01
 Coeff:     -0.532D-01 0.236D+00 0.817D+00
 Gap=     0.308 Goal=   None    Shift=    0.000
 RMSDP=2.27D-04 MaxDP=5.07D-03 DE=-9.51D-02 OVMax= 8.49D-03

 Cycle   4  Pass 0  IDiag  1:
 RMSU=  1.86D-04    CP:  9.95D-01  1.35D+00  1.06D+00
 E= -517.366255114638     Delta-E=       -0.001122456760 Rises=F Damp=F
 DIIS: error= 1.11D-03 at cycle   4 NSaved=   4.
 NSaved= 4 IEnMin= 4 EnMin= -517.366255114638     IErMin= 4 ErrMin= 1.11D-03
 ErrMax= 1.11D-03  0.00D+00 EMaxC= 1.00D-01 BMatC= 5.30D-04 BMatP= 1.62D-03
 IDIUse=3 WtCom= 9.89D-01 WtEn= 1.11D-02
 Coeff-Com: -0.145D-01 0.375D-01 0.369D+00 0.608D+00
 Coeff-En:   0.000D+00 0.000D+00 0.105D+00 0.895D+00
 Coeff:     -0.143D-01 0.370D-01 0.366D+00 0.611D+00
 Gap=     0.314 Goal=   None    Shift=    0.000
 RMSDP=1.02D-04 MaxDP=5.03D-03 DE=-1.12D-03 OVMax= 5.15D-03

 Cycle   5  Pass 0  IDiag  1:
 RMSU=  7.33D-05    CP:  9.93D-01  1.35D+00  1.14D+00  9.15D-01
 E= -517.366709254805     Delta-E=       -0.000454140167 Rises=F Damp=F
 DIIS: error= 2.67D-04 at cycle   5 NSaved=   5.
 NSaved= 5 IEnMin= 5 EnMin= -517.366709254805     IErMin= 5 ErrMin= 2.67D-04
 ErrMax= 2.67D-04  0.00D+00 EMaxC= 1.00D-01 BMatC= 3.03D-05 BMatP= 5.30D-04
 IDIUse=3 WtCom= 9.97D-01 WtEn= 2.67D-03
 Coeff-Com:  0.342D-02-0.211D-01-0.571D-02 0.176D+00 0.848D+00
 Coeff-En:   0.000D+00 0.000D+00 0.000D+00 0.000D+00 0.100D+01
 Coeff:      0.341D-02-0.210D-01-0.569D-02 0.175D+00 0.848D+00
 Gap=     0.314 Goal=   None    Shift=    0.000
 RMSDP=3.87D-05 MaxDP=1.31D-03 DE=-4.54D-04 OVMax= 1.70D-03

 Cycle   6  Pass 0  IDiag  1:
 RMSU=  1.98D-05    CP:  9.92D-01  1.35D+00  1.17D+00  1.02D+00  1.02D+00
 E= -517.366744004369     Delta-E=       -0.000034749564 Rises=F Damp=F
 DIIS: error= 5.36D-05 at cycle   6 NSaved=   6.
 NSaved= 6 IEnMin= 6 EnMin= -517.366744004369     IErMin= 6 ErrMin= 5.36D-05
 ErrMax= 5.36D-05  0.00D+00 EMaxC= 1.00D-01 BMatC= 1.75D-06 BMatP= 3.03D-05
 IDIUse=1 WtCom= 1.00D+00 WtEn= 0.00D+00
 Coeff-Com:  0.180D-02-0.798D-02-0.297D-01 0.945D-03 0.190D+00 0.845D+00
 Coeff:      0.180D-02-0.798D-02-0.297D-01 0.945D-03 0.190D+00 0.845D+00
 Gap=     0.314 Goal=   None    Shift=    0.000
 RMSDP=1.46D-05 MaxDP=8.11D-04 DE=-3.47D-05 OVMax= 8.20D-04

 Cycle   7  Pass 0  IDiag  1:
 RMSU=  7.34D-06    CP:  9.92D-01  1.35D+00  1.18D+00  1.05D+00  1.13D+00
                    CP:  1.17D+00
 E= -517.366746995808     Delta-E=       -0.000002991439 Rises=F Damp=F
 DIIS: error= 3.41D-05 at cycle   7 NSaved=   7.
 NSaved= 7 IEnMin= 7 EnMin= -517.366746995808     IErMin= 7 ErrMin= 3.41D-05
 ErrMax= 3.41D-05  0.00D+00 EMaxC= 1.00D-01 BMatC= 5.95D-07 BMatP= 1.75D-06
 IDIUse=1 WtCom= 1.00D+00 WtEn= 0.00D+00
 Coeff-Com:  0.376D-03-0.879D-03-0.134D-01-0.211D-01-0.160D-01 0.399D+00
 Coeff-Com:  0.652D+00
 Coeff:      0.376D-03-0.879D-03-0.134D-01-0.211D-01-0.160D-01 0.399D+00
 Coeff:      0.652D+00
 Gap=     0.314 Goal=   None    Shift=    0.000
 RMSDP=5.27D-06 MaxDP=3.46D-04 DE=-2.99D-06 OVMax= 3.89D-04

 Initial convergence to 1.0D-05 achieved.  Increase integral accuracy.
 Cycle   8  Pass 1  IDiag  1:
 E= -517.366752718936     Delta-E=       -0.000005723128 Rises=F Damp=F
 DIIS: error= 4.30D-05 at cycle   1 NSaved=   1.
 NSaved= 1 IEnMin= 1 EnMin= -517.366752718936     IErMin= 1 ErrMin= 4.30D-05
 ErrMax= 4.30D-05  0.00D+00 EMaxC= 1.00D-01 BMatC= 4.72D-07 BMatP= 4.72D-07
 IDIUse=1 WtCom= 1.00D+00 WtEn= 0.00D+00
 Coeff-Com:  0.100D+01
 Coeff:      0.100D+01
 Gap=     0.314 Goal=   None    Shift=    0.000
 RMSDP=5.27D-06 MaxDP=3.46D-04 DE=-5.72D-06 OVMax= 3.35D-04

 Cycle   9  Pass 1  IDiag  1:
 RMSU=  3.77D-05    CP:  1.00D+00
 E= -517.366753236825     Delta-E=       -0.000000517889 Rises=F Damp=F
 DIIS: error= 1.31D-05 at cycle   2 NSaved=   2.
 NSaved= 2 IEnMin= 2 EnMin= -517.366753236825     IErMin= 2 ErrMin= 1.31D-05
 ErrMax= 1.31D-05  0.00D+00 EMaxC= 1.00D-01 BMatC= 3.96D-08 BMatP= 4.72D-07
 IDIUse=1 WtCom= 1.00D+00 WtEn= 0.00D+00
 Coeff-Com:  0.552D-01 0.945D+00
 Coeff:      0.552D-01 0.945D+00
 Gap=     0.314 Goal=   None    Shift=    0.000
 RMSDP=3.94D-06 MaxDP=1.82D-04 DE=-5.18D-07 OVMax= 2.05D-04

 Cycle  10  Pass 1  IDiag  1:
 RMSU=  1.94D-06    CP:  1.00D+00  1.09D+00
 E= -517.366753334959     Delta-E=       -0.000000098134 Rises=F Damp=F
 DIIS: error= 9.77D-06 at cycle   3 NSaved=   3.
 NSaved= 3 IEnMin= 3 EnMin= -517.366753334959     IErMin= 3 ErrMin= 9.77D-06
 ErrMax= 9.77D-06  0.00D+00 EMaxC= 1.00D-01 BMatC= 3.49D-08 BMatP= 3.96D-08
 IDIUse=1 WtCom= 1.00D+00 WtEn= 0.00D+00
 Coeff-Com: -0.369D-01 0.489D+00 0.547D+00
 Coeff:     -0.369D-01 0.489D+00 0.547D+00
 Gap=     0.314 Goal=   None    Shift=    0.000
 RMSDP=1.07D-06 MaxDP=4.74D-05 DE=-9.81D-08 OVMax= 1.07D-04

 Cycle  11  Pass 1  IDiag  1:
 RMSU=  8.15D-07    CP:  1.00D+00  1.11D+00  1.10D+00
 E= -517.366753393776     Delta-E=       -0.000000058817 Rises=F Damp=F
 DIIS: error= 7.53D-06 at cycle   4 NSaved=   4.
 NSaved= 4 IEnMin= 4 EnMin= -517.366753393776     IErMin= 4 ErrMin= 7.53D-06
 ErrMax= 7.53D-06  0.00D+00 EMaxC= 1.00D-01 BMatC= 3.91D-09 BMatP= 3.49D-08
 IDIUse=1 WtCom= 1.00D+00 WtEn= 0.00D+00
 Coeff-Com:  0.912D-02-0.506D+00-0.268D+00 0.176D+01
 Coeff:      0.912D-02-0.506D+00-0.268D+00 0.176D+01
 Gap=     0.314 Goal=   None    Shift=    0.000
 RMSDP=1.47D-06 MaxDP=4.53D-05 DE=-5.88D-08 OVMax= 2.42D-04

 Cycle  12  Pass 1  IDiag  1:
 RMSU=  6.82D-07    CP:  1.00D+00  1.12D+00  1.61D+00  1.84D+00
 E= -517.366753441935     Delta-E=       -0.000000048160 Rises=F Damp=F
 DIIS: error= 2.81D-06 at cycle   5 NSaved=   5.
 NSaved= 5 IEnMin= 5 EnMin= -517.366753441935     IErMin= 5 ErrMin= 2.81D-06
 ErrMax= 2.81D-06  0.00D+00 EMaxC= 1.00D-01 BMatC= 9.56D-10 BMatP= 3.91D-09
 IDIUse=1 WtCom= 1.00D+00 WtEn= 0.00D+00
 Coeff-Com:  0.132D-01-0.339D+00-0.248D+00 0.732D+00 0.841D+00
 Coeff:      0.132D-01-0.339D+00-0.248D+00 0.732D+00 0.841D+00
 Gap=     0.314 Goal=   None    Shift=    0.000
 RMSDP=5.45D-07 MaxDP=1.89D-05 DE=-4.82D-08 OVMax= 1.03D-04

 Cycle  13  Pass 1  IDiag  1:
 RMSU=  1.95D-07    CP:  1.00D+00  1.12D+00  1.76D+00  2.18D+00  1.47D+00
 E= -517.366753448910     Delta-E=       -0.000000006975 Rises=F Damp=F
 DIIS: error= 9.00D-07 at cycle   6 NSaved=   6.
 NSaved= 6 IEnMin= 6 EnMin= -517.366753448910     IErMin= 6 ErrMin= 9.00D-07
 ErrMax= 9.00D-07  0.00D+00 EMaxC= 1.00D-01 BMatC= 1.09D-10 BMatP= 9.56D-10
 IDIUse=1 WtCom= 1.00D+00 WtEn= 0.00D+00
 Coeff-Com:  0.114D-02 0.696D-02-0.493D-02-0.109D+00 0.160D+00 0.945D+00
 Coeff:      0.114D-02 0.696D-02-0.493D-02-0.109D+00 0.160D+00 0.945D+00
 Gap=     0.314 Goal=   None    Shift=    0.000
 RMSDP=2.04D-07 MaxDP=9.72D-06 DE=-6.97D-09 OVMax= 2.81D-05

 Cycle  14  Pass 1  IDiag  1:
 RMSU=  6.44D-08    CP:  1.00D+00  1.12D+00  1.77D+00  2.21D+00  1.67D+00
                    CP:  1.31D+00
 E= -517.366753449553     Delta-E=       -0.000000000643 Rises=F Damp=F
 DIIS: error= 3.79D-07 at cycle   7 NSaved=   7.
 NSaved= 7 IEnMin= 7 EnMin= -517.366753449553     IErMin= 7 ErrMin= 3.79D-07
 ErrMax= 3.79D-07  0.00D+00 EMaxC= 1.00D-01 BMatC= 3.76D-11 BMatP= 1.09D-10
 IDIUse=1 WtCom= 1.00D+00 WtEn= 0.00D+00
 Coeff-Com: -0.310D-02 0.943D-01 0.656D-01-0.247D+00-0.160D+00 0.390D+00
 Coeff-Com:  0.861D+00
 Coeff:     -0.310D-02 0.943D-01 0.656D-01-0.247D+00-0.160D+00 0.390D+00
 Coeff:      0.861D+00
 Gap=     0.314 Goal=   None    Shift=    0.000
 RMSDP=1.05D-07 MaxDP=4.60D-06 DE=-6.43D-10 OVMax= 1.46D-05

 Cycle  15  Pass 1  IDiag  1:
 RMSU=  3.70D-08    CP:  1.00D+00  1.12D+00  1.76D+00  2.22D+00  1.77D+00
                    CP:  1.51D+00  1.61D+00
 E= -517.366753449720     Delta-E=       -0.000000000168 Rises=F Damp=F
 DIIS: error= 1.49D-07 at cycle   8 NSaved=   8.
 NSaved= 8 IEnMin= 8 EnMin= -517.366753449720     IErMin= 8 ErrMin= 1.49D-07
 ErrMax= 1.49D-07  0.00D+00 EMaxC= 1.00D-01 BMatC= 4.04D-12 BMatP= 3.76D-11
 IDIUse=1 WtCom= 1.00D+00 WtEn= 0.00D+00
 Coeff-Com: -0.426D-03 0.568D-02 0.572D-02 0.122D-02-0.384D-01-0.139D+00
 Coeff-Com:  0.645D-01 0.110D+01
 Coeff:     -0.426D-03 0.568D-02 0.572D-02 0.122D-02-0.384D-01-0.139D+00
 Coeff:      0.645D-01 0.110D+01
 Gap=     0.314 Goal=   None    Shift=    0.000
 RMSDP=4.39D-08 MaxDP=2.05D-06 DE=-1.68D-10 OVMax= 5.16D-06

 Cycle  16  Pass 1  IDiag  1:
 RMSU=  1.52D-08    CP:  1.00D+00  1.12D+00  1.77D+00  2.22D+00  1.77D+00
                    CP:  1.55D+00  2.04D+00  1.39D+00
 E= -517.366753449749     Delta-E=       -0.000000000028 Rises=F Damp=F
 DIIS: error= 7.90D-08 at cycle   9 NSaved=   9.
 NSaved= 9 IEnMin= 9 EnMin= -517.366753449749     IErMin= 9 ErrMin= 7.90D-08
 ErrMax= 7.90D-08  0.00D+00 EMaxC= 1.00D-01 BMatC= 9.65D-13 BMatP= 4.04D-12
 IDIUse=1 WtCom= 1.00D+00 WtEn= 0.00D+00
 Coeff-Com:  0.449D-03-0.160D-01-0.104D-01 0.472D-01 0.171D-01-0.119D+00
 Coeff-Com: -0.135D+00 0.351D+00 0.865D+00
 Coeff:      0.449D-03-0.160D-01-0.104D-01 0.472D-01 0.171D-01-0.119D+00
 Coeff:     -0.135D+00 0.351D+00 0.865D+00
 Gap=     0.314 Goal=   None    Shift=    0.000
 RMSDP=1.95D-08 MaxDP=1.17D-06 DE=-2.82D-11 OVMax= 2.07D-06

 Cycle  17  Pass 1  IDiag  1:
 RMSU=  4.59D-09    CP:  1.00D+00  1.12D+00  1.77D+00  2.23D+00  1.76D+00
                    CP:  1.55D+00  2.18D+00  1.56D+00  1.45D+00
 E= -517.366753449757     Delta-E=       -0.000000000009 Rises=F Damp=F
 DIIS: error= 3.70D-08 at cycle  10 NSaved=  10.
 NSaved=10 IEnMin=10 EnMin= -517.366753449757     IErMin=10 ErrMin= 3.70D-08
 ErrMax= 3.70D-08  0.00D+00 EMaxC= 1.00D-01 BMatC= 1.42D-13 BMatP= 9.65D-13
 IDIUse=1 WtCom= 1.00D+00 WtEn= 0.00D+00
 Coeff-Com:  0.912D-05 0.148D-02 0.532D-03-0.763D-02 0.403D-02 0.435D-01
 Coeff-Com:  0.144D-01-0.272D+00-0.123D+00 0.134D+01
 Coeff:      0.912D-05 0.148D-02 0.532D-03-0.763D-02 0.403D-02 0.435D-01
 Coeff:      0.144D-01-0.272D+00-0.123D+00 0.134D+01
 Gap=     0.314 Goal=   None    Shift=    0.000
 RMSDP=8.14D-09 MaxDP=3.78D-07 DE=-8.64D-12 OVMax= 1.33D-06

 SCF Done:  E(RLC-wHPBE) =  -517.366753450     A.U. after   17 cycles
            NFock= 17  Conv=0.81D-08     -V/T= 2.0070
 KE= 5.137642643418D+02 PE=-2.602691913772D+03 EE= 8.631512837543D+02
 Leave Link  502 at Mon Jan 25 19:04:22 2021, MaxMem=  4026531840 cpu:            1102.2 elap:             138.0
 (Enter /opt/ohpc/pub/libs/gaussian/g16-A.03/sandybridge/g16/l601.exe)
 Copying SCF densities to generalized density rwf, IOpCl= 0 IROHF=0.

 **********************************************************************

            Population analysis using the SCF density.

 **********************************************************************

 Orbital symmetries:
       Occupied  (A) (A) (A) (A) (A) (A) (A) (A) (A) (A) (A) (A)
                 (A) (A) (A) (A) (A) (A) (A) (A) (A) (A) (A) (A)
                 (A) (A) (A) (A) (A) (A) (A) (A) (A) (A) (A) (A)
                 (A) (A) (A) (A) (A) (A) (A) (A) (A) (A)
       Virtual   (A) (A) (A) (A) (A) (A) (A) (A) (A) (A) (A) (A)
                 (A) (A) (A) (A) (A) (A) (A) (A) (A) (A) (A) (A)
                 (A) (A) (A) (A) (A) (A) (A) (A) (A) (A) (A) (A)
                 (A) (A) (A) (A) (A) (A) (A) (A) (A) (A) (A) (A)
                 (A) (A) (A) (A) (A) (A) (A) (A) (A) (A) (A) (A)
                 (A) (A) (A) (A) (A) (A) (A) (A) (A) (A) (A) (A)
                 (A) (A) (A) (A) (A) (A) (A) (A) (A) (A) (A) (A)
                 (A) (A) (A) (A) (A) (A) (A) (A) (A) (A) (A) (A)
                 (A) (A) (A) (A) (A) (A) (A) (A) (A) (A) (A) (A)
                 (A) (A) (A) (A) (A) (A) (A) (A) (A) (A) (A) (A)
                 (A) (A) (A) (A) (A) (A) (A) (A) (A) (A) (A) (A)
                 (A) (A) (A) (A) (A) (A) (A) (A) (A) (A) (A) (A)
                 (A) (A) (A) (A) (A) (A) (A) (A) (A) (A) (A) (A)
                 (A) (A) (A) (A) (A) (A) (A) (A) (A) (A) (A) (A)
                 (A) (A) (A) (A) (A) (A) (A) (A) (A) (A) (A) (A)
                 (A) (A) (A) (A) (A) (A) (A) (A) (A) (A) (A) (A)
                 (A) (A) (A) (A) (A) (A) (A) (A) (A) (A) (A) (A)
                 (A) (A) (A) (A) (A) (A) (A) (A) (A) (A) (A) (A)
                 (A) (A) (A) (A) (A) (A) (A) (A) (A) (A) (A) (A)
                 (A) (A) (A) (A) (A) (A) (A) (A) (A) (A) (A) (A)
                 (A) (A) (A) (A) (A) (A) (A) (A) (A) (A) (A) (A)
                 (A) (A) (A) (A) (A) (A) (A) (A) (A) (A) (A) (A)
                 (A) (A) (A) (A) (A) (A) (A) (A) (A) (A) (A) (A)
                 (A) (A) (A) (A) (A) (A) (A) (A) (A) (A) (A) (A)
                 (A) (A)
 The electronic state is 1-A.
 Alpha  occ. eigenvalues --  -14.37116 -14.35953 -14.35386 -10.38644 -10.37041
 Alpha  occ. eigenvalues --  -10.36814 -10.24738 -10.24101 -10.23560 -10.23346
 Alpha  occ. eigenvalues --  -10.22781 -10.22426  -1.24580  -1.20503  -1.18721
 Alpha  occ. eigenvalues --   -1.15841  -0.97524  -0.97236  -0.97122  -0.95644
 Alpha  occ. eigenvalues --   -0.93618  -0.91444  -0.81650  -0.80207  -0.77698
 Alpha  occ. eigenvalues --   -0.74285  -0.73485  -0.73029  -0.71361  -0.71103
 Alpha  occ. eigenvalues --   -0.70061  -0.69022  -0.68094  -0.65606  -0.65120
 Alpha  occ. eigenvalues --   -0.64381  -0.64241  -0.62786  -0.62318  -0.62210
 Alpha  occ. eigenvalues --   -0.61332  -0.60881  -0.59794  -0.51057  -0.47796
 Alpha  occ. eigenvalues --   -0.47141
 Alpha virt. eigenvalues --   -0.15755  -0.12530  -0.06342  -0.00096   0.00566
 Alpha virt. eigenvalues --    0.00832   0.01409   0.02068   0.02086   0.03288
 Alpha virt. eigenvalues --    0.05183   0.05549   0.06032   0.06354   0.06755
 Alpha virt. eigenvalues --    0.07341   0.07463   0.07622   0.08431   0.08472
 Alpha virt. eigenvalues --    0.08846   0.09336   0.10102   0.10220   0.11364
 Alpha virt. eigenvalues --    0.12273   0.12428   0.13705   0.13853   0.14363
 Alpha virt. eigenvalues --    0.15350   0.15887   0.16862   0.18280   0.18565
 Alpha virt. eigenvalues --    0.19223   0.20359   0.21778   0.22271   0.23541
 Alpha virt. eigenvalues --    0.24658   0.26565   0.27036   0.27718   0.28202
 Alpha virt. eigenvalues --    0.28432   0.28995   0.29543   0.30056   0.31185
 Alpha virt. eigenvalues --    0.32137   0.32939   0.33895   0.34201   0.35108
 Alpha virt. eigenvalues --    0.35424   0.36780   0.37460   0.37755   0.38656
 Alpha virt. eigenvalues --    0.38944   0.39771   0.40509   0.41162   0.41657
 Alpha virt. eigenvalues --    0.41830   0.42171   0.42570   0.42848   0.43677
 Alpha virt. eigenvalues --    0.44203   0.45161   0.45441   0.45778   0.46769
 Alpha virt. eigenvalues --    0.47502   0.47797   0.48387   0.48935   0.49913
 Alpha virt. eigenvalues --    0.52168   0.53808   0.54879   0.55457   0.56128
 Alpha virt. eigenvalues --    0.57265   0.58248   0.58662   0.60376   0.60890
 Alpha virt. eigenvalues --    0.63246   0.63938   0.64827   0.65696   0.68747
 Alpha virt. eigenvalues --    0.73835   0.75784   0.77510   1.09952   1.10400
 Alpha virt. eigenvalues --    1.11203   1.14048   1.17188   1.18470   1.19729
 Alpha virt. eigenvalues --    1.20702   1.22421   1.23196   1.24579   1.25473
 Alpha virt. eigenvalues --    1.25741   1.26233   1.26669   1.27729   1.28128
 Alpha virt. eigenvalues --    1.28750   1.29485   1.30438   1.30699   1.31964
 Alpha virt. eigenvalues --    1.32292   1.32895   1.33014   1.34901   1.35701
 Alpha virt. eigenvalues --    1.35947   1.36944   1.38775   1.39152   1.40341
 Alpha virt. eigenvalues --    1.41401   1.41917   1.42367   1.43483   1.44767
 Alpha virt. eigenvalues --    1.44973   1.45545   1.46848   1.48119   1.49568
 Alpha virt. eigenvalues --    1.50343   1.51732   1.52081   1.52490   1.53244
 Alpha virt. eigenvalues --    1.53967   1.55482   1.56752   1.57147   1.58899
 Alpha virt. eigenvalues --    1.59377   1.60214   1.62514   1.66010   1.67076
 Alpha virt. eigenvalues --    1.67645   1.68880   1.69551   1.70114   1.72392
 Alpha virt. eigenvalues --    1.72898   1.73857   1.74383   1.74790   1.75229
 Alpha virt. eigenvalues --    1.75653   1.75963   1.76681   1.77195   1.77838
 Alpha virt. eigenvalues --    1.77938   1.80261   1.80765   1.81617   1.82838
 Alpha virt. eigenvalues --    1.84560   1.85854   1.86651   1.87224   1.89628
 Alpha virt. eigenvalues --    1.90533   1.91315   1.93300   1.95779   1.96011
 Alpha virt. eigenvalues --    1.97455   1.98213   1.99225   2.02940   2.07865
 Alpha virt. eigenvalues --    2.09282   2.11886   2.14056   2.15611   2.17150
 Alpha virt. eigenvalues --    2.18385   2.19995   2.20526   2.21693   2.22614
 Alpha virt. eigenvalues --    2.23667   2.24984   2.25326   2.25897   2.27274
 Alpha virt. eigenvalues --    2.27572   2.28403   2.29956   2.30147   2.31624
 Alpha virt. eigenvalues --    2.34041   2.34917   2.35367   2.37059   2.38369
 Alpha virt. eigenvalues --    2.40488   2.42869   2.43761   2.44629   2.45441
 Alpha virt. eigenvalues --    2.46865   2.50406   2.50874   2.52600   2.53583
 Alpha virt. eigenvalues --    2.55260   2.55916   2.57257   2.57742   2.59693
 Alpha virt. eigenvalues --    2.61661   2.62172   2.63146   2.63286   2.64741
 Alpha virt. eigenvalues --    2.65044   2.66213   2.68001   2.68454   2.69654
 Alpha virt. eigenvalues --    2.70393   2.74148   2.76188   2.79804   2.80315
 Alpha virt. eigenvalues --    2.84410   2.84525   2.88079   2.95663   2.97069
 Alpha virt. eigenvalues --    3.00791   3.02341   3.05242   3.05692   3.08281
 Alpha virt. eigenvalues --    3.09651   3.10202   3.19158   3.21071   3.25049
 Alpha virt. eigenvalues --    3.26497   3.26826   3.27392   3.28402   3.28769
 Alpha virt. eigenvalues --    3.31979   3.33963   3.34930   3.36037   3.37586
 Alpha virt. eigenvalues --    3.38261   3.38655   3.47011   3.59936   3.63420
 Alpha virt. eigenvalues --    3.67380   3.68862   3.75512  21.27062  21.56311
 Alpha virt. eigenvalues --   21.67733  21.75360  21.76911  21.79359  21.81310
 Alpha virt. eigenvalues --   21.84127  21.86705  31.60906  31.69687  31.70453
          Condensed to atoms (all electrons):
               1          2          3          4          5          6
     1  C    5.701702   0.010659   0.338454  -0.059645  -0.056389   0.006365
     2  C    0.010659   6.069819   0.011066   0.294308  -0.016290   0.002014
     3  N    0.338454   0.011066   6.490776   0.001351   0.246029  -0.025081
     4  N   -0.059645   0.294308   0.001351   6.582957  -0.000308  -0.000002
     5  C   -0.056389  -0.016290   0.246029  -0.000308   4.934227   0.403098
     6  H    0.006365   0.002014  -0.025081  -0.000002   0.403098   0.470954
     7  H    0.005690  -0.007701  -0.036303   0.000031   0.392653  -0.014672
     8  H   -0.012280  -0.002248  -0.045965   0.000005   0.430461  -0.032893
     9  C   -0.047352  -0.012310   0.261461   0.000027  -0.058894   0.000748
    10  H    0.006401   0.002333  -0.033806  -0.000008  -0.002448   0.001234
    11  H   -0.009555  -0.003141  -0.042746  -0.000004  -0.010401  -0.000470
    12  H    0.004912  -0.004014  -0.027016   0.000196   0.009115  -0.000336
    13  C    0.001004  -0.038426   0.000591   0.224311   0.000116   0.000005
    14  H   -0.001341   0.002259  -0.000002  -0.041309  -0.000004  -0.000000
    15  H   -0.001165   0.006284   0.000491  -0.033172   0.000123  -0.000011
    16  H    0.004618  -0.008097  -0.000132  -0.041248   0.000006   0.000001
    17  C    0.004289  -0.054838   0.000300   0.271688   0.000043   0.000003
    18  H   -0.000957   0.011482   0.000015  -0.041633   0.000000  -0.000000
    19  H    0.008248  -0.014987  -0.000103  -0.046344   0.000019   0.000000
    20  H   -0.005968   0.003983   0.000231  -0.021601  -0.000001  -0.000000
    21  C    0.043684  -0.178789  -0.070413  -0.000895   0.001260  -0.001435
    22  N    0.020545  -0.100839   0.000661  -0.000566   0.000631   0.000020
    23  C   -0.019792  -0.001215  -0.000271  -0.000411   0.000050   0.000000
    24  H    0.001395  -0.001121   0.000008   0.000014   0.000009  -0.000000
    25  H   -0.003404  -0.012789   0.000010   0.000091  -0.000092  -0.000000
    26  H   -0.002503   0.015395  -0.000003   0.000206  -0.000006   0.000000
    27  C   -0.010871   0.002091  -0.000354   0.000839   0.000014   0.000000
    28  H    0.002236  -0.002616   0.000002  -0.000007   0.000006  -0.000000
    29  H   -0.001620   0.005855   0.000006  -0.000147  -0.000001   0.000000
    30  H   -0.006103   0.002414   0.000041   0.001700  -0.000003  -0.000000
               7          8          9         10         11         12
     1  C    0.005690  -0.012280  -0.047352   0.006401  -0.009555   0.004912
     2  C   -0.007701  -0.002248  -0.012310   0.002333  -0.003141  -0.004014
     3  N   -0.036303  -0.045965   0.261461  -0.033806  -0.042746  -0.027016
     4  N    0.000031   0.000005   0.000027  -0.000008  -0.000004   0.000196
     5  C    0.392653   0.430461  -0.058894  -0.002448  -0.010401   0.009115
     6  H   -0.014672  -0.032893   0.000748   0.001234  -0.000470  -0.000336
     7  H    0.546890  -0.023391   0.007324  -0.000234   0.000629  -0.000293
     8  H   -0.023391   0.532762  -0.009903  -0.000673   0.005831   0.000424
     9  C    0.007324  -0.009903   4.933741   0.403856   0.431055   0.384815
    10  H   -0.000234  -0.000673   0.403856   0.485649  -0.027639  -0.018494
    11  H    0.000629   0.005831   0.431055  -0.027639   0.500652  -0.023316
    12  H   -0.000293   0.000424   0.384815  -0.018494  -0.023316   0.542939
    13  C   -0.000000  -0.000003   0.000063   0.000000  -0.000003   0.000031
    14  H   -0.000000   0.000000  -0.000001  -0.000000   0.000000  -0.000000
    15  H    0.000074   0.000001   0.000034  -0.000002   0.000001  -0.000000
    16  H   -0.000003  -0.000000  -0.000006   0.000001  -0.000000  -0.000003
    17  C    0.000003  -0.000003   0.000004   0.000026  -0.000014   0.000030
    18  H    0.000000   0.000000   0.000003  -0.000001   0.000000   0.000003
    19  H   -0.000002  -0.000000   0.000004  -0.000001   0.000000   0.000000
    20  H   -0.000001   0.000001   0.000089  -0.000002  -0.000005   0.000179
    21  C   -0.003253   0.006932   0.000054  -0.001400   0.007491  -0.007648
    22  N    0.000826  -0.000219   0.000179  -0.000003  -0.000098   0.000179
    23  C    0.000537  -0.000012  -0.000006  -0.000001   0.000006   0.000011
    24  H   -0.000010  -0.000001   0.000000  -0.000000   0.000000  -0.000000
    25  H    0.000120   0.000016   0.000024   0.000000  -0.000002  -0.000001
    26  H   -0.000014  -0.000000  -0.000002   0.000000  -0.000000  -0.000000
    27  C    0.000055  -0.000004   0.000010  -0.000002   0.000014   0.000059
    28  H   -0.000005   0.000001  -0.000005  -0.000000   0.000004  -0.000009
    29  H    0.000002  -0.000000  -0.000000   0.000000  -0.000001   0.000000
    30  H   -0.000002  -0.000000   0.000046   0.000000  -0.000007   0.000063
              13         14         15         16         17         18
     1  C    0.001004  -0.001341  -0.001165   0.004618   0.004289  -0.000957
     2  C   -0.038426   0.002259   0.006284  -0.008097  -0.054838   0.011482
     3  N    0.000591  -0.000002   0.000491  -0.000132   0.000300   0.000015
     4  N    0.224311  -0.041309  -0.033172  -0.041248   0.271688  -0.041633
     5  C    0.000116  -0.000004   0.000123   0.000006   0.000043   0.000000
     6  H    0.000005  -0.000000  -0.000011   0.000001   0.000003  -0.000000
     7  H   -0.000000  -0.000000   0.000074  -0.000003   0.000003   0.000000
     8  H   -0.000003   0.000000   0.000001  -0.000000  -0.000003   0.000000
     9  C    0.000063  -0.000001   0.000034  -0.000006   0.000004   0.000003
    10  H    0.000000  -0.000000  -0.000002   0.000001   0.000026  -0.000001
    11  H   -0.000003   0.000000   0.000001  -0.000000  -0.000014   0.000000
    12  H    0.000031  -0.000000  -0.000000  -0.000003   0.000030   0.000003
    13  C    4.899557   0.421015   0.398051   0.423683  -0.040582  -0.003558
    14  H    0.421015   0.480575  -0.021967  -0.027383   0.000156   0.000816
    15  H    0.398051  -0.021967   0.530867  -0.020639   0.003188   0.000035
    16  H    0.423683  -0.027383  -0.020639   0.508056   0.000288  -0.001996
    17  C   -0.040582   0.000156   0.003188   0.000288   4.931332   0.405586
    18  H   -0.003558   0.000816   0.000035  -0.001996   0.405586   0.488909
    19  H   -0.011626   0.000104   0.000796   0.004304   0.431145  -0.029967
    20  H    0.008022  -0.000304  -0.000237   0.000257   0.392371  -0.015213
    21  C   -0.010803   0.002861  -0.002969  -0.002660  -0.029392   0.002573
    22  N   -0.000400  -0.000012   0.000280  -0.000002  -0.000411   0.000015
    23  C   -0.000284   0.000033   0.000092  -0.000004   0.000002   0.000003
    24  H   -0.000000  -0.000002   0.000003   0.000000  -0.000000  -0.000000
    25  H    0.000002  -0.000005   0.000102  -0.000000  -0.000004  -0.000000
    26  H    0.000048  -0.000002  -0.000032   0.000002   0.000037  -0.000002
    27  C    0.000083  -0.000002   0.000038  -0.000003   0.000071   0.000007
    28  H   -0.000003   0.000000   0.000000   0.000000  -0.000006  -0.000000
    29  H   -0.000015   0.000003  -0.000001  -0.000000   0.000005  -0.000001
    30  H    0.000134  -0.000013  -0.000002   0.000002   0.000297  -0.000028
              19         20         21         22         23         24
     1  C    0.008248  -0.005968   0.043684   0.020545  -0.019792   0.001395
     2  C   -0.014987   0.003983  -0.178789  -0.100839  -0.001215  -0.001121
     3  N   -0.000103   0.000231  -0.070413   0.000661  -0.000271   0.000008
     4  N   -0.046344  -0.021601  -0.000895  -0.000566  -0.000411   0.000014
     5  C    0.000019  -0.000001   0.001260   0.000631   0.000050   0.000009
     6  H    0.000000  -0.000000  -0.001435   0.000020   0.000000  -0.000000
     7  H   -0.000002  -0.000001  -0.003253   0.000826   0.000537  -0.000010
     8  H   -0.000000   0.000001   0.006932  -0.000219  -0.000012  -0.000001
     9  C    0.000004   0.000089   0.000054   0.000179  -0.000006   0.000000
    10  H   -0.000001  -0.000002  -0.001400  -0.000003  -0.000001  -0.000000
    11  H    0.000000  -0.000005   0.007491  -0.000098   0.000006   0.000000
    12  H    0.000000   0.000179  -0.007648   0.000179   0.000011  -0.000000
    13  C   -0.011626   0.008022  -0.010803  -0.000400  -0.000284  -0.000000
    14  H    0.000104  -0.000304   0.002861  -0.000012   0.000033  -0.000002
    15  H    0.000796  -0.000237  -0.002969   0.000280   0.000092   0.000003
    16  H    0.004304   0.000257  -0.002660  -0.000002  -0.000004   0.000000
    17  C    0.431145   0.392371  -0.029392  -0.000411   0.000002  -0.000000
    18  H   -0.029967  -0.015213   0.002573   0.000015   0.000003  -0.000000
    19  H    0.526862  -0.024160  -0.002145   0.000007  -0.000003   0.000000
    20  H   -0.024160   0.527136  -0.008339  -0.000014   0.000007   0.000000
    21  C   -0.002145  -0.008339   6.038388   0.315357  -0.064303   0.008575
    22  N    0.000007  -0.000014   0.315357   6.550960   0.292241  -0.023765
    23  C   -0.000003   0.000007  -0.064303   0.292241   4.962213   0.400533
    24  H    0.000000   0.000000   0.008575  -0.023765   0.400533   0.467165
    25  H    0.000000  -0.000001   0.011934  -0.028405   0.383090  -0.008515
    26  H    0.000000  -0.000000  -0.019636  -0.053342   0.444669  -0.030055
    27  C   -0.000002  -0.000012  -0.038430   0.204564  -0.055018  -0.004317
    28  H    0.000000  -0.000000   0.000111  -0.036911  -0.001236   0.001555
    29  H   -0.000000   0.000000  -0.010447  -0.052124   0.001186  -0.004096
    30  H    0.000005   0.000048   0.010345  -0.053467   0.003322  -0.000056
              25         26         27         28         29         30
     1  C   -0.003404  -0.002503  -0.010871   0.002236  -0.001620  -0.006103
     2  C   -0.012789   0.015395   0.002091  -0.002616   0.005855   0.002414
     3  N    0.000010  -0.000003  -0.000354   0.000002   0.000006   0.000041
     4  N    0.000091   0.000206   0.000839  -0.000007  -0.000147   0.001700
     5  C   -0.000092  -0.000006   0.000014   0.000006  -0.000001  -0.000003
     6  H   -0.000000   0.000000   0.000000  -0.000000   0.000000  -0.000000
     7  H    0.000120  -0.000014   0.000055  -0.000005   0.000002  -0.000002
     8  H    0.000016  -0.000000  -0.000004   0.000001  -0.000000  -0.000000
     9  C    0.000024  -0.000002   0.000010  -0.000005  -0.000000   0.000046
    10  H    0.000000   0.000000  -0.000002  -0.000000   0.000000   0.000000
    11  H   -0.000002  -0.000000   0.000014   0.000004  -0.000001  -0.000007
    12  H   -0.000001  -0.000000   0.000059  -0.000009   0.000000   0.000063
    13  C    0.000002   0.000048   0.000083  -0.000003  -0.000015   0.000134
    14  H   -0.000005  -0.000002  -0.000002   0.000000   0.000003  -0.000013
    15  H    0.000102  -0.000032   0.000038   0.000000  -0.000001  -0.000002
    16  H   -0.000000   0.000002  -0.000003   0.000000  -0.000000   0.000002
    17  C   -0.000004   0.000037   0.000071  -0.000006   0.000005   0.000297
    18  H   -0.000000  -0.000002   0.000007  -0.000000  -0.000001  -0.000028
    19  H    0.000000   0.000000  -0.000002   0.000000  -0.000000   0.000005
    20  H   -0.000001  -0.000000  -0.000012  -0.000000   0.000000   0.000048
    21  C    0.011934  -0.019636  -0.038430   0.000111  -0.010447   0.010345
    22  N   -0.028405  -0.053342   0.204564  -0.036911  -0.052124  -0.053467
    23  C    0.383090   0.444669  -0.055018  -0.001236   0.001186   0.003322
    24  H   -0.008515  -0.030055  -0.004317   0.001555  -0.004096  -0.000056
    25  H    0.543162  -0.035044   0.011526  -0.000345   0.000614  -0.000381
    26  H   -0.035044   0.522322  -0.014673  -0.000284   0.003191   0.001586
    27  C    0.011526  -0.014673   4.981963   0.409406   0.426951   0.397892
    28  H   -0.000345  -0.000284   0.409406   0.499109  -0.026895  -0.023213
    29  H    0.000614   0.003191   0.426951  -0.026895   0.520370  -0.022606
    30  H   -0.000381   0.001586   0.397892  -0.023213  -0.022606   0.558216
 Mulliken charges:
               1
     1  C    0.078747
     2  C    0.019456
     3  N   -0.069297
     4  N   -0.090424
     5  C   -0.273025
     6  H    0.190459
     7  H    0.131049
     8  H    0.151164
     9  C   -0.295058
    10  H    0.185212
    11  H    0.171718
    12  H    0.138174
    13  C   -0.271012
    14  H    0.184524
    15  H    0.139737
    16  H    0.160958
    17  C   -0.315612
    18  H    0.183908
    19  H    0.157845
    20  H    0.143535
    21  C    0.003394
    22  N   -0.035887
    23  C   -0.345440
    24  H    0.192684
    25  H    0.138296
    26  H    0.168142
    27  C   -0.311894
    28  H    0.179107
    29  H    0.159772
    30  H    0.129769
 Sum of Mulliken charges =   1.00000
 Mulliken charges with hydrogens summed into heavy atoms:
               1
     1  C    0.078747
     2  C    0.019456
     3  N   -0.069297
     4  N   -0.090424
     5  C    0.199647
     9  C    0.200047
    13  C    0.214207
    17  C    0.169676
    21  C    0.003394
    22  N   -0.035887
    23  C    0.153682
    27  C    0.156753
 Electronic spatial extent (au):  <R**2>=           2790.6113
 Charge=              1.0000 electrons
 Dipole moment (field-independent basis, Debye):
    X=              0.7938    Y=             -0.0003    Z=              0.1997  Tot=              0.8185
 Quadrupole moment (field-independent basis, Debye-Ang):
   XX=            -49.6663   YY=            -53.5358   ZZ=            -61.5891
   XY=             -0.4732   XZ=             -1.9585   YZ=             -1.1639
 Traceless Quadrupole moment (field-independent basis, Debye-Ang):
   XX=              5.2641   YY=              1.3946   ZZ=             -6.6587
   XY=             -0.4732   XZ=             -1.9585   YZ=             -1.1639
 Octapole moment (field-independent basis, Debye-Ang**2):
  XXX=             41.2197  YYY=             31.9037  ZZZ=              1.3119  XYY=            -28.0251
  XXY=            -32.3994  XXZ=              0.5001  XZZ=              1.6419  YZZ=              0.9163
  YYZ=              3.0156  XYZ=             -3.9220
 Hexadecapole moment (field-independent basis, Debye-Ang**3):
 XXXX=          -1371.8900 YYYY=          -1328.7208 ZZZZ=           -484.9648 XXXY=             -3.9179
 XXXZ=            -11.5584 YYYX=              0.1280 YYYZ=             -2.2887 ZZZX=             -1.1123
 ZZZY=             -2.1149 XXYY=           -446.9303 XXZZ=           -303.3836 YYZZ=           -294.8257
 XXYZ=             -4.5696 YYXZ=             -7.6204 ZZXY=             -3.8680
 N-N= 7.084096122261D+02 E-N=-2.602691913053D+03  KE= 5.137642643418D+02
 No NMR shielding tensors so no spin-rotation constants.
 Leave Link  601 at Mon Jan 25 19:04:24 2021, MaxMem=  4026531840 cpu:               5.9 elap:               1.2
 (Enter /opt/ohpc/pub/libs/gaussian/g16-A.03/sandybridge/g16/l701.exe)
 ... and contract with generalized density number  0.
 Compute integral first derivatives.
 Leave Link  701 at Mon Jan 25 19:04:25 2021, MaxMem=  4026531840 cpu:               4.0 elap:               0.8
 (Enter /opt/ohpc/pub/libs/gaussian/g16-A.03/sandybridge/g16/l702.exe)
 L702 exits ... SP integral derivatives will be done elsewhere.
 Leave Link  702 at Mon Jan 25 19:04:25 2021, MaxMem=  4026531840 cpu:               0.2 elap:               0.1
 (Enter /opt/ohpc/pub/libs/gaussian/g16-A.03/sandybridge/g16/l703.exe)
 Integral derivatives from FoFJK, PRISM(SPDF).
 Compute integral first derivatives, UseDBF=F ICtDFT=           0.
 Calling FoFJK, ICntrl=      2127 FMM=F ISym2X=0 I1Cent= 0 IOpClX= 0 NMat=1 NMatS=1 NMatT=0.
 FoFJK:  IHMeth= 1 ICntrl=    2127 DoSepK=T KAlg= 0 I1Cent=           0 FoldK=F
 IRaf=         1 NMat=       1 IRICut=       1 DoRegI=T DoRafI=F ISym2E= 0 IDoP0=0 IntGTp=1.
 FoFCou: FMM=F IPFlag=           0 FMFlag=      100000 FMFlg1=         800
         NFxFlg=           0 DoJE=F BraDBF=F KetDBF=F FulRan=T
         wScrn=  0.000000 ICntrl=      2527 IOpCl=  0 I1Cent=           0 NGrid=           0
         NMat0=    1 NMatS0=      1 NMatT0=    0 NMatD0=    1 NMtDS0=    0 NMtDT0=    0
 Symmetry not used in FoFCou.
 Leave Link  703 at Mon Jan 25 19:04:57 2021, MaxMem=  4026531840 cpu:             236.4 elap:              32.6
 (Enter /opt/ohpc/pub/libs/gaussian/g16-A.03/sandybridge/g16/l716.exe)
 Dipole        = 3.12292004D-01-1.30008132D-04 7.85604547D-02
 ***** Axes restored to original set *****
 -------------------------------------------------------------------
 Center     Atomic                   Forces (Hartrees/Bohr)
 Number     Number              X              Y              Z
 -------------------------------------------------------------------
      1        6           0.006435691    0.010747081    0.057909956
      2        6           0.040451315    0.019740723   -0.029896243
      3        7          -0.015551790    0.003043325    0.028926149
      4        7          -0.071683350   -0.016318582   -0.043650448
      5        6          -0.034478557   -0.004365080    0.049853473
      6        1           0.029825390   -0.004288657   -0.019668803
      7        1           0.000162480    0.004202374   -0.016848270
      8        1           0.002662914   -0.001683623    0.008224066
      9        6           0.062806446    0.045895058    0.036991869
     10        1          -0.006871479   -0.008661729    0.004443498
     11        1          -0.036107942   -0.012713824   -0.008894976
     12        1          -0.000650243   -0.023945351   -0.015187699
     13        6          -0.042949984    0.013978086    0.004843970
     14        1           0.009251903   -0.011562224    0.030987687
     15        1          -0.003470116   -0.005055688   -0.005517221
     16        1           0.031049449    0.009236707   -0.025327079
     17        6          -0.007234372    0.005543110    0.002370897
     18        1           0.004009306    0.000904774    0.000129508
     19        1          -0.005558093    0.001348308    0.000465458
     20        1           0.006993092   -0.015123108   -0.000500125
     21        6          -0.023114821   -0.037626551   -0.021937483
     22        7           0.057063590   -0.027647663   -0.041847679
     23        6           0.030864452   -0.010380404   -0.037296733
     24        1          -0.023163825    0.000438879    0.002083617
     25        1          -0.007408884    0.006775090   -0.001081348
     26        1           0.008891825    0.007260483    0.014956746
     27        6          -0.000794097    0.057717959    0.022377129
     28        1          -0.000272843    0.000919650    0.002145422
     29        1           0.002094773    0.001673728   -0.005589228
     30        1          -0.013252228   -0.010052849    0.006533888
 -------------------------------------------------------------------
 Cartesian Forces:  Max     0.071683350 RMS     0.023891729
 Leave Link  716 at Mon Jan 25 19:04:57 2021, MaxMem=  4026531840 cpu:               0.4 elap:               0.1
 (Enter /opt/ohpc/pub/libs/gaussian/g16-A.03/sandybridge/g16/l103.exe)

 GradGradGradGradGradGradGradGradGradGradGradGradGradGradGradGradGradGrad
 Berny optimization.
 FormGI is forming the generalized inverse of G from B-inverse, IUseBI=4.
 Internal  Forces:  Max     0.088663839 RMS     0.018029839
 Search for a local minimum.
 Step number   1 out of a maximum of  142
 All quantities printed in internal units (Hartrees-Bohrs-Radians)
 RMS Force = .18030D-01 SwitMx=.10000D-02 MixMth= 1
 Mixed Optimization -- RFO/linear search
 Second derivative matrix not updated -- first step.
 ITU=  0
     Eigenvalues ---    0.00230   0.00410   0.00414   0.00514   0.00565
     Eigenvalues ---    0.00593   0.00621   0.00698   0.00981   0.01026
     Eigenvalues ---    0.01291   0.01651   0.02211   0.02279   0.02698
     Eigenvalues ---    0.06278   0.06577   0.06675   0.06679   0.06810
     Eigenvalues ---    0.06949   0.07350   0.07478   0.07509   0.07789
     Eigenvalues ---    0.07828   0.08003   0.16000   0.16000   0.16000
     Eigenvalues ---    0.16000   0.16000   0.16000   0.16000   0.16000
     Eigenvalues ---    0.16000   0.16000   0.16000   0.16000   0.16000
     Eigenvalues ---    0.16000   0.16000   0.16000   0.16000   0.16000
     Eigenvalues ---    0.17451   0.17475   0.18027   0.19210   0.19853
     Eigenvalues ---    0.20127   0.22408   0.24899   0.24979   0.27072
     Eigenvalues ---    0.29094   0.31286   0.31414   0.31922   0.31949
     Eigenvalues ---    0.32702   0.32734   0.32857   0.33026   0.33106
     Eigenvalues ---    0.33139   0.33368   0.33504   0.33983   0.34225
     Eigenvalues ---    0.34365   0.34461   0.34808   0.35132   0.36187
     Eigenvalues ---    0.36778   0.38199   0.38447   0.40197   0.40280
     Eigenvalues ---    0.41090   0.41360   0.45109   0.46559
 RFO step:  Lambda=-1.04039108D-01 EMin= 2.30000000D-03
 Linear search not attempted -- first point.
 Maximum step size (   0.300) exceeded in Quadratic search.
    -- Step size scaled by   0.603
 Iteration  1 RMS(Cart)=  0.09090386 RMS(Int)=  0.00050363
 Iteration  2 RMS(Cart)=  0.00072215 RMS(Int)=  0.00012412
 Iteration  3 RMS(Cart)=  0.00000041 RMS(Int)=  0.00012412
 ITry= 1 IFail=0 DXMaxC= 2.62D-01 DCOld= 1.00D+10 DXMaxT= 3.00D-01 DXLimC= 3.00D+00 Rises=F
 Variable       Old X    -DE/DX   Delta X   Delta X   Delta X     New X
                                 (Linear)    (Quad)   (Total)
    R1        2.83030  -0.07089   0.00000  -0.09975  -0.09960   2.73070
    R2        2.74076  -0.06771   0.00000  -0.08397  -0.08397   2.65679
    R3        2.80713  -0.06431   0.00000  -0.08810  -0.08793   2.71919
    R4        2.94212  -0.08866   0.00000  -0.14260  -0.14260   2.79952
    R5        2.60908  -0.00793   0.00000  -0.00714  -0.00746   2.60162
    R6        2.80252  -0.00408   0.00000  -0.00551  -0.00551   2.79701
    R7        2.82821  -0.01481   0.00000  -0.02069  -0.02069   2.80752
    R8        2.82878  -0.00931   0.00000  -0.01302  -0.01302   2.81576
    R9        2.78762  -0.00780   0.00000  -0.01032  -0.01032   2.77730
[...]
 Alpha virt. eigenvalues --    1.09964   1.14488   1.19622   1.19926   1.19940
 Alpha virt. eigenvalues --    1.20752   1.21604   1.24401   1.24406   1.26475
 Alpha virt. eigenvalues --    1.26477   1.29185   1.29513   1.29516   1.30127
 Alpha virt. eigenvalues --    1.30866   1.31651   1.31656   1.33348   1.33351
 Alpha virt. eigenvalues --    1.34108   1.35450   1.35462   1.40071   1.40292
 Alpha virt. eigenvalues --    1.40303   1.41157   1.41840   1.41845   1.42244
 Alpha virt. eigenvalues --    1.43873   1.43887   1.46444   1.46449   1.48692
 Alpha virt. eigenvalues --    1.50789   1.51721   1.52413   1.52420   1.53227
 Alpha virt. eigenvalues --    1.53231   1.54382   1.54387   1.57164   1.59501
 Alpha virt. eigenvalues --    1.60113   1.60125   1.61951   1.61956   1.62072
 Alpha virt. eigenvalues --    1.65061   1.65065   1.67057   1.67692   1.67695
 Alpha virt. eigenvalues --    1.69751   1.72100   1.72103   1.73002   1.74610
 Alpha virt. eigenvalues --    1.74613   1.74856   1.75021   1.75083   1.75089
 Alpha virt. eigenvalues --    1.75731   1.75739   1.76023   1.77416   1.77420
 Alpha virt. eigenvalues --    1.78625   1.78658   1.78669   1.79234   1.83689
 Alpha virt. eigenvalues --    1.83694   1.84413   1.84423   1.86265   1.96281
 Alpha virt. eigenvalues --    1.98545   1.98562   2.04867   2.05106   2.05115
 Alpha virt. eigenvalues --    2.06977   2.09153   2.09159   2.09966   2.12451
 Alpha virt. eigenvalues --    2.12461   2.17816   2.17826   2.19256   2.24077
 Alpha virt. eigenvalues --    2.24184   2.25267   2.25275   2.26118   2.26124
 Alpha virt. eigenvalues --    2.26535   2.28016   2.30008   2.30027   2.31536
 Alpha virt. eigenvalues --    2.31543   2.31823   2.34428   2.35474   2.35482
 Alpha virt. eigenvalues --    2.39835   2.41212   2.41225   2.48666   2.48678
 Alpha virt. eigenvalues --    2.49143   2.49286   2.49292   2.52232   2.52241
 Alpha virt. eigenvalues --    2.52316   2.53453   2.54385   2.54415   2.56782
 Alpha virt. eigenvalues --    2.57254   2.57271   2.57914   2.60429   2.63624
 Alpha virt. eigenvalues --    2.63641   2.63708   2.67134   2.67141   2.68926
 Alpha virt. eigenvalues --    2.71887   2.71897   2.73669   2.74162   2.74183
 Alpha virt. eigenvalues --    2.78954   2.78959   2.81081   2.82053   2.84587
 Alpha virt. eigenvalues --    2.84590   2.92379   2.92381   3.04938   3.05503
 Alpha virt. eigenvalues --    3.05532   3.06076   3.07382   3.07391   3.13692
 Alpha virt. eigenvalues --    3.17794   3.17797   3.24952   3.24963   3.26713
 Alpha virt. eigenvalues --    3.26935   3.26939   3.28182   3.29550   3.29563
 Alpha virt. eigenvalues --    3.30467   3.35265   3.35284   3.36832   3.41351
 Alpha virt. eigenvalues --    3.41358   3.44407   3.49972   3.68294   3.68307
 Alpha virt. eigenvalues --    3.78959   3.93851   3.93859  21.43602  21.72546
 Alpha virt. eigenvalues --   21.74494  21.74502  21.90353  21.90356  21.94563
 Alpha virt. eigenvalues --   22.16948  22.16961  31.57911  31.77093  31.77097
          Condensed to atoms (all electrons):
               1          2          3          4          5          6
     1  C    5.794258   0.070541   0.512270  -0.105105  -0.056734  -0.006950
     2  C    0.070541   5.794879  -0.105037   0.512353  -0.003241  -0.003856
     3  N    0.512270  -0.105037   6.541286  -0.000826   0.198937  -0.037992
     4  N   -0.105105   0.512353  -0.000826   6.541228  -0.000652  -0.000009
     5  C   -0.056734  -0.003241   0.198937  -0.000652   4.939534   0.423209
     6  H   -0.006950  -0.003856  -0.037992  -0.000009   0.423209   0.499131
     7  H   -0.015080   0.008206  -0.029741   0.000016   0.408435  -0.024339
     8  H    0.008273   0.001184  -0.039481   0.000005   0.408419  -0.025664
     9  C   -0.056844  -0.004570   0.198878  -0.001458  -0.043530  -0.008431
    10  H    0.008309  -0.003158  -0.039435  -0.000017   0.000525   0.002919
    11  H   -0.006991   0.007157  -0.038019   0.000068  -0.008410  -0.000284
    12  H   -0.015080  -0.001412  -0.029705  -0.001495   0.007945  -0.000108
    13  C   -0.003277  -0.056771  -0.000653   0.198961  -0.000008  -0.000003
    14  H   -0.003858  -0.006972  -0.000009  -0.038016  -0.000003  -0.000000
    15  H    0.008197  -0.015059   0.000016  -0.029715   0.000002  -0.000000
    16  H    0.001185   0.008302   0.000005  -0.039462   0.000001   0.000000
    17  C   -0.004670  -0.056768  -0.001462   0.198936   0.000006  -0.000002
    18  H   -0.003169   0.008269  -0.000017  -0.039490  -0.000003  -0.000000
    19  H    0.007147  -0.006938   0.000068  -0.037997   0.000012   0.000001
    20  H   -0.001384  -0.015076  -0.001508  -0.029741  -0.000082   0.000004
    21  C    0.071644   0.070421  -0.105016  -0.105057  -0.004721   0.007152
    22  N   -0.105085  -0.105011  -0.000830  -0.000826  -0.001458   0.000067
    23  C   -0.004752  -0.003172  -0.001461  -0.000652   0.001332  -0.000432
    24  H    0.007147  -0.003859   0.000067  -0.000009  -0.000429  -0.000022
    25  H   -0.001400   0.008266  -0.001502   0.000016  -0.001203  -0.000788
    26  H   -0.003174   0.001183  -0.000017   0.000005   0.000052   0.000024
    27  C   -0.003320  -0.004542  -0.000653  -0.001458   0.000005   0.000012
    28  H    0.001188  -0.003163   0.000005  -0.000017   0.000000  -0.000001
    29  H   -0.003858   0.007149  -0.000009   0.000067  -0.000002   0.000001
    30  H    0.008183  -0.001431   0.000016  -0.001503   0.000011   0.000000
               7          8          9         10         11         12
     1  C   -0.015080   0.008273  -0.056844   0.008309  -0.006991  -0.015080
     2  C    0.008206   0.001184  -0.004570  -0.003158   0.007157  -0.001412
     3  N   -0.029741  -0.039481   0.198878  -0.039435  -0.038019  -0.029705
     4  N    0.000016   0.000005  -0.001458  -0.000017   0.000068  -0.001495
     5  C    0.408435   0.408419  -0.043530   0.000525  -0.008410   0.007945
     6  H   -0.024339  -0.025664  -0.008431   0.002919  -0.000284  -0.000108
     7  H    0.524564  -0.020336   0.007948   0.000302  -0.000110  -0.000460
     8  H   -0.020336   0.502326   0.000543  -0.002997   0.002921   0.000300
     9  C    0.007948   0.000543   4.939797   0.408331   0.423248   0.408500
    10  H    0.000302  -0.002997   0.408331   0.502282  -0.025638  -0.020303
    11  H   -0.000110   0.002921   0.423248  -0.025638   0.499141  -0.024374
    12  H   -0.000460   0.000300   0.408500  -0.020303  -0.024374   0.524385
    13  C    0.000002   0.000001   0.000007  -0.000003   0.000012  -0.000082
    14  H   -0.000000   0.000000  -0.000002  -0.000000   0.000001   0.000004
    15  H   -0.000002   0.000000   0.000011  -0.000000   0.000000   0.000016
    16  H    0.000000  -0.000000   0.000000   0.000000  -0.000001   0.000001
    17  C    0.000011   0.000000   0.001392   0.000051  -0.000442  -0.001186
    18  H   -0.000000   0.000000   0.000052  -0.000003   0.000024   0.000331
    19  H    0.000000  -0.000001  -0.000439   0.000024  -0.000022  -0.000784
    20  H    0.000016   0.000001  -0.001177   0.000331  -0.000789  -0.003750
    21  C   -0.001400  -0.003164  -0.003339   0.001185  -0.003856   0.008151
    22  N   -0.001491  -0.000017  -0.000653   0.000005  -0.000009   0.000016
    23  C   -0.001213   0.000052   0.000005   0.000000  -0.000002   0.000011
    24  H   -0.000783   0.000024   0.000012  -0.000001   0.000001   0.000000
    25  H   -0.003721   0.000331  -0.000081   0.000001   0.000004   0.000016
    26  H    0.000331  -0.000003  -0.000003   0.000000  -0.000000  -0.000000
    27  C   -0.000081  -0.000003  -0.000008   0.000001  -0.000003   0.000002
    28  H    0.000001   0.000000   0.000001  -0.000000   0.000000   0.000000
    29  H    0.000004  -0.000000  -0.000003   0.000000  -0.000000  -0.000000
    30  H    0.000016  -0.000000   0.000002   0.000000  -0.000000  -0.000002
              13         14         15         16         17         18
     1  C   -0.003277  -0.003858   0.008197   0.001185  -0.004670  -0.003169
     2  C   -0.056771  -0.006972  -0.015059   0.008302  -0.056768   0.008269
     3  N   -0.000653  -0.000009   0.000016   0.000005  -0.001462  -0.000017
     4  N    0.198961  -0.038016  -0.029715  -0.039462   0.198936  -0.039490
     5  C   -0.000008  -0.000003   0.000002   0.000001   0.000006  -0.000003
     6  H   -0.000003  -0.000000  -0.000000   0.000000  -0.000002  -0.000000
     7  H    0.000002  -0.000000  -0.000002   0.000000   0.000011  -0.000000
     8  H    0.000001   0.000000   0.000000  -0.000000   0.000000   0.000000
     9  C    0.000007  -0.000002   0.000011   0.000000   0.001392   0.000052
    10  H   -0.000003  -0.000000  -0.000000   0.000000   0.000051  -0.000003
    11  H    0.000012   0.000001   0.000000  -0.000001  -0.000442   0.000024
    12  H   -0.000082   0.000004   0.000016   0.000001  -0.001186   0.000331
    13  C    4.939596   0.423259   0.408443   0.408356  -0.043602   0.000548
    14  H    0.423259   0.499151  -0.024347  -0.025667  -0.008426   0.002930
    15  H    0.408443  -0.024347   0.524464  -0.020315   0.007955   0.000300
    16  H    0.408356  -0.025667  -0.020315   0.502354   0.000526  -0.002996
    17  C   -0.043602  -0.008426   0.007955   0.000526   4.939539   0.408418
    18  H    0.000548   0.002930   0.000300  -0.002996   0.408418   0.502392
    19  H   -0.008429  -0.000285  -0.000109   0.002928   0.423198  -0.025679
    20  H    0.007948  -0.000109  -0.000460   0.000301   0.408425  -0.020330
    21  C   -0.004661   0.007147  -0.001437  -0.003157  -0.003250   0.001183
    22  N   -0.001461   0.000067  -0.001505  -0.000017  -0.000652   0.000005
    23  C    0.000006   0.000012  -0.000082  -0.000003  -0.000008   0.000001
    24  H   -0.000002   0.000001   0.000004  -0.000000  -0.000003   0.000000
    25  H    0.000012   0.000000   0.000016  -0.000000   0.000002   0.000000
    26  H    0.000000  -0.000001   0.000001   0.000000   0.000001  -0.000000
    27  C    0.001382  -0.000439  -0.001186   0.000052   0.000007   0.000000
    28  H    0.000052   0.000024   0.000331  -0.000003  -0.000003   0.000000
    29  H   -0.000440  -0.000022  -0.000786   0.000024   0.000012  -0.000001
    30  H   -0.001186  -0.000786  -0.003741   0.000331  -0.000082   0.000001
              19         20         21         22         23         24
     1  C    0.007147  -0.001384   0.071644  -0.105085  -0.004752   0.007147
     2  C   -0.006938  -0.015076   0.070421  -0.105011  -0.003172  -0.003859
     3  N    0.000068  -0.001508  -0.105016  -0.000830  -0.001461   0.000067
     4  N   -0.037997  -0.029741  -0.105057  -0.000826  -0.000652  -0.000009
     5  C    0.000012  -0.000082  -0.004721  -0.001458   0.001332  -0.000429
     6  H    0.000001   0.000004   0.007152   0.000067  -0.000432  -0.000022
     7  H    0.000000   0.000016  -0.001400  -0.001491  -0.001213  -0.000783
     8  H   -0.000001   0.000001  -0.003164  -0.000017   0.000052   0.000024
     9  C   -0.000439  -0.001177  -0.003339  -0.000653   0.000005   0.000012
    10  H    0.000024   0.000331   0.001185   0.000005   0.000000  -0.000001
    11  H   -0.000022  -0.000789  -0.003856  -0.000009  -0.000002   0.000001
    12  H   -0.000784  -0.003750   0.008151   0.000016   0.000011   0.000000
    13  C   -0.008429   0.007948  -0.004661  -0.001461   0.000006  -0.000002
    14  H   -0.000285  -0.000109   0.007147   0.000067   0.000012   0.000001
    15  H   -0.000109  -0.000460  -0.001437  -0.001505  -0.000082   0.000004
    16  H    0.002928   0.000301  -0.003157  -0.000017  -0.000003  -0.000000
    17  C    0.423198   0.408425  -0.003250  -0.000652  -0.000008  -0.000003
    18  H   -0.025679  -0.020330   0.001183   0.000005   0.000001   0.000000
    19  H    0.499149  -0.024326  -0.003849  -0.000009  -0.000003  -0.000000
    20  H   -0.024326   0.524495   0.008201   0.000016   0.000002  -0.000000
    21  C   -0.003849   0.008201   5.794158   0.512353  -0.056690  -0.006919
    22  N   -0.000009   0.000016   0.512353   6.541105   0.199025  -0.037988
    23  C   -0.000003   0.000002  -0.056690   0.199025   4.939290   0.423205
    24  H   -0.000000  -0.000000  -0.006919  -0.037988   0.423205   0.499160
    25  H   -0.000000  -0.000002  -0.015061  -0.029767   0.408346  -0.024295
    26  H    0.000000   0.000000   0.008250  -0.039511   0.408464  -0.025711
    27  C   -0.000002   0.000011  -0.056857   0.198950  -0.043662  -0.008453
    28  H   -0.000000  -0.000000   0.008311  -0.039470   0.000526   0.002936
    29  H    0.000001   0.000000  -0.006977  -0.037999  -0.008413  -0.000286
    30  H    0.000004   0.000016  -0.015070  -0.029701   0.007955  -0.000108
              25         26         27         28         29         30
     1  C   -0.001400  -0.003174  -0.003320   0.001188  -0.003858   0.008183
     2  C    0.008266   0.001183  -0.004542  -0.003163   0.007149  -0.001431
     3  N   -0.001502  -0.000017  -0.000653   0.000005  -0.000009   0.000016
     4  N    0.000016   0.000005  -0.001458  -0.000017   0.000067  -0.001503
     5  C   -0.001203   0.000052   0.000005   0.000000  -0.000002   0.000011
     6  H   -0.000788   0.000024   0.000012  -0.000001   0.000001   0.000000
     7  H   -0.003721   0.000331  -0.000081   0.000001   0.000004   0.000016
     8  H    0.000331  -0.000003  -0.000003   0.000000  -0.000000  -0.000000
     9  C   -0.000081  -0.000003  -0.000008   0.000001  -0.000003   0.000002
    10  H    0.000001   0.000000   0.000001  -0.000000   0.000000   0.000000
    11  H    0.000004  -0.000000  -0.000003   0.000000  -0.000000  -0.000000
    12  H    0.000016  -0.000000   0.000002   0.000000  -0.000000  -0.000002
    13  C    0.000012   0.000000   0.001382   0.000052  -0.000440  -0.001186
    14  H    0.000000  -0.000001  -0.000439   0.000024  -0.000022  -0.000786
    15  H    0.000016   0.000001  -0.001186   0.000331  -0.000786  -0.003741
    16  H   -0.000000   0.000000   0.000052  -0.000003   0.000024   0.000331
    17  C    0.000002   0.000001   0.000007  -0.000003   0.000012  -0.000082
    18  H    0.000000  -0.000000   0.000000   0.000000  -0.000001   0.000001
    19  H   -0.000000   0.000000  -0.000002  -0.000000   0.000001   0.000004
    20  H   -0.000002   0.000000   0.000011  -0.000000   0.000000   0.000016
    21  C   -0.015061   0.008250  -0.056857   0.008311  -0.006977  -0.015070
    22  N   -0.029767  -0.039511   0.198950  -0.039470  -0.037999  -0.029701
    23  C    0.408346   0.408464  -0.043662   0.000526  -0.008413   0.007955
    24  H   -0.024295  -0.025711  -0.008453   0.002936  -0.000286  -0.000108
    25  H    0.524631  -0.020350   0.007961   0.000302  -0.000112  -0.000460
    26  H   -0.020350   0.502443   0.000551  -0.002995   0.002937   0.000298
    27  C    0.007961   0.000551   4.939657   0.408346   0.423243   0.408447
    28  H    0.000302  -0.002995   0.408346   0.502386  -0.025665  -0.020313
    29  H   -0.000112   0.002937   0.423243  -0.025665   0.499146  -0.024350
    30  H   -0.000460   0.000298   0.408447  -0.020313  -0.024350   0.524450
 Mulliken charges:
               1
     1  C   -0.097612
     2  C   -0.097873
     3  N   -0.018175
     4  N   -0.018151
     5  C   -0.267947
     6  H    0.176361
     7  H    0.148906
     8  H    0.167286
     9  C   -0.268186
    10  H    0.167288
    11  H    0.176375
    12  H    0.149063
    13  C   -0.268007
    14  H    0.176345
    15  H    0.148987
    16  H    0.167254
    17  C   -0.267923
    18  H    0.167234
    19  H    0.176341
    20  H    0.148966
    21  C   -0.097674
    22  N   -0.018152
    23  C   -0.267684
    24  H    0.176311
    25  H    0.148837
    26  H    0.167225
    27  C   -0.267958
    28  H    0.167220
    29  H    0.176340
    30  H    0.149002
 Sum of Mulliken charges =   1.00000
 Mulliken charges with hydrogens summed into heavy atoms:
               1
     1  C   -0.097612
     2  C   -0.097873
     3  N   -0.018175
     4  N   -0.018151
     5  C    0.224606
     9  C    0.224540
    13  C    0.224580
    17  C    0.224618
    21  C   -0.097674
    22  N   -0.018152
    23  C    0.224689
    27  C    0.224605
 Electronic spatial extent (au):  <R**2>=           2594.2014
 Charge=              1.0000 electrons
 Dipole moment (field-independent basis, Debye):
    X=             -0.0004    Y=              0.0002    Z=             -0.0007  Tot=              0.0008
 Quadrupole moment (field-independent basis, Debye-Ang):
   XX=            -44.0727   YY=            -44.0765   ZZ=            -71.7054
   XY=             -0.0015   XZ=             -0.0001   YZ=              0.0003
 Traceless Quadrupole moment (field-independent basis, Debye-Ang):
   XX=              9.2121   YY=              9.2083   ZZ=            -18.4205
   XY=             -0.0015   XZ=             -0.0001   YZ=              0.0003
 Octapole moment (field-independent basis, Debye-Ang**2):
  XXX=              8.3347  YYY=            -14.6178  ZZZ=             -0.0015  XYY=             -8.3465
  XXY=             14.6358  XXZ=             -0.0011  XZZ=              0.0027  YZZ=             -0.0046
  YYZ=             -0.0017  XYZ=             -0.0002
 Hexadecapole moment (field-independent basis, Debye-Ang**3):
 XXXX=          -1384.1647 YYYY=          -1383.9074 ZZZZ=           -131.9909 XXXY=             -0.0129
 XXXZ=             -4.3937 YYYX=             -0.0194 YYYZ=             -2.4874 ZZZX=              0.0159
 ZZZY=              0.0024 XXYY=           -461.3233 XXZZ=           -275.5491 YYZZ=           -275.5245
 XXYZ=              2.4762 YYXZ=              4.3389 ZZXY=              0.0094
 N-N= 7.407629725561D+02 E-N=-2.668436151097D+03  KE= 5.147723082462D+02
 No NMR shielding tensors so no spin-rotation constants.
 Leave Link  601 at Mon Jan 25 20:54:08 2021, MaxMem=  4026531840 cpu:               2.8 elap:               0.4
 (Enter /opt/ohpc/pub/libs/gaussian/g16-A.03/sandybridge/g16/l9999.exe)

 Test job not archived.
 1\1\GINC-CNODE237\FOpt\RLC-wHPBE\TZVP\C9H18N3(1+)\RDU230\25-Jan-2021\0
 \\#P LC-wHPBE/TZVP iop(3/107=0339000000, 3/108=0339000000) opt\\H18 C9
  N3\\1,1\C,1.5877635782,-0.0854708474,0.6430036309\C,2.3916229552,0.28
 10334818,1.7021383424\N,1.3153491558,-0.0586938325,-0.6504971901\N,3.4
 539184109,0.9162558881,2.1670059374\C,0.0406653138,-0.5295657269,-1.17
 01691427\H,0.1477282749,-1.5044037188,-1.657038001\H,-0.690277309,-0.6
 029028645,-0.3654985895\H,-0.3386473306,0.1882621395,-1.9018864257\C,2
 .2760729715,0.4435480891,-1.6207182805\H,2.3209128567,-0.2403243456,-2
 .4721114042\H,1.990707899,1.4367958441,-1.9824647792\H,3.2703214154,0.
 4893644599,-1.1774135884\C,3.9260722219,0.71530224,3.5283391363\H,3.67
 60535655,1.5708972365,4.1641798788\H,3.489709075,-0.1902926443,3.94861
 27505\H,5.0118131428,0.5902227392,3.5194834489\C,4.2048772144,1.849555
 6185,1.3414320007\H,4.4182234609,2.7524014257,1.9192927686\H,5.1524766
 471,1.4116025084,1.0111583842\H,3.6163293784,2.1414908128,0.4722287455
 \C,1.2762960264,-0.5002389826,1.9209721766\N,0.4866750113,-1.162080774
 2,2.7495476494\C,-0.5413372486,-2.0683349834,2.2612556457\H,-1.5380484
 343,-1.626110819,2.3603951715\H,-0.3569774791,-2.319733314,1.217255911
 \H,-0.509880898,-2.9955908284,2.83901126\C,0.6054272602,-1.0184838651,
 4.1924075324\H,-0.3906158915,-0.9024444101,4.627149156\H,1.0838523005,
 -1.8961007712,4.6393251637\H,1.181427455,-0.1262997555,4.4361037105\\V
 ersion=EM64L-G16RevA.03\State=1-A\HF=-517.5536739\RMSD=4.066e-09\RMSF=
 5.519e-06\Dipole=-0.0001669,0.0002382,-0.0001385\Quadrupole=0.6093626,
 -7.0945487,6.4851861,9.3242292,1.5062751,-2.2533101\PG=C01 [X(C9H18N3)
 ]\\@


 WE ARE REACHING THE STAGE WHERE THE PROBLEMS WE MUST SOLVE ARE 
 GOING TO BECOME INSOLUBLE WITHOUT COMPUTERS.
 I DO NOT FEAR COMPUTERS.  I FEAR THE LACK OF THEM.

                                   -- ISSAC ASIMOV
 Job cpu time:       0 days 14 hours  4 minutes 39.4 seconds.
 Elapsed time:       0 days  1 hours 52 minutes  7.8 seconds.
 File lengths (MBytes):  RWF=    132 Int=      0 D2E=      0 Chk=     16 Scr=      8
 Normal termination of Gaussian 16 at Mon Jan 25 20:54:09 2021.
