 Entering Gaussian System, Link 0=g16
 Input=mol_bp_ma_whol_opt_0.gjf
 Output=mol_bp_ma_whol_opt_0.log
 Initial command:
 /opt/ohpc/pub/libs/gaussian/g16-A.03/sandybridge/g16/l1.exe "/mnt/gpfs2_4m/scratch/rdu230/ondemand/projects/init_structures/wtuning/mol_bp_ma_whol/Gau-338650.inp" -scrdir="/mnt/gpfs2_4m/scratch/rdu230/ondemand/projects/init_structures/wtuning/mol_bp_ma_whol/"
 Entering Link 1 = /opt/ohpc/pub/libs/gaussian/g16-A.03/sandybridge/g16/l1.exe PID=    338651.
  
 Copyright (c) 1988,1990,1992,1993,1995,1998,2003,2009,2016,
            Gaussian, Inc.  All Rights Reserved.
  
 This is part of the Gaussian(R) 16 program.  It is based on
 the Gaussian(R) 09 system (copyright 2009, Gaussian, Inc.),
 the Gaussian(R) 03 system (copyright 2003, Gaussian, Inc.),
 the Gaussian(R) 98 system (copyright 1998, Gaussian, Inc.),
 the Gaussian(R) 94 system (copyright 1995, Gaussian, Inc.),
 the Gaussian 92(TM) system (copyright 1992, Gaussian, Inc.),
 the Gaussian 90(TM) system (copyright 1990, Gaussian, Inc.),
 the Gaussian 88(TM) system (copyright 1988, Gaussian, Inc.),
 the Gaussian 86(TM) system (copyright 1986, Carnegie Mellon
 University), and the Gaussian 82(TM) system (copyright 1983,
 Carnegie Mellon University). Gaussian is a federally registered
 trademark of Gaussian, Inc.
  
 This software contains proprietary and confidential information,
 including trade secrets, belonging to Gaussian, Inc.
  
 This software is provided under written license and may be
 used, copied, transmitted, or stored only in accord with that
 written license.
  
 The following legend is applicable only to US Government
 contracts under FAR:
  
                    RESTRICTED RIGHTS LEGEND
  
 Use, reproduction and disclosure by the US Government is
 subject to restrictions as set forth in subparagraphs (a)
 and (c) of the Commercial Computer Software - Restricted
 Rights clause in FAR 52.227-19.
  
 Gaussian, Inc.
 340 Quinnipiac St., Bldg. 40, Wallingford CT 06492
  
  
 ---------------------------------------------------------------
 Warning -- This program may not be used in any manner that
 competes with the business of Gaussian, Inc. or will provide
 assistance to any competitor of Gaussian, Inc.  The licensee
 of this program is prohibited from giving any competitor of
 Gaussian, Inc. access to this program.  By using this program,
 the user acknowledges that Gaussian, Inc. is engaged in the
 business of creating and licensing software in the field of
 computational chemistry and represents and warrants to the
 licensee that it is not a competitor of Gaussian, Inc. and that
 it will not use this program in any manner prohibited above.
 ---------------------------------------------------------------
  

 Cite this work as:
 Gaussian 16, Revision A.03,
 M. J. Frisch, G. W. Trucks, H. B. Schlegel, G. E. Scuseria, 
 M. A. Robb, J. R. Cheeseman, G. Scalmani, V. Barone, 
 G. A. Petersson, H. Nakatsuji, X. Li, M. Caricato, A. V. Marenich, 
 J. Bloino, B. G. Janesko, R. Gomperts, B. Mennucci, H. P. Hratchian, 
 J. V. Ortiz, A. F. Izmaylov, J. L. Sonnenberg, D. Williams-Young, 
 F. Ding, F. Lipparini, F. Egidi, J. Goings, B. Peng, A. Petrone, 
 T. Henderson, D. Ranasinghe, V. G. Zakrzewski, J. Gao, N. Rega, 
 G. Zheng, W. Liang, M. Hada, M. Ehara, K. Toyota, R. Fukuda, 
 J. Hasegawa, M. Ishida, T. Nakajima, Y. Honda, O. Kitao, H. Nakai, 
 T. Vreven, K. Throssell, J. A. Montgomery, Jr., J. E. Peralta, 
 F. Ogliaro, M. J. Bearpark, J. J. Heyd, E. N. Brothers, K. N. Kudin, 
 V. N. Staroverov, T. A. Keith, R. Kobayashi, J. Normand, 
 K. Raghavachari, A. P. Rendell, J. C. Burant, S. S. Iyengar, 
 J. Tomasi, M. Cossi, J. M. Millam, M. Klene, C. Adamo, R. Cammi, 
 J. W. Ochterski, R. L. Martin, K. Morokuma, O. Farkas, 
 J. B. Foresman, and D. J. Fox, Gaussian, Inc., Wallingford CT, 2016.
 
 ******************************************
 Gaussian 16:  EM64L-G16RevA.03 25-Dec-2016
                17-Jan-2021 
 ******************************************
 %mem=30GB
 %nproc=8
 Will use up to    8 processors via shared memory.
 ------------------------------------------------------------
 #P LC-wHPBE/TZVP iop(3/107=0185200000, 3/108=0185200000) opt
 ------------------------------------------------------------
 1/18=20,19=15,26=3,38=1/1,3;
 2/9=110,12=2,17=6,18=5,40=1/2;
 3/5=19,7=101,11=2,25=1,30=1,71=1,74=-71,107=185200000,108=185200000/1,2,3;
 4//1;
 5/5=2,38=5/2;
 6/7=2,8=2,9=2,10=2,28=1/1;
 7//1,2,3,16;
 1/18=20,19=15,26=3/3(2);
 2/9=110/2;
 99//99;
 2/9=110/2;
 3/5=19,7=101,11=2,25=1,30=1,71=1,74=-71,107=185200000,108=185200000/1,2,3;
 4/5=5,16=3,69=1/1;
 5/5=2,38=5/2;
 7//1,2,3,16;
 1/18=20,19=15,26=3/3(-5);
 2/9=110/2;
 6/7=2,8=2,9=2,10=2,19=2,28=1/1;
 99/9=1/99;
 Leave Link    1 at Sun Jan 17 21:37:28 2021, MaxMem=  4026531840 cpu:               1.4 elap:               0.2
 (Enter /opt/ohpc/pub/libs/gaussian/g16-A.03/sandybridge/g16/l101.exe)
 -------------
 H28 C36 N2 O4
 -------------
 Symbolic Z-matrix:
 Charge =  0 Multiplicity = 1
 C                    -0.04837  -0.3618   -1.39337 
 C                    -1.14402   0.45774  -0.84878 
 C                     1.05816  -0.43953  -0.67687 
 C                    -0.99124   1.19673   0.31163 
 C                     1.27615   0.23139   0.54847 
 C                     0.25566   1.09597   1.01042 
 H                     1.94281  -1.03183  -0.98251 
 H                    -1.84486   1.7845    0.66066 
 H                     0.37295   1.62913   1.91492 
 C                     2.61782   0.17448   1.34409 
 C                     2.72754   0.88777   2.47948 
 C                     3.5853   -0.63808   0.84627 
 C                     3.96401   0.77604   3.18882 
 C                     4.85231  -0.74851   1.58772 
 C                     5.00588   0.02073   2.80216 
 H                     1.94794   1.52393   2.9463 
 H                     3.5468   -1.1503   -0.04413 
 H                     4.09495   1.33143   4.12124 
 H                     5.62303  -1.36017   1.14856 
 H                    -0.20113  -0.9783   -2.3043 
 N                     6.13283  -0.01175   3.60265 
 C                     7.3952   -0.09197   2.838 
 C                     8.27338  -1.20705   3.03559 
 C                     7.67861   0.78177   1.81954 
 C                     9.44619  -1.3093    2.33466 
 C                     8.91341   0.74592   1.06055 
 C                     9.81074  -0.3816    1.32766 
 H                     8.10202  -1.88529   3.83686 
 H                     7.032     1.58783   1.54995 
 H                     10.19105  -2.06933   2.5188 
 H                     9.10924   1.46041   0.34496 
 C                     6.12183  -0.95933   4.67951 
 C                     6.97709  -0.76586   5.82801 
 C                     5.1984   -1.95891   4.79374 
 C                     6.97007  -1.61415   6.92503 
 C                     5.13526  -2.84487   5.87299 
 C                     6.05861  -2.71008   6.87956 
 H                     7.67558   0.12197   5.77526 
 H                     4.55663  -2.14895   3.94277 
 H                     7.6339   -1.41722   7.71865 
 H                     4.43194  -3.70978   5.84458 
 N                    -2.36713   0.82231  -1.57051 
 C                    -2.47317   2.28877  -1.90688 
 C                    -3.56135   3.00117  -1.42122 
 C                    -1.47561   2.89738  -2.66756 
 C                    -3.5738    4.42961  -1.7196 
 C                    -1.58494   4.26944  -3.02541 
 C                    -2.59065   4.9983   -2.54723 
 H                    -4.3309    2.53786  -0.82191 
 H                    -0.68056   2.24739  -3.0936 
 H                    -4.43412   4.98019  -1.38112 
 H                    -0.7492    4.71917  -3.62651 
 C                    -3.59906   0.2672   -0.99066 
 C                    -4.8455    0.30818  -1.69791 
 C                    -3.66978  -0.13997   0.29491 
 C                    -6.0432   -0.1989   -1.14379 
 C                    -4.77355  -0.61869   0.94605 
 C                    -5.99016  -0.67018   0.14004 
 H                    -4.81108   0.60258  -2.71656 
 H                    -2.73604  -0.15379   0.87362 
 H                    -6.93324  -0.19298  -1.68269 
 H                    -4.83616  -0.97893   1.92323 
 O                    -7.2052   -1.07157   0.77282 
 H                    -7.76727  -0.41235   1.03599 
 O                    -2.66443   6.39826  -2.83761 
 H                    -2.50039   6.8606   -2.00648 
 O                     11.01686  -0.47568   0.56717 
 H                     11.31947   0.39942   0.40143 
 O                     6.02521  -3.60538   8.07173 
 H                     5.9748   -3.04646   8.87632 
 
 ITRead=  0  0  0  0  0  0  0  0  0  0  0  0  0  0  0  0  0  0  0  0
 ITRead=  0  0  0  0  0  0  0  0  0  0  0  0  0  0  0  0  0  0  0  0
 ITRead=  0  0  0  0  0  0  0  0  0  0  0  0  0  0  0  0  0  0  0  0
 ITRead=  0  0  0  0  0  0  0  0  0  0
 MicOpt= -1 -1 -1 -1 -1 -1 -1 -1 -1 -1 -1 -1 -1 -1 -1 -1 -1 -1 -1 -1
 MicOpt= -1 -1 -1 -1 -1 -1 -1 -1 -1 -1 -1 -1 -1 -1 -1 -1 -1 -1 -1 -1
 MicOpt= -1 -1 -1 -1 -1 -1 -1 -1 -1 -1 -1 -1 -1 -1 -1 -1 -1 -1 -1 -1
 MicOpt= -1 -1 -1 -1 -1 -1 -1 -1 -1 -1
 NAtoms=     70 NQM=       70 NQMF=       0 NMMI=      0 NMMIF=      0
                NMic=       0 NMicF=      0.
                    Isotopes and Nuclear Properties:
 (Nuclear quadrupole moments (NQMom) in fm**2, nuclear magnetic moments (NMagM)
  in nuclear magnetons)

  Atom         1           2           3           4           5           6           7           8           9          10
 IAtWgt=          12          12          12          12          12          12           1           1           1          12
 AtmWgt=  12.0000000  12.0000000  12.0000000  12.0000000  12.0000000  12.0000000   1.0078250   1.0078250   1.0078250  12.0000000
 NucSpn=           0           0           0           0           0           0           1           1           1           0
 AtZEff=  -0.0000000  -0.0000000  -0.0000000  -0.0000000  -0.0000000  -0.0000000  -0.0000000  -0.0000000  -0.0000000  -0.0000000
 NQMom=    0.0000000   0.0000000   0.0000000   0.0000000   0.0000000   0.0000000   0.0000000   0.0000000   0.0000000   0.0000000
 NMagM=    0.0000000   0.0000000   0.0000000   0.0000000   0.0000000   0.0000000   2.7928460   2.7928460   2.7928460   0.0000000
 AtZNuc=   6.0000000   6.0000000   6.0000000   6.0000000   6.0000000   6.0000000   1.0000000   1.0000000   1.0000000   6.0000000

  Atom        11          12          13          14          15          16          17          18          19          20
 IAtWgt=          12          12          12          12          12           1           1           1           1           1
 AtmWgt=  12.0000000  12.0000000  12.0000000  12.0000000  12.0000000   1.0078250   1.0078250   1.0078250   1.0078250   1.0078250
 NucSpn=           0           0           0           0           0           1           1           1           1           1
 AtZEff=  -0.0000000  -0.0000000  -0.0000000  -0.0000000  -0.0000000  -0.0000000  -0.0000000  -0.0000000  -0.0000000  -0.0000000
 NQMom=    0.0000000   0.0000000   0.0000000   0.0000000   0.0000000   0.0000000   0.0000000   0.0000000   0.0000000   0.0000000
 NMagM=    0.0000000   0.0000000   0.0000000   0.0000000   0.0000000   2.7928460   2.7928460   2.7928460   2.7928460   2.7928460
 AtZNuc=   6.0000000   6.0000000   6.0000000   6.0000000   6.0000000   1.0000000   1.0000000   1.0000000   1.0000000   1.0000000

  Atom        21          22          23          24          25          26          27          28          29          30
 IAtWgt=          14          12          12          12          12          12          12           1           1           1
 AtmWgt=  14.0030740  12.0000000  12.0000000  12.0000000  12.0000000  12.0000000  12.0000000   1.0078250   1.0078250   1.0078250
 NucSpn=           2           0           0           0           0           0           0           1           1           1
 AtZEff=  -0.0000000  -0.0000000  -0.0000000  -0.0000000  -0.0000000  -0.0000000  -0.0000000  -0.0000000  -0.0000000  -0.0000000
 NQMom=    2.0440000   0.0000000   0.0000000   0.0000000   0.0000000   0.0000000   0.0000000   0.0000000   0.0000000   0.0000000
 NMagM=    0.4037610   0.0000000   0.0000000   0.0000000   0.0000000   0.0000000   0.0000000   2.7928460   2.7928460   2.7928460
 AtZNuc=   7.0000000   6.0000000   6.0000000   6.0000000   6.0000000   6.0000000   6.0000000   1.0000000   1.0000000   1.0000000

  Atom        31          32          33          34          35          36          37          38          39          40
 IAtWgt=           1          12          12          12          12          12          12           1           1           1
 AtmWgt=   1.0078250  12.0000000  12.0000000  12.0000000  12.0000000  12.0000000  12.0000000   1.0078250   1.0078250   1.0078250
 NucSpn=           1           0           0           0           0           0           0           1           1           1
 AtZEff=  -0.0000000  -0.0000000  -0.0000000  -0.0000000  -0.0000000  -0.0000000  -0.0000000  -0.0000000  -0.0000000  -0.0000000
 NQMom=    0.0000000   0.0000000   0.0000000   0.0000000   0.0000000   0.0000000   0.0000000   0.0000000   0.0000000   0.0000000
 NMagM=    2.7928460   0.0000000   0.0000000   0.0000000   0.0000000   0.0000000   0.0000000   2.7928460   2.7928460   2.7928460
 AtZNuc=   1.0000000   6.0000000   6.0000000   6.0000000   6.0000000   6.0000000   6.0000000   1.0000000   1.0000000   1.0000000

  Atom        41          42          43          44          45          46          47          48          49          50
 IAtWgt=           1          14          12          12          12          12          12          12           1           1
 AtmWgt=   1.0078250  14.0030740  12.0000000  12.0000000  12.0000000  12.0000000  12.0000000  12.0000000   1.0078250   1.0078250
 NucSpn=           1           2           0           0           0           0           0           0           1           1
 AtZEff=  -0.0000000  -0.0000000  -0.0000000  -0.0000000  -0.0000000  -0.0000000  -0.0000000  -0.0000000  -0.0000000  -0.0000000
 NQMom=    0.0000000   2.0440000   0.0000000   0.0000000   0.0000000   0.0000000   0.0000000   0.0000000   0.0000000   0.0000000
 NMagM=    2.7928460   0.4037610   0.0000000   0.0000000   0.0000000   0.0000000   0.0000000   0.0000000   2.7928460   2.7928460
 AtZNuc=   1.0000000   7.0000000   6.0000000   6.0000000   6.0000000   6.0000000   6.0000000   6.0000000   1.0000000   1.0000000

  Atom        51          52          53          54          55          56          57          58          59          60
 IAtWgt=           1           1          12          12          12          12          12          12           1           1
 AtmWgt=   1.0078250   1.0078250  12.0000000  12.0000000  12.0000000  12.0000000  12.0000000  12.0000000   1.0078250   1.0078250
 NucSpn=           1           1           0           0           0           0           0           0           1           1
 AtZEff=  -0.0000000  -0.0000000  -0.0000000  -0.0000000  -0.0000000  -0.0000000  -0.0000000  -0.0000000  -0.0000000  -0.0000000
 NQMom=    0.0000000   0.0000000   0.0000000   0.0000000   0.0000000   0.0000000   0.0000000   0.0000000   0.0000000   0.0000000
 NMagM=    2.7928460   2.7928460   0.0000000   0.0000000   0.0000000   0.0000000   0.0000000   0.0000000   2.7928460   2.7928460
 AtZNuc=   1.0000000   1.0000000   6.0000000   6.0000000   6.0000000   6.0000000   6.0000000   6.0000000   1.0000000   1.0000000

  Atom        61          62          63          64          65          66          67          68          69          70
 IAtWgt=           1           1          16           1          16           1          16           1          16           1
 AtmWgt=   1.0078250   1.0078250  15.9949146   1.0078250  15.9949146   1.0078250  15.9949146   1.0078250  15.9949146   1.0078250
 NucSpn=           1           1           0           1           0           1           0           1           0           1
 AtZEff=  -0.0000000  -0.0000000  -0.0000000  -0.0000000  -0.0000000  -0.0000000  -0.0000000  -0.0000000  -0.0000000  -0.0000000
 NQMom=    0.0000000   0.0000000   0.0000000   0.0000000   0.0000000   0.0000000   0.0000000   0.0000000   0.0000000   0.0000000
 NMagM=    2.7928460   2.7928460   0.0000000   2.7928460   0.0000000   2.7928460   0.0000000   2.7928460   0.0000000   2.7928460
 AtZNuc=   1.0000000   1.0000000   8.0000000   1.0000000   8.0000000   1.0000000   8.0000000   1.0000000   8.0000000   1.0000000
 Leave Link  101 at Sun Jan 17 21:37:28 2021, MaxMem=  4026531840 cpu:               2.4 elap:               0.4
 (Enter /opt/ohpc/pub/libs/gaussian/g16-A.03/sandybridge/g16/l103.exe)

 GradGradGradGradGradGradGradGradGradGradGradGradGradGradGradGradGradGrad
 Berny optimization.
 Initialization pass.
                           ----------------------------
                           !    Initial Parameters    !
                           ! (Angstroms and Degrees)  !
 --------------------------                            --------------------------
 ! Name  Definition              Value          Derivative Info.                !
 --------------------------------------------------------------------------------
 ! R1    R(1,2)                  1.4726         estimate D2E/DX2                !
 ! R2    R(1,3)                  1.3205         estimate D2E/DX2                !
 ! R3    R(1,20)                 1.1105         estimate D2E/DX2                !
 ! R4    R(2,4)                  1.3842         estimate D2E/DX2                !
 ! R5    R(2,42)                 1.4662         estimate D2E/DX2                !
 ! R6    R(3,5)                  1.4139         estimate D2E/DX2                !
 ! R7    R(3,7)                  1.1076         estimate D2E/DX2                !
 ! R8    R(4,6)                  1.4329         estimate D2E/DX2                !
 ! R9    R(4,8)                  1.0936         estimate D2E/DX2                !
 ! R10   R(5,6)                  1.415          estimate D2E/DX2                !
 ! R11   R(5,10)                 1.5609         estimate D2E/DX2                !
 ! R12   R(6,9)                  1.0565         estimate D2E/DX2                !
 ! R13   R(10,11)                1.3453         estimate D2E/DX2                !
 ! R14   R(10,12)                1.358          estimate D2E/DX2                !
 ! R15   R(11,13)                1.4299         estimate D2E/DX2                !
 ! R16   R(11,16)                1.1092         estimate D2E/DX2                !
 ! R17   R(12,14)                1.4722         estimate D2E/DX2                !
 ! R18   R(12,17)                1.0279         estimate D2E/DX2                !
 ! R19   R(13,15)                1.3437         estimate D2E/DX2                !
 ! R20   R(13,18)                1.0932         estimate D2E/DX2                !
 ! R21   R(14,15)                1.4457         estimate D2E/DX2                !
 ! R22   R(14,19)                1.0775         estimate D2E/DX2                !
 ! R23   R(15,21)                1.3827         estimate D2E/DX2                !
 ! R24   R(21,22)                1.4781         estimate D2E/DX2                !
 ! R25   R(21,32)                1.4345         estimate D2E/DX2                !
 ! R26   R(22,23)                1.4331         estimate D2E/DX2                !
 ! R27   R(22,24)                1.3715         estimate D2E/DX2                !
 ! R28   R(23,25)                1.3701         estimate D2E/DX2                !
 ! R29   R(23,28)                1.0637         estimate D2E/DX2                !
 ! R30   R(24,26)                1.4499         estimate D2E/DX2                !
 ! R31   R(24,29)                1.068          estimate D2E/DX2                !
 ! R32   R(25,27)                1.4169         estimate D2E/DX2                !
 ! R33   R(25,30)                1.08           estimate D2E/DX2                !
 ! R34   R(26,27)                1.4656         estimate D2E/DX2                !
 ! R35   R(26,31)                1.03           estimate D2E/DX2                !
 ! R36   R(27,67)                1.429          estimate D2E/DX2                !
 ! R37   R(32,33)                1.445          estimate D2E/DX2                !
 ! R38   R(32,34)                1.3656         estimate D2E/DX2                !
 ! R39   R(33,35)                1.3868         estimate D2E/DX2                !
 ! R40   R(33,38)                1.1309         estimate D2E/DX2                !
 ! R41   R(34,36)                1.3977         estimate D2E/DX2                !
 ! R42   R(34,39)                1.0827         estimate D2E/DX2                !
 ! R43   R(35,37)                1.4262         estimate D2E/DX2                !
 ! R44   R(35,40)                1.0532         estimate D2E/DX2                !
 ! R45   R(36,37)                1.3726         estimate D2E/DX2                !
 ! R46   R(36,41)                1.1151         estimate D2E/DX2                !
 ! R47   R(37,69)                1.4913         estimate D2E/DX2                !
 ! R48   R(42,43)                1.5083         estimate D2E/DX2                !
 ! R49   R(42,53)                1.4704         estimate D2E/DX2                !
 ! R50   R(43,44)                1.3884         estimate D2E/DX2                !
 ! R51   R(43,45)                1.3943         estimate D2E/DX2                !
 ! R52   R(44,46)                1.4593         estimate D2E/DX2                !
 ! R53   R(44,49)                1.0798         estimate D2E/DX2                !
 ! R54   R(45,47)                1.4222         estimate D2E/DX2                !
 ! R55   R(45,50)                1.1118         estimate D2E/DX2                !
 ! R56   R(46,48)                1.4053         estimate D2E/DX2                !
 ! R57   R(46,51)                1.076          estimate D2E/DX2                !
 ! R58   R(47,48)                1.3309         estimate D2E/DX2                !
 ! R59   R(47,52)                1.1234         estimate D2E/DX2                !
 ! R60   R(48,65)                1.4317         estimate D2E/DX2                !
 ! R61   R(53,54)                1.4337         estimate D2E/DX2                !
 ! R62   R(53,55)                1.3504         estimate D2E/DX2                !
 ! R63   R(54,56)                1.4137         estimate D2E/DX2                !
 ! R64   R(54,59)                1.0609         estimate D2E/DX2                !
 ! R65   R(55,57)                1.368          estimate D2E/DX2                !
 ! R66   R(55,60)                1.0986         estimate D2E/DX2                !
 ! R67   R(56,58)                1.3686         estimate D2E/DX2                !
 ! R68   R(56,61)                1.0405         estimate D2E/DX2                !
 ! R69   R(57,58)                1.4603         estimate D2E/DX2                !
 ! R70   R(57,62)                1.0433         estimate D2E/DX2                !
 ! R71   R(58,63)                1.4275         estimate D2E/DX2                !
 ! R72   R(63,64)                0.9054         estimate D2E/DX2                !
 ! R73   R(65,66)                0.9651         estimate D2E/DX2                !
 ! R74   R(67,68)                0.9407         estimate D2E/DX2                !
 ! R75   R(69,70)                0.981          estimate D2E/DX2                !
 ! A1    A(2,1,3)              117.0995         estimate D2E/DX2                !
 ! A2    A(2,1,20)             120.6606         estimate D2E/DX2                !
 ! A3    A(3,1,20)             121.8479         estimate D2E/DX2                !
 ! A4    A(1,2,4)              121.6686         estimate D2E/DX2                !
 ! A5    A(1,2,42)             125.2386         estimate D2E/DX2                !
 ! A6    A(4,2,42)             111.8381         estimate D2E/DX2                !
 ! A7    A(1,3,5)              124.8534         estimate D2E/DX2                !
 ! A8    A(1,3,7)              123.4362         estimate D2E/DX2                !
 ! A9    A(5,3,7)              111.7003         estimate D2E/DX2                !
 ! A10   A(2,4,6)              117.8614         estimate D2E/DX2                !
 ! A11   A(2,4,8)              117.9263         estimate D2E/DX2                !
 ! A12   A(6,4,8)              124.152          estimate D2E/DX2                !
 ! A13   A(3,5,6)              117.4948         estimate D2E/DX2                !
 ! A14   A(3,5,10)             123.8463         estimate D2E/DX2                !
 ! A15   A(6,5,10)             118.4098         estimate D2E/DX2                !
 ! A16   A(4,6,5)              120.752          estimate D2E/DX2                !
 ! A17   A(4,6,9)              118.5969         estimate D2E/DX2                !
 ! A18   A(5,6,9)              120.5161         estimate D2E/DX2                !
 ! A19   A(5,10,11)            118.7473         estimate D2E/DX2                !
 ! A20   A(5,10,12)            116.5734         estimate D2E/DX2                !
 ! A21   A(11,10,12)           124.6479         estimate D2E/DX2                !
 ! A22   A(10,11,13)           116.6005         estimate D2E/DX2                !
 ! A23   A(10,11,16)           127.0082         estimate D2E/DX2                !
 ! A24   A(13,11,16)           116.3468         estimate D2E/DX2                !
 ! A25   A(10,12,14)           118.2557         estimate D2E/DX2                !
 ! A26   A(10,12,17)           126.0881         estimate D2E/DX2                !
 ! A27   A(14,12,17)           115.5379         estimate D2E/DX2                !
 ! A28   A(11,13,15)           124.8671         estimate D2E/DX2                !
 ! A29   A(11,13,18)           119.1448         estimate D2E/DX2                !
 ! A30   A(15,13,18)           115.987          estimate D2E/DX2                !
 ! A31   A(12,14,15)           118.332          estimate D2E/DX2                !
 ! A32   A(12,14,19)           116.9306         estimate D2E/DX2                !
 ! A33   A(15,14,19)           124.6409         estimate D2E/DX2                !
 ! A34   A(13,15,14)           117.287          estimate D2E/DX2                !
 ! A35   A(13,15,21)           118.5921         estimate D2E/DX2                !
 ! A36   A(14,15,21)           124.0827         estimate D2E/DX2                !
 ! A37   A(15,21,22)           113.4449         estimate D2E/DX2                !
 ! A38   A(15,21,32)           116.3513         estimate D2E/DX2                !
 ! A39   A(22,21,32)           111.0429         estimate D2E/DX2                !
 ! A40   A(21,22,23)           119.6213         estimate D2E/DX2                !
 ! A41   A(21,22,24)           121.7405         estimate D2E/DX2                !
 ! A42   A(23,22,24)           118.1305         estimate D2E/DX2                !
 ! A43   A(22,23,25)           120.8021         estimate D2E/DX2                !
 ! A44   A(22,23,28)           120.0867         estimate D2E/DX2                !
 ! A45   A(25,23,28)           118.4042         estimate D2E/DX2                !
 ! A46   A(22,24,26)           123.2966         estimate D2E/DX2                !
 ! A47   A(22,24,29)           122.9011         estimate D2E/DX2                !
 ! A48   A(26,24,29)           113.7143         estimate D2E/DX2                !
 ! A49   A(23,25,27)           122.3418         estimate D2E/DX2                !
 ! A50   A(23,25,30)           123.756          estimate D2E/DX2                !
 ! A51   A(27,25,30)           113.8596         estimate D2E/DX2                !
 ! A52   A(24,26,27)           116.4285         estimate D2E/DX2                !
 ! A53   A(24,26,31)           120.5613         estimate D2E/DX2                !
 ! A54   A(27,26,31)           122.9487         estimate D2E/DX2                !
 ! A55   A(25,27,26)           118.4062         estimate D2E/DX2                !
 ! A56   A(25,27,67)           123.5253         estimate D2E/DX2                !
 ! A57   A(26,27,67)           118.0638         estimate D2E/DX2                !
 ! A58   A(21,32,33)           120.2448         estimate D2E/DX2                !
 ! A59   A(21,32,34)           123.4701         estimate D2E/DX2                !
 ! A60   A(33,32,34)           115.5787         estimate D2E/DX2                !
 ! A61   A(32,33,35)           122.947          estimate D2E/DX2                !
 ! A62   A(32,33,38)           115.6974         estimate D2E/DX2                !
 ! A63   A(35,33,38)           121.3495         estimate D2E/DX2                !
 ! A64   A(32,34,36)           123.9926         estimate D2E/DX2                !
 ! A65   A(32,34,39)           117.6176         estimate D2E/DX2                !
 ! A66   A(36,34,39)           117.9605         estimate D2E/DX2                !
 ! A67   A(33,35,37)           116.6206         estimate D2E/DX2                !
 ! A68   A(33,35,40)           118.5885         estimate D2E/DX2                !
 ! A69   A(37,35,40)           124.7871         estimate D2E/DX2                !
 ! A70   A(34,36,37)           118.2687         estimate D2E/DX2                !
 ! A71   A(34,36,41)           120.0289         estimate D2E/DX2                !
 ! A72   A(37,36,41)           121.2747         estimate D2E/DX2                !
 ! A73   A(35,37,36)           121.9237         estimate D2E/DX2                !
 ! A74   A(35,37,69)           116.7544         estimate D2E/DX2                !
 ! A75   A(36,37,69)           120.8128         estimate D2E/DX2                !
 ! A76   A(2,42,43)            114.2161         estimate D2E/DX2                !
 ! A77   A(2,42,53)            114.263          estimate D2E/DX2                !
 ! A78   A(43,42,53)           113.3348         estimate D2E/DX2                !
 ! A79   A(42,43,44)           118.4238         estimate D2E/DX2                !
 ! A80   A(42,43,45)           119.7196         estimate D2E/DX2                !
 ! A81   A(44,43,45)           121.845          estimate D2E/DX2                !
 ! A82   A(43,44,46)           115.9397         estimate D2E/DX2                !
 ! A83   A(43,44,49)           122.1787         estimate D2E/DX2                !
 ! A84   A(46,44,49)           121.8287         estimate D2E/DX2                !
 ! A85   A(43,45,47)           120.2241         estimate D2E/DX2                !
 ! A86   A(43,45,50)           117.7412         estimate D2E/DX2                !
 ! A87   A(47,45,50)           121.5058         estimate D2E/DX2                !
 ! A88   A(44,46,48)           120.7006         estimate D2E/DX2                !
 ! A89   A(44,46,51)           116.3175         estimate D2E/DX2                !
 ! A90   A(48,46,51)           122.5156         estimate D2E/DX2                !
 ! A91   A(45,47,48)           119.7376         estimate D2E/DX2                !
 ! A92   A(45,47,52)           117.6241         estimate D2E/DX2                !
 ! A93   A(48,47,52)           122.3549         estimate D2E/DX2                !
 ! A94   A(46,48,47)           121.2398         estimate D2E/DX2                !
 ! A95   A(46,48,65)           118.6269         estimate D2E/DX2                !
 ! A96   A(47,48,65)           120.1045         estimate D2E/DX2                !
 ! A97   A(42,53,54)           121.5387         estimate D2E/DX2                !
 ! A98   A(42,53,55)           122.2179         estimate D2E/DX2                !
 ! A99   A(54,53,55)           115.6404         estimate D2E/DX2                !
 ! A100  A(53,54,56)           122.2033         estimate D2E/DX2                !
 ! A101  A(53,54,59)           116.961          estimate D2E/DX2                !
 ! A102  A(56,54,59)           120.223          estimate D2E/DX2                !
 ! A103  A(53,55,57)           126.935          estimate D2E/DX2                !
 ! A104  A(53,55,60)           117.4365         estimate D2E/DX2                !
 ! A105  A(57,55,60)           115.5072         estimate D2E/DX2                !
 ! A106  A(54,56,58)           117.2808         estimate D2E/DX2                !
 ! A107  A(54,56,61)           121.3079         estimate D2E/DX2                !
 ! A108  A(58,56,61)           121.3959         estimate D2E/DX2                !
 ! A109  A(55,57,58)           114.9498         estimate D2E/DX2                !
 ! A110  A(55,57,62)           127.9543         estimate D2E/DX2                !
 ! A111  A(58,57,62)           117.0507         estimate D2E/DX2                !
 ! A112  A(56,58,57)           122.5407         estimate D2E/DX2                !
 ! A113  A(56,58,63)           118.6619         estimate D2E/DX2                !
 ! A114  A(57,58,63)           118.3184         estimate D2E/DX2                !
 ! A115  A(58,63,64)           116.9056         estimate D2E/DX2                !
 ! A116  A(48,65,66)           106.5599         estimate D2E/DX2                !
 ! A117  A(27,67,68)           107.7009         estimate D2E/DX2                !
 ! A118  A(37,69,70)           108.3476         estimate D2E/DX2                !
 ! D1    D(3,1,2,4)              4.7289         estimate D2E/DX2                !
 ! D2    D(3,1,2,42)           170.8703         estimate D2E/DX2                !
 ! D3    D(20,1,2,4)           177.6732         estimate D2E/DX2                !
 ! D4    D(20,1,2,42)          -16.1854         estimate D2E/DX2                !
 ! D5    D(2,1,3,5)             -1.7504         estimate D2E/DX2                !
 ! D6    D(2,1,3,7)            179.5038         estimate D2E/DX2                !
 ! D7    D(20,1,3,5)          -174.605          estimate D2E/DX2                !
 ! D8    D(20,1,3,7)             6.6492         estimate D2E/DX2                !
 ! D9    D(1,2,4,6)             -2.7595         estimate D2E/DX2                !
 ! D10   D(1,2,4,8)            179.9446         estimate D2E/DX2                !
 ! D11   D(42,2,4,6)          -170.5926         estimate D2E/DX2                !
 ! D12   D(42,2,4,8)            12.1115         estimate D2E/DX2                !
 ! D13   D(1,2,42,43)         -111.6033         estimate D2E/DX2                !
 ! D14   D(1,2,42,53)          115.6214         estimate D2E/DX2                !
 ! D15   D(4,2,42,43)           55.7099         estimate D2E/DX2                !
 ! D16   D(4,2,42,53)          -77.0654         estimate D2E/DX2                !
 ! D17   D(1,3,5,6)             -2.942          estimate D2E/DX2                !
 ! D18   D(1,3,5,10)          -177.1052         estimate D2E/DX2                !
 ! D19   D(7,3,5,6)            175.9315         estimate D2E/DX2                !
 ! D20   D(7,3,5,10)             1.7684         estimate D2E/DX2                !
 ! D21   D(2,4,6,5)             -2.1384         estimate D2E/DX2                !
 ! D22   D(2,4,6,9)           -177.9363         estimate D2E/DX2                !
 ! D23   D(8,4,6,5)            174.9744         estimate D2E/DX2                !
 ! D24   D(8,4,6,9)             -0.8235         estimate D2E/DX2                !
 ! D25   D(3,5,6,4)              4.9409         estimate D2E/DX2                !
 ! D26   D(3,5,6,9)           -179.342          estimate D2E/DX2                !
 ! D27   D(10,5,6,4)           179.4304         estimate D2E/DX2                !
 ! D28   D(10,5,6,9)            -4.8525         estimate D2E/DX2                !
 ! D29   D(3,5,10,11)          177.9038         estimate D2E/DX2                !
 ! D30   D(3,5,10,12)           -4.0374         estimate D2E/DX2                !
 ! D31   D(6,5,10,11)            3.7905         estimate D2E/DX2                !
 ! D32   D(6,5,10,12)         -178.1507         estimate D2E/DX2                !
 ! D33   D(5,10,11,13)         178.488          estimate D2E/DX2                !
 ! D34   D(5,10,11,16)           1.0171         estimate D2E/DX2                !
 ! D35   D(12,10,11,13)          0.5984         estimate D2E/DX2                !
 ! D36   D(12,10,11,16)       -176.8724         estimate D2E/DX2                !
 ! D37   D(5,10,12,14)        -178.3391         estimate D2E/DX2                !
 ! D38   D(5,10,12,17)           5.806          estimate D2E/DX2                !
 ! D39   D(11,10,12,14)         -0.4079         estimate D2E/DX2                !
 ! D40   D(11,10,12,17)       -176.2629         estimate D2E/DX2                !
 ! D41   D(10,11,13,15)          0.1058         estimate D2E/DX2                !
 ! D42   D(10,11,13,18)       -179.4949         estimate D2E/DX2                !
 ! D43   D(16,11,13,15)        177.8522         estimate D2E/DX2                !
 ! D44   D(16,11,13,18)         -1.7485         estimate D2E/DX2                !
 ! D45   D(10,12,14,15)         -0.4454         estimate D2E/DX2                !
 ! D46   D(10,12,14,19)       -177.0402         estimate D2E/DX2                !
 ! D47   D(17,12,14,15)        175.8429         estimate D2E/DX2                !
 ! D48   D(17,12,14,19)         -0.7519         estimate D2E/DX2                !
 ! D49   D(11,13,15,14)         -0.915          estimate D2E/DX2                !
 ! D50   D(11,13,15,21)       -178.7587         estimate D2E/DX2                !
 ! D51   D(18,13,15,14)        178.697          estimate D2E/DX2                !
 ! D52   D(18,13,15,21)          0.8533         estimate D2E/DX2                !
 ! D53   D(12,14,15,13)          1.054          estimate D2E/DX2                !
 ! D54   D(12,14,15,21)        178.7679         estimate D2E/DX2                !
 ! D55   D(19,14,15,13)        177.3635         estimate D2E/DX2                !
 ! D56   D(19,14,15,21)         -4.9226         estimate D2E/DX2                !
 ! D57   D(13,15,21,22)       -143.9367         estimate D2E/DX2                !
 ! D58   D(13,15,21,32)         85.4025         estimate D2E/DX2                !
 ! D59   D(14,15,21,22)         38.3772         estimate D2E/DX2                !
 ! D60   D(14,15,21,32)        -92.2836         estimate D2E/DX2                !
 ! D61   D(15,21,22,23)       -120.1771         estimate D2E/DX2                !
 ! D62   D(15,21,22,24)         51.4947         estimate D2E/DX2                !
 ! D63   D(32,21,22,23)         13.0766         estimate D2E/DX2                !
 ! D64   D(32,21,22,24)       -175.2516         estimate D2E/DX2                !
 ! D65   D(15,21,32,33)       -157.6258         estimate D2E/DX2                !
 ! D66   D(15,21,32,34)         12.3109         estimate D2E/DX2                !
 ! D67   D(22,21,32,33)         70.592          estimate D2E/DX2                !
 ! D68   D(22,21,32,34)       -119.4712         estimate D2E/DX2                !
 ! D69   D(21,22,23,25)        179.6598         estimate D2E/DX2                !
 ! D70   D(21,22,23,28)        -10.1277         estimate D2E/DX2                !
 ! D71   D(24,22,23,25)          7.6891         estimate D2E/DX2                !
 ! D72   D(24,22,23,28)        177.9016         estimate D2E/DX2                !
 ! D73   D(21,22,24,26)        179.0913         estimate D2E/DX2                !
 ! D74   D(21,22,24,29)          2.7192         estimate D2E/DX2                !
 ! D75   D(23,22,24,26)         -9.1174         estimate D2E/DX2                !
 ! D76   D(23,22,24,29)        174.5105         estimate D2E/DX2                !
 ! D77   D(22,23,25,27)         -4.2089         estimate D2E/DX2                !
 ! D78   D(22,23,25,30)        173.2672         estimate D2E/DX2                !
 ! D79   D(28,23,25,27)       -174.5826         estimate D2E/DX2                !
 ! D80   D(28,23,25,30)          2.8936         estimate D2E/DX2                !
 ! D81   D(22,24,26,27)          6.7581         estimate D2E/DX2                !
 ! D82   D(22,24,26,31)       -176.0104         estimate D2E/DX2                !
 ! D83   D(29,24,26,27)       -176.5685         estimate D2E/DX2                !
 ! D84   D(29,24,26,31)          0.663          estimate D2E/DX2                !
 ! D85   D(23,25,27,26)          1.8167         estimate D2E/DX2                !
 ! D86   D(23,25,27,67)       -178.992          estimate D2E/DX2                !
 ! D87   D(30,25,27,26)       -175.889          estimate D2E/DX2                !
 ! D88   D(30,25,27,67)          3.3023         estimate D2E/DX2                !
 ! D89   D(24,26,27,25)         -2.8117         estimate D2E/DX2                !
 ! D90   D(24,26,27,67)        177.9524         estimate D2E/DX2                !
 ! D91   D(31,26,27,25)       -179.9708         estimate D2E/DX2                !
 ! D92   D(31,26,27,67)          0.7933         estimate D2E/DX2                !
 ! D93   D(25,27,67,68)       -144.8273         estimate D2E/DX2                !
 ! D94   D(26,27,67,68)         34.3666         estimate D2E/DX2                !
 ! D95   D(21,32,33,35)        177.1437         estimate D2E/DX2                !
 ! D96   D(21,32,33,38)         -3.7517         estimate D2E/DX2                !
 ! D97   D(34,32,33,35)          6.4433         estimate D2E/DX2                !
 ! D98   D(34,32,33,38)       -174.4522         estimate D2E/DX2                !
 ! D99   D(21,32,34,36)       -176.5566         estimate D2E/DX2                !
 ! D100  D(21,32,34,39)         11.1322         estimate D2E/DX2                !
 ! D101  D(33,32,34,36)         -6.1905         estimate D2E/DX2                !
 ! D102  D(33,32,34,39)       -178.5017         estimate D2E/DX2                !
 ! D103  D(32,33,35,37)         -0.3053         estimate D2E/DX2                !
 ! D104  D(32,33,35,40)        179.0208         estimate D2E/DX2                !
 ! D105  D(38,33,35,37)       -179.3605         estimate D2E/DX2                !
 ! D106  D(38,33,35,40)         -0.0343         estimate D2E/DX2                !
 ! D107  D(32,34,36,37)         -0.2798         estimate D2E/DX2                !
 ! D108  D(32,34,36,41)       -172.8708         estimate D2E/DX2                !
 ! D109  D(39,34,36,37)        172.007          estimate D2E/DX2                !
 ! D110  D(39,34,36,41)         -0.584          estimate D2E/DX2                !
 ! D111  D(33,35,37,36)         -6.7022         estimate D2E/DX2                !
 ! D112  D(33,35,37,69)       -178.5754         estimate D2E/DX2                !
 ! D113  D(40,35,37,36)        174.0182         estimate D2E/DX2                !
 ! D114  D(40,35,37,69)          2.1451         estimate D2E/DX2                !
 ! D115  D(34,36,37,35)          7.1106         estimate D2E/DX2                !
 ! D116  D(34,36,37,69)        178.6587         estimate D2E/DX2                !
 ! D117  D(41,36,37,35)        179.605          estimate D2E/DX2                !
 ! D118  D(41,36,37,69)         -8.8469         estimate D2E/DX2                !
 ! D119  D(35,37,69,70)         47.4773         estimate D2E/DX2                !
 ! D120  D(36,37,69,70)       -124.492          estimate D2E/DX2                !
 ! D121  D(2,42,43,44)        -121.0749         estimate D2E/DX2                !
 ! D122  D(2,42,43,45)          57.7123         estimate D2E/DX2                !
 ! D123  D(53,42,43,44)         12.1396         estimate D2E/DX2                !
 ! D124  D(53,42,43,45)       -169.0733         estimate D2E/DX2                !
 ! D125  D(2,42,53,54)        -168.07           estimate D2E/DX2                !
 ! D126  D(2,42,53,55)          21.2224         estimate D2E/DX2                !
 ! D127  D(43,42,53,54)         58.738          estimate D2E/DX2                !
 ! D128  D(43,42,53,55)       -111.9695         estimate D2E/DX2                !
 ! D129  D(42,43,44,46)        176.8935         estimate D2E/DX2                !
 ! D130  D(42,43,44,49)         -0.5045         estimate D2E/DX2                !
 ! D131  D(45,43,44,46)         -1.8666         estimate D2E/DX2                !
 ! D132  D(45,43,44,49)       -179.2646         estimate D2E/DX2                !
 ! D133  D(42,43,45,47)        178.0826         estimate D2E/DX2                !
 ! D134  D(42,43,45,50)          6.2975         estimate D2E/DX2                !
 ! D135  D(44,43,45,47)         -3.173          estimate D2E/DX2                !
 ! D136  D(44,43,45,50)       -174.9581         estimate D2E/DX2                !
 ! D137  D(43,44,46,48)          5.2124         estimate D2E/DX2                !
 ! D138  D(43,44,46,51)        177.5709         estimate D2E/DX2                !
 ! D139  D(49,44,46,48)       -177.3797         estimate D2E/DX2                !
 ! D140  D(49,44,46,51)         -5.0212         estimate D2E/DX2                !
 ! D141  D(43,45,47,48)          5.1139         estimate D2E/DX2                !
 ! D142  D(43,45,47,52)        179.144          estimate D2E/DX2                !
 ! D143  D(50,45,47,48)        176.5838         estimate D2E/DX2                !
 ! D144  D(50,45,47,52)         -9.3861         estimate D2E/DX2                !
 ! D145  D(44,46,48,47)         -3.4867         estimate D2E/DX2                !
 ! D146  D(44,46,48,65)        178.4625         estimate D2E/DX2                !
 ! D147  D(51,46,48,47)       -175.3609         estimate D2E/DX2                !
 ! D148  D(51,46,48,65)          6.5884         estimate D2E/DX2                !
 ! D149  D(45,47,48,46)         -1.7353         estimate D2E/DX2                !
 ! D150  D(45,47,48,65)        176.2869         estimate D2E/DX2                !
 ! D151  D(52,47,48,46)       -175.4727         estimate D2E/DX2                !
 ! D152  D(52,47,48,65)          2.5495         estimate D2E/DX2                !
 ! D153  D(46,48,65,66)         66.8368         estimate D2E/DX2                !
 ! D154  D(47,48,65,66)       -111.2367         estimate D2E/DX2                !
 ! D155  D(42,53,54,56)       -178.8045         estimate D2E/DX2                !
 ! D156  D(42,53,54,59)         10.1587         estimate D2E/DX2                !
 ! D157  D(55,53,54,56)         -7.5203         estimate D2E/DX2                !
 ! D158  D(55,53,54,59)       -178.5571         estimate D2E/DX2                !
 ! D159  D(42,53,55,57)        177.2042         estimate D2E/DX2                !
 ! D160  D(42,53,55,60)         -7.0017         estimate D2E/DX2                !
 ! D161  D(54,53,55,57)          5.985          estimate D2E/DX2                !
 ! D162  D(54,53,55,60)       -178.2209         estimate D2E/DX2                !
 ! D163  D(53,54,56,58)          3.6249         estimate D2E/DX2                !
 ! D164  D(53,54,56,61)       -177.7835         estimate D2E/DX2                !
 ! D165  D(59,54,56,58)        174.3767         estimate D2E/DX2                !
 ! D166  D(59,54,56,61)         -7.0317         estimate D2E/DX2                !
 ! D167  D(53,55,57,58)         -0.6025         estimate D2E/DX2                !
 ! D168  D(53,55,57,62)        176.8587         estimate D2E/DX2                !
 ! D169  D(60,55,57,58)       -176.4667         estimate D2E/DX2                !
 ! D170  D(60,55,57,62)          0.9945         estimate D2E/DX2                !
 ! D171  D(54,56,58,57)          2.2478         estimate D2E/DX2                !
 ! D172  D(54,56,58,63)        174.1676         estimate D2E/DX2                !
 ! D173  D(61,56,58,57)       -176.3425         estimate D2E/DX2                !
 ! D174  D(61,56,58,63)         -4.4227         estimate D2E/DX2                !
 ! D175  D(55,57,58,56)         -3.844          estimate D2E/DX2                !
 ! D176  D(55,57,58,63)       -175.7902         estimate D2E/DX2                !
 ! D177  D(62,57,58,56)        178.4036         estimate D2E/DX2                !
 ! D178  D(62,57,58,63)          6.4574         estimate D2E/DX2                !
 ! D179  D(56,58,63,64)        -73.7347         estimate D2E/DX2                !
 ! D180  D(57,58,63,64)         98.5297         estimate D2E/DX2                !
 --------------------------------------------------------------------------------
 Trust Radius=3.00D-01 FncErr=1.00D-07 GrdErr=1.00D-06 EigMax=2.50D+02 EigMin=1.00D-04
 Number of steps in this run=    383 maximum allowed number of steps=    420.
 GradGradGradGradGradGradGradGradGradGradGradGradGradGradGradGradGradGrad

 Leave Link  103 at Sun Jan 17 21:37:28 2021, MaxMem=  4026531840 cpu:               0.4 elap:               0.1
 (Enter /opt/ohpc/pub/libs/gaussian/g16-A.03/sandybridge/g16/l202.exe)
 Stoichiometry    C36H28N2O4
 Framework group  C1[X(C36H28N2O4)]
 Deg. of freedom   204
 Full point group                 C1      NOp   1
 Largest Abelian subgroup         C1      NOp   1
 Largest concise Abelian subgroup C1      NOp   1
                         Standard orientation:                         
 ---------------------------------------------------------------------
 Center     Atomic      Atomic             Coordinates (Angstroms)
 Number     Number       Type             X           Y           Z
 ---------------------------------------------------------------------
      1          6           0        2.598486   -0.504295   -2.007947
      2          6           0        3.533951   -0.135047   -0.932191
      3          6           0        1.309871   -0.475283   -1.720829
      4          6           0        3.094425    0.133946    0.352509
      5          6           0        0.771354   -0.151722   -0.454172
      6          6           0        1.683050    0.101855    0.597870
      7          1           0        0.515966   -0.724946   -2.451737
      8          1           0        3.842326    0.401410    1.104220
      9          1           0        1.332640    0.337756    1.566223
     10          6           0       -0.753550   -0.187585   -0.122903
     11          6           0       -1.150381    0.099228    1.130169
     12          6           0       -1.592285   -0.472234   -1.152260
     13          6           0       -2.559129    0.085368    1.374597
     14          6           0       -3.040798   -0.479090   -0.889518
     15          6           0       -3.496079   -0.192264    0.452351
     16          1           0       -0.504965    0.383552    1.986330
     17          1           0       -1.313006   -0.746466   -2.102769
     18          1           0       -2.927996    0.320639    2.376392
     19          1           0       -3.684038   -0.755471   -1.708580
     20          1           0        2.964718   -0.679159   -3.041624
     21          7           0       -4.826649   -0.143090    0.825222
     22          6           0       -5.659683   -1.172804    0.169132
     23          6           0       -6.764652   -0.772979   -0.651126
     24          6           0       -5.310934   -2.499146    0.182538
     25          6           0       -7.548474   -1.706864   -1.276213
     26          6           0       -6.111996   -3.539029   -0.433127
     27          6           0       -7.264639   -3.093943   -1.221258
     28          1           0       -7.082907    0.241937   -0.659292
     29          1           0       -4.450797   -2.867627    0.697228
     30          1           0       -8.451559   -1.466873   -1.817716
     31          1           0       -5.841950   -4.529134   -0.345495
     32          6           0       -5.457263    1.143965    0.766284
     33          6           0       -6.636382    1.413616    1.556796
     34          6           0       -4.901501    2.227355    0.147954
     35          6           0       -7.256834    2.653464    1.587020
     36          6           0       -5.473186    3.502836    0.143001
     37          6           0       -6.668741    3.681868    0.793014
     38          1           0       -7.041354    0.538488    2.147609
     39          1           0       -4.030918    2.058874   -0.473202
     40          1           0       -8.122491    2.769618    2.175594
     41          1           0       -5.026297    4.312264   -0.480412
     42          7           0        4.991301   -0.285446   -0.989759
     43          6           0        5.542584   -1.332715   -0.054769
     44          6           0        6.471548   -0.942659    0.900429
     45          6           0        5.094636   -2.649648   -0.150646
     46          6           0        6.916010   -1.983941    1.821198
     47          6           0        5.636746   -3.653804    0.698088
     48          6           0        6.498985   -3.315493    1.653824
     49          1           0        6.813446    0.077951    0.987011
     50          1           0        4.416075   -2.905418   -0.993397
     51          1           0        7.665940   -1.698472    2.538122
     52          1           0        5.233719   -4.697230    0.593828
     53          6           0        5.731997    0.983929   -0.944207
     54          6           0        7.133242    1.045631   -1.241216
     55          6           0        5.189321    2.116734   -0.448488
     56          6           0        7.864368    2.253963   -1.177688
     57          6           0        5.804202    3.331002   -0.310866
     58          6           0        7.198274    3.368147   -0.744033
     59          1           0        7.576265    0.174468   -1.653898
     60          1           0        4.123689    2.093188   -0.182324
     61          1           0        8.873423    2.289216   -1.429054
     62          1           0        5.388443    4.226128    0.027439
     63          8           0        7.936448    4.574149   -0.547830
     64          1           0        8.475274    4.611093    0.178843
     65          8           0        6.988518   -4.307029    2.563146
     66          1           0        6.610456   -4.099134    3.426452
     67          8           0       -8.052370   -4.087427   -1.880338
     68          1           0       -8.062776   -4.853033   -1.333926
     69          8           0       -7.314266    5.025044    0.848786
     70          1           0       -7.469787    5.254064    1.789877
 ---------------------------------------------------------------------
 Rotational constants (GHZ):           0.1261808           0.0276063           0.0242025
 Leave Link  202 at Sun Jan 17 21:37:28 2021, MaxMem=  4026531840 cpu:               0.2 elap:               0.0
 (Enter /opt/ohpc/pub/libs/gaussian/g16-A.03/sandybridge/g16/l301.exe)
 Standard basis: TZVP (5D, 7F)
 Ernie: Thresh=  0.10000D-02 Tol=  0.10000D-05 Strict=F.
 There are  1008 symmetry adapted cartesian basis functions of A   symmetry.
 There are   966 symmetry adapted basis functions of A   symmetry.
   966 basis functions,  1694 primitive gaussians,  1008 cartesian basis functions
   145 alpha electrons      145 beta electrons
       nuclear repulsion energy      4183.6411439431 Hartrees.
 IExCor=33909 DFT=T Ex+Corr=LC-wHPBE ExCW=0 ScaHFX=  1.000000
 ScaDFX=  1.000000  1.000000  1.000000  1.000000 ScalE2=  1.000000  1.000000
 IRadAn=      5 IRanWt=     -1 IRanGd=            0 ICorTp=0 IEmpDi=  4
 HFx  wShort=  0.000000 wLong=  0.185200 cFull=  0.000000 cShort=  0.000000 cLong=  1.000000
 DFx  wShort=  0.000000 wLong=  0.185200 cFull=  0.000000 cShort=  1.000000 cLong=  0.000000
 NAtoms=   70 NActive=   70 NUniq=   70 SFac= 1.00D+00 NAtFMM=   60 NAOKFM=T Big=T
 Integral buffers will be    131072 words long.
 Raffenetti 2 integral format.
 Two-electron integral symmetry is turned on.
 Leave Link  301 at Sun Jan 17 21:37:29 2021, MaxMem=  4026531840 cpu:               0.4 elap:               0.1
 (Enter /opt/ohpc/pub/libs/gaussian/g16-A.03/sandybridge/g16/l302.exe)
 NPDir=0 NMtPBC=     1 NCelOv=     1 NCel=       1 NClECP=     1 NCelD=      1
         NCelK=      1 NCelE2=     1 NClLst=     1 CellRange=     0.0.
 One-electron integrals computed using PRISM.
 One-electron integral symmetry used in STVInt
 NBasis=   966 RedAO= T EigKep=  7.20D-06  NBF=   966
 NBsUse=   966 1.00D-06 EigRej= -1.00D+00 NBFU=   966
 Precomputing XC quadrature grid using
 IXCGrd= 4 IRadAn=           5 IRanWt=          -1 IRanGd=           0 AccXCQ= 0.00D+00.
 Generated NRdTot=       0 NPtTot=           0 NUsed=           0 NTot=          32
 NSgBfM=   909   906   906   906   909 MxSgAt=    70 MxSgA2=    70.
 Leave Link  302 at Sun Jan 17 21:37:31 2021, MaxMem=  4026531840 cpu:              20.6 elap:               2.6
 (Enter /opt/ohpc/pub/libs/gaussian/g16-A.03/sandybridge/g16/l303.exe)
 DipDrv:  MaxL=1.
 Leave Link  303 at Sun Jan 17 21:37:31 2021, MaxMem=  4026531840 cpu:               1.5 elap:               0.3
 (Enter /opt/ohpc/pub/libs/gaussian/g16-A.03/sandybridge/g16/l401.exe)
 ExpMin= 9.52D-02 ExpMax= 2.70D+04 ExpMxC= 9.22D+02 IAcc=3 IRadAn=         5 AccDes= 0.00D+00
 Harris functional with IExCor=33909 and IRadAn=       5 diagonalized for initial guess.
 HarFok:  IExCor=33909 AccDes= 0.00D+00 IRadAn=         5 IDoV= 1 UseB2=F ITyADJ=14
 ICtDFT=  3500011 ScaDFX=  1.000000  1.000000  1.000000  1.000000
 FoFCou: FMM=F IPFlag=           0 FMFlag=      100000 FMFlg1=        2001
         NFxFlg=           0 DoJE=T BraDBF=F KetDBF=T FulRan=T
         wScrn=  0.000000 ICntrl=       500 IOpCl=  0 I1Cent=   200000004 NGrid=           0
         NMat0=    1 NMatS0=      1 NMatT0=    0 NMatD0=    1 NMtDS0=    0 NMtDT0=    0
 Petite list used in FoFCou.
 Harris En= -1769.12386411586    
 JPrj=0 DoOrth=F DoCkMO=F.
 Leave Link  401 at Sun Jan 17 21:37:43 2021, MaxMem=  4026531840 cpu:              90.0 elap:              11.3
 (Enter /opt/ohpc/pub/libs/gaussian/g16-A.03/sandybridge/g16/l502.exe)
 Integral symmetry usage will be decided dynamically.
 Closed shell SCF:
 Using DIIS extrapolation, IDIIS=  1040.
 NGot=  4026531840 LenX=  4024481942 LenY=  4023464870
 Requested convergence on RMS density matrix=1.00D-08 within 128 cycles.
 Requested convergence on MAX density matrix=1.00D-06.
 Requested convergence on             energy=1.00D-06.
 No special actions if energy rises.
 Fock matrices will be formed incrementally for  20 cycles.
 Integral accuracy reduced to 1.0D-05 until final iterations.

 Cycle   1  Pass 0  IDiag  1:
 FoFJK:  IHMeth= 1 ICntrl=       0 DoSepK=T KAlg= 0 I1Cent=           0 FoldK=F
 IRaf=         1 NMat=       1 IRICut=       1 DoRegI=T DoRafI=F ISym2E= 0 IDoP0=0 IntGTp=1.
 FoFCou: FMM=T IPFlag=           0 FMFlag=      100000 FMFlg1=        2001
         NFxFlg=           0 DoJE=T BraDBF=F KetDBF=F FulRan=T
         wScrn=  0.000000 ICntrl=       500 IOpCl=  0 I1Cent=           0 NGrid=           0
         NMat0=    1 NMatS0=      1 NMatT0=    0 NMatD0=    1 NMtDS0=    0 NMtDT0=    0
 Symmetry not used in FoFCou.
 FMM levels:  10  Number of levels for PrismC:   9
 E= -1797.18474119566    
 DIIS: error= 1.52D-02 at cycle   1 NSaved=   1.
 NSaved= 1 IEnMin= 1 EnMin= -1797.18474119566     IErMin= 1 ErrMin= 1.52D-02
 ErrMax= 1.52D-02  0.00D+00 EMaxC= 1.00D-01 BMatC= 7.07D-01 BMatP= 7.07D-01
 IDIUse=3 WtCom= 8.48D-01 WtEn= 1.52D-01
 Coeff-Com:  0.100D+01
 Coeff-En:   0.100D+01
 Coeff:      0.100D+01
 Gap=     0.288 Goal=   None    Shift=    0.000
 GapD=    0.288 DampG=1.000 DampE=0.500 DampFc=0.5000 IDamp=-1.
 Damping current iteration by 5.00D-01
 RMSDP=9.78D+01 MaxDP=1.14D+04              OVMax= 9.89D-01

 Problem detected with inexpensive integrals.
 Switching to full accuracy and repeating last cycle.
 Cycle   2  Pass 1  IDiag  1:
 E= -1797.18481955721     Delta-E=       -0.000078361542 Rises=F Damp=F
 DIIS: error= 1.52D-02 at cycle   1 NSaved=   1.
 NSaved= 1 IEnMin= 1 EnMin= -1797.18481955721     IErMin= 1 ErrMin= 1.52D-02
 ErrMax= 1.52D-02  0.00D+00 EMaxC= 1.00D-01 BMatC= 7.05D-01 BMatP= 7.05D-01
 IDIUse=3 WtCom= 8.48D-01 WtEn= 1.52D-01
 Coeff-Com:  0.100D+01
 Coeff-En:   0.100D+01
 Coeff:      0.100D+01
 Gap=     0.288 Goal=   None    Shift=    0.000
 GapD=    0.288 DampG=1.000 DampE=0.500 DampFc=0.5000 IDamp=-1.
 Damping current iteration by 5.00D-01
 RMSDP=7.08D-03 MaxDP=8.68D-01 DE=-7.84D-05 OVMax= 1.13D-01

 Cycle   3  Pass 1  IDiag  1:
 RMSU=  3.45D-03    CP:  1.08D+00
 E= -1797.50301210752     Delta-E=       -0.318192550310 Rises=F Damp=T
 DIIS: error= 2.55D-03 at cycle   2 NSaved=   2.
 NSaved= 2 IEnMin= 2 EnMin= -1797.50301210752     IErMin= 2 ErrMin= 2.55D-03
 ErrMax= 2.55D-03  0.00D+00 EMaxC= 1.00D-01 BMatC= 4.52D-02 BMatP= 7.05D-01
 IDIUse=3 WtCom= 9.75D-01 WtEn= 2.55D-02
 Coeff-Com: -0.183D-02 0.100D+01
 Coeff-En:   0.000D+00 0.100D+01
 Coeff:     -0.178D-02 0.100D+01
 Gap=     0.263 Goal=   None    Shift=    0.000
 GapD=    0.263 DampG=1.000 DampE=1.000 DampFc=1.0000 IDamp=-1.
 RMSDP=2.78D-03 MaxDP=2.47D-01 DE=-3.18D-01 OVMax= 8.15D-02

 Cycle   4  Pass 1  IDiag  1:
 RMSU=  1.87D-03    CP:  9.16D-01  6.54D-01
 E= -1797.81019186257     Delta-E=       -0.307179755053 Rises=F Damp=F
 DIIS: error= 3.85D-03 at cycle   3 NSaved=   3.
 NSaved= 3 IEnMin= 3 EnMin= -1797.81019186257     IErMin= 2 ErrMin= 2.55D-03
 ErrMax= 3.85D-03  0.00D+00 EMaxC= 1.00D-01 BMatC= 2.90D-02 BMatP= 4.52D-02
 IDIUse=3 WtCom= 9.61D-01 WtEn= 3.85D-02
 Coeff-Com: -0.466D-01 0.460D+00 0.586D+00
 Coeff-En:   0.000D+00 0.000D+00 0.100D+01
 Coeff:     -0.448D-01 0.442D+00 0.602D+00
 Gap=     0.267 Goal=   None    Shift=    0.000
 RMSDP=1.09D-03 MaxDP=1.33D-01 DE=-3.07D-01 OVMax= 3.94D-02

 Cycle   5  Pass 1  IDiag  1:
 RMSU=  1.01D-03    CP:  9.50D-01  6.82D-01  9.01D-01
 E= -1797.83066311570     Delta-E=       -0.020471253129 Rises=F Damp=F
 DIIS: error= 1.83D-03 at cycle   4 NSaved=   4.
 NSaved= 4 IEnMin= 4 EnMin= -1797.83066311570     IErMin= 4 ErrMin= 1.83D-03
 ErrMax= 1.83D-03  0.00D+00 EMaxC= 1.00D-01 BMatC= 4.99D-03 BMatP= 2.90D-02
 IDIUse=3 WtCom= 9.82D-01 WtEn= 1.83D-02
 Coeff-Com: -0.132D-01 0.994D-01 0.320D+00 0.594D+00
 Coeff-En:   0.000D+00 0.000D+00 0.153D+00 0.847D+00
 Coeff:     -0.130D-01 0.976D-01 0.317D+00 0.599D+00
 Gap=     0.254 Goal=   None    Shift=    0.000
 RMSDP=4.67D-04 MaxDP=6.07D-02 DE=-2.05D-02 OVMax= 1.39D-02

 Cycle   6  Pass 1  IDiag  1:
 RMSU=  1.15D-04    CP:  9.34D-01  6.80D-01  9.58D-01  5.95D-01
 E= -1797.83498023380     Delta-E=       -0.004317118098 Rises=F Damp=F
 DIIS: error= 5.39D-04 at cycle   5 NSaved=   5.
 NSaved= 5 IEnMin= 5 EnMin= -1797.83498023380     IErMin= 5 ErrMin= 5.39D-04
 ErrMax= 5.39D-04  0.00D+00 EMaxC= 1.00D-01 BMatC= 3.97D-04 BMatP= 4.99D-03
 IDIUse=3 WtCom= 9.95D-01 WtEn= 5.39D-03
 Coeff-Com: -0.320D-02 0.267D-01 0.143D+00 0.331D+00 0.502D+00
 Coeff-En:   0.000D+00 0.000D+00 0.000D+00 0.000D+00 0.100D+01
 Coeff:     -0.319D-02 0.266D-01 0.142D+00 0.329D+00 0.505D+00
 Gap=     0.254 Goal=   None    Shift=    0.000
 RMSDP=7.46D-05 MaxDP=6.25D-03 DE=-4.32D-03 OVMax= 3.66D-03

 Cycle   7  Pass 1  IDiag  1:
 RMSU=  5.81D-05    CP:  9.33D-01  6.79D-01  9.52D-01  6.26D-01  7.39D-01
 E= -1797.83535050247     Delta-E=       -0.000370268676 Rises=F Damp=F
 DIIS: error= 1.00D-04 at cycle   6 NSaved=   6.
 NSaved= 6 IEnMin= 6 EnMin= -1797.83535050247     IErMin= 6 ErrMin= 1.00D-04
 ErrMax= 1.00D-04  0.00D+00 EMaxC= 1.00D-01 BMatC= 1.94D-05 BMatP= 3.97D-04
 IDIUse=3 WtCom= 9.99D-01 WtEn= 1.00D-03
 Coeff-Com:  0.556D-03 0.707D-03 0.257D-01 0.670D-01 0.211D+00 0.695D+00
 Coeff-En:   0.000D+00 0.000D+00 0.000D+00 0.000D+00 0.000D+00 0.100D+01
 Coeff:      0.555D-03 0.706D-03 0.256D-01 0.669D-01 0.211D+00 0.695D+00
 Gap=     0.254 Goal=   None    Shift=    0.000
 RMSDP=3.40D-05 MaxDP=2.76D-03 DE=-3.70D-04 OVMax= 8.93D-04

 Cycle   8  Pass 1  IDiag  1:
 RMSU=  1.60D-05    CP:  9.32D-01  6.77D-01  9.64D-01  6.35D-01  7.94D-01
                    CP:  7.46D-01
 E= -1797.83536979786     Delta-E=       -0.000019295387 Rises=F Damp=F
 DIIS: error= 4.20D-05 at cycle   7 NSaved=   7.
 NSaved= 7 IEnMin= 7 EnMin= -1797.83536979786     IErMin= 7 ErrMin= 4.20D-05
 ErrMax= 4.20D-05  0.00D+00 EMaxC= 1.00D-01 BMatC= 2.07D-06 BMatP= 1.94D-05
 IDIUse=1 WtCom= 1.00D+00 WtEn= 0.00D+00
 Coeff-Com:  0.645D-03-0.217D-02-0.339D-03 0.834D-03 0.506D-01 0.298D+00
 Coeff-Com:  0.653D+00
 Coeff:      0.645D-03-0.217D-02-0.339D-03 0.834D-03 0.506D-01 0.298D+00
 Coeff:      0.653D+00
 Gap=     0.254 Goal=   None    Shift=    0.000
 RMSDP=1.04D-05 MaxDP=1.39D-03 DE=-1.93D-05 OVMax= 4.87D-04

 Cycle   9  Pass 1  IDiag  1:
 RMSU=  5.78D-06    CP:  9.32D-01  6.75D-01  9.65D-01  6.35D-01  8.00D-01
                    CP:  7.97D-01  1.01D+00
 E= -1797.83537193825     Delta-E=       -0.000002140393 Rises=F Damp=F
 DIIS: error= 1.66D-05 at cycle   8 NSaved=   8.
 NSaved= 8 IEnMin= 8 EnMin= -1797.83537193825     IErMin= 8 ErrMin= 1.66D-05
 ErrMax= 1.66D-05  0.00D+00 EMaxC= 1.00D-01 BMatC= 3.57D-07 BMatP= 2.07D-06
 IDIUse=1 WtCom= 1.00D+00 WtEn= 0.00D+00
 Coeff-Com:  0.222D-03-0.124D-02-0.544D-02-0.146D-01-0.216D-01-0.164D-01
 Coeff-Com:  0.292D+00 0.767D+00
 Coeff:      0.222D-03-0.124D-02-0.544D-02-0.146D-01-0.216D-01-0.164D-01
 Coeff:      0.292D+00 0.767D+00
 Gap=     0.254 Goal=   None    Shift=    0.000
 RMSDP=4.87D-06 MaxDP=5.21D-04 DE=-2.14D-06 OVMax= 3.29D-04

 Cycle  10  Pass 1  IDiag  1:
 RMSU=  1.80D-06    CP:  9.31D-01  6.75D-01  9.66D-01  6.34D-01  8.12D-01
                    CP:  7.95D-01  1.16D+00  1.01D+00
 E= -1797.83537245592     Delta-E=       -0.000000517667 Rises=F Damp=F
 DIIS: error= 5.72D-06 at cycle   9 NSaved=   9.
 NSaved= 9 IEnMin= 9 EnMin= -1797.83537245592     IErMin= 9 ErrMin= 5.72D-06
 ErrMax= 5.72D-06  0.00D+00 EMaxC= 1.00D-01 BMatC= 2.88D-08 BMatP= 3.57D-07
 IDIUse=1 WtCom= 1.00D+00 WtEn= 0.00D+00
 Coeff-Com:  0.425D-04-0.355D-03-0.207D-02-0.598D-02-0.117D-01-0.279D-01
 Coeff-Com:  0.728D-01 0.294D+00 0.681D+00
 Coeff:      0.425D-04-0.355D-03-0.207D-02-0.598D-02-0.117D-01-0.279D-01
 Coeff:      0.728D-01 0.294D+00 0.681D+00
 Gap=     0.254 Goal=   None    Shift=    0.000
 RMSDP=1.55D-06 MaxDP=1.90D-04 DE=-5.18D-07 OVMax= 1.12D-04

 Cycle  11  Pass 1  IDiag  1:
 RMSU=  7.08D-07    CP:  9.31D-01  6.75D-01  9.67D-01  6.34D-01  8.12D-01
                    CP:  7.99D-01  1.17D+00  1.14D+00  1.09D+00
 E= -1797.83537250549     Delta-E=       -0.000000049566 Rises=F Damp=F
 DIIS: error= 2.81D-06 at cycle  10 NSaved=  10.
 NSaved=10 IEnMin=10 EnMin= -1797.83537250549     IErMin=10 ErrMin= 2.81D-06
 ErrMax= 2.81D-06  0.00D+00 EMaxC= 1.00D-01 BMatC= 8.19D-09 BMatP= 2.88D-08
 IDIUse=1 WtCom= 1.00D+00 WtEn= 0.00D+00
 Coeff-Com: -0.449D-04 0.167D-03 0.463D-03 0.920D-03 0.159D-03-0.927D-02
 Coeff-Com: -0.431D-01-0.698D-01 0.339D+00 0.781D+00
 Coeff:     -0.449D-04 0.167D-03 0.463D-03 0.920D-03 0.159D-03-0.927D-02
 Coeff:     -0.431D-01-0.698D-01 0.339D+00 0.781D+00
 Gap=     0.254 Goal=   None    Shift=    0.000
 RMSDP=8.41D-07 MaxDP=7.34D-05 DE=-4.96D-08 OVMax= 8.31D-05

 Cycle  12  Pass 1  IDiag  1:
 RMSU=  3.14D-07    CP:  9.31D-01  6.75D-01  9.67D-01  6.33D-01  8.12D-01
                    CP:  7.95D-01  1.20D+00  1.18D+00  1.34D+00  1.04D+00
 E= -1797.83537252221     Delta-E=       -0.000000016721 Rises=F Damp=F
 DIIS: error= 1.01D-06 at cycle  11 NSaved=  11.
 NSaved=11 IEnMin=11 EnMin= -1797.83537252221     IErMin=11 ErrMin= 1.01D-06
 ErrMax= 1.01D-06  0.00D+00 EMaxC= 1.00D-01 BMatC= 8.25D-10 BMatP= 8.19D-09
 IDIUse=1 WtCom= 1.00D+00 WtEn= 0.00D+00
 Coeff-Com: -0.238D-04 0.111D-03 0.431D-03 0.108D-02 0.145D-02-0.235D-03
 Coeff-Com: -0.264D-01-0.622D-01 0.532D-01 0.307D+00 0.726D+00
 Coeff:     -0.238D-04 0.111D-03 0.431D-03 0.108D-02 0.145D-02-0.235D-03
 Coeff:     -0.264D-01-0.622D-01 0.532D-01 0.307D+00 0.726D+00
 Gap=     0.254 Goal=   None    Shift=    0.000
 RMSDP=2.82D-07 MaxDP=2.11D-05 DE=-1.67D-08 OVMax= 2.65D-05

 Cycle  13  Pass 1  IDiag  1:
 RMSU=  1.56D-07    CP:  9.31D-01  6.75D-01  9.67D-01  6.33D-01  8.11D-01
                    CP:  7.94D-01  1.20D+00  1.21D+00  1.39D+00  1.14D+00
                    CP:  8.48D-01
 E= -1797.83537252394     Delta-E=       -0.000000001730 Rises=F Damp=F
 DIIS: error= 4.54D-07 at cycle  12 NSaved=  12.
 NSaved=12 IEnMin=12 EnMin= -1797.83537252394     IErMin=12 ErrMin= 4.54D-07
 ErrMax= 4.54D-07  0.00D+00 EMaxC= 1.00D-01 BMatC= 2.49D-10 BMatP= 8.25D-10
 IDIUse=1 WtCom= 1.00D+00 WtEn= 0.00D+00
 Coeff-Com: -0.349D-05 0.246D-04 0.137D-03 0.398D-03 0.759D-03 0.179D-02
 Coeff-Com: -0.585D-02-0.184D-01-0.370D-01 0.878D-02 0.385D+00 0.665D+00
 Coeff:     -0.349D-05 0.246D-04 0.137D-03 0.398D-03 0.759D-03 0.179D-02
 Coeff:     -0.585D-02-0.184D-01-0.370D-01 0.878D-02 0.385D+00 0.665D+00
 Gap=     0.254 Goal=   None    Shift=    0.000
 RMSDP=1.11D-07 MaxDP=1.36D-05 DE=-1.73D-09 OVMax= 1.16D-05

 Cycle  14  Pass 1  IDiag  1:
 RMSU=  5.02D-08    CP:  9.31D-01  6.75D-01  9.67D-01  6.33D-01  8.11D-01
                    CP:  7.94D-01  1.20D+00  1.21D+00  1.43D+00  1.16D+00
                    CP:  1.02D+00  9.13D-01
 E= -1797.83537252458     Delta-E=       -0.000000000639 Rises=F Damp=F
 DIIS: error= 1.71D-07 at cycle  13 NSaved=  13.
 NSaved=13 IEnMin=13 EnMin= -1797.83537252458     IErMin=13 ErrMin= 1.71D-07
 ErrMax= 1.71D-07  0.00D+00 EMaxC= 1.00D-01 BMatC= 3.38D-11 BMatP= 2.49D-10
 IDIUse=1 WtCom= 1.00D+00 WtEn= 0.00D+00
 Coeff-Com:  0.323D-05-0.108D-04-0.276D-04-0.437D-04 0.349D-04 0.814D-03
 Coeff-Com:  0.250D-02 0.473D-02-0.262D-01-0.579D-01 0.171D-01 0.276D+00
 Coeff-Com:  0.783D+00
 Coeff:      0.323D-05-0.108D-04-0.276D-04-0.437D-04 0.349D-04 0.814D-03
 Coeff:      0.250D-02 0.473D-02-0.262D-01-0.579D-01 0.171D-01 0.276D+00
 Coeff:      0.783D+00
 Gap=     0.254 Goal=   None    Shift=    0.000
 RMSDP=5.16D-08 MaxDP=5.44D-06 DE=-6.39D-10 OVMax= 5.49D-06

 Cycle  15  Pass 1  IDiag  1:
 RMSU=  3.28D-08    CP:  9.31D-01  6.75D-01  9.67D-01  6.33D-01  8.11D-01
                    CP:  7.94D-01  1.20D+00  1.21D+00  1.43D+00  1.19D+00
                    CP:  1.05D+00  1.05D+00  9.95D-01
 E= -1797.83537252452     Delta-E=        0.000000000059 Rises=F Damp=F
 DIIS: error= 6.90D-08 at cycle  14 NSaved=  14.
 NSaved=14 IEnMin=13 EnMin= -1797.83537252458     IErMin=14 ErrMin= 6.90D-08
 ErrMax= 6.90D-08  0.00D+00 EMaxC= 1.00D-01 BMatC= 7.25D-12 BMatP= 3.38D-11
 IDIUse=1 WtCom= 1.00D+00 WtEn= 0.00D+00
 Coeff-Com:  0.224D-05-0.957D-05-0.385D-04-0.937D-04-0.123D-03 0.540D-04
 Coeff-Com:  0.223D-02 0.570D-02-0.499D-02-0.281D-01-0.644D-01 0.248D-02
 Coeff-Com:  0.372D+00 0.716D+00
 Coeff:      0.224D-05-0.957D-05-0.385D-04-0.937D-04-0.123D-03 0.540D-04
 Coeff:      0.223D-02 0.570D-02-0.499D-02-0.281D-01-0.644D-01 0.248D-02
 Coeff:      0.372D+00 0.716D+00
 Gap=     0.254 Goal=   None    Shift=    0.000
 RMSDP=1.93D-08 MaxDP=1.85D-06 DE= 5.91D-11 OVMax= 1.93D-06

 Cycle  16  Pass 1  IDiag  1:
 RMSU=  9.08D-09    CP:  9.31D-01  6.75D-01  9.67D-01  6.33D-01  8.11D-01
                    CP:  7.94D-01  1.20D+00  1.21D+00  1.43D+00  1.19D+00
                    CP:  1.07D+00  1.09D+00  1.20D+00  9.17D-01
 E= -1797.83537252446     Delta-E=        0.000000000055 Rises=F Damp=F
 DIIS: error= 2.81D-08 at cycle  15 NSaved=  15.
 NSaved=15 IEnMin=13 EnMin= -1797.83537252458     IErMin=15 ErrMin= 2.81D-08
 ErrMax= 2.81D-08  0.00D+00 EMaxC= 1.00D-01 BMatC= 7.62D-13 BMatP= 7.25D-12
 IDIUse=1 WtCom= 1.00D+00 WtEn= 0.00D+00
 Coeff-Com:  0.380D-06-0.199D-05-0.105D-04-0.273D-04-0.491D-04-0.851D-04
 Coeff-Com:  0.473D-03 0.135D-02 0.173D-02-0.206D-02-0.260D-01-0.368D-01
 Coeff-Com:  0.282D-01 0.255D+00 0.778D+00
 Coeff:      0.380D-06-0.199D-05-0.105D-04-0.273D-04-0.491D-04-0.851D-04
 Coeff:      0.473D-03 0.135D-02 0.173D-02-0.206D-02-0.260D-01-0.368D-01
 Coeff:      0.282D-01 0.255D+00 0.778D+00
 Gap=     0.254 Goal=   None    Shift=    0.000
 RMSDP=7.55D-09 MaxDP=6.28D-07 DE= 5.46D-11 OVMax= 6.93D-07

 SCF Done:  E(RLC-wHPBE) =  -1797.83537252     A.U. after   16 cycles
            NFock= 16  Conv=0.76D-08     -V/T= 2.0050
 KE= 1.788969412967D+03 PE=-1.255429727122D+04 EE= 4.783851341788D+03
 Leave Link  502 at Sun Jan 17 21:53:43 2021, MaxMem=  4026531840 cpu:            7562.4 elap:             959.9
 (Enter /opt/ohpc/pub/libs/gaussian/g16-A.03/sandybridge/g16/l601.exe)
 Copying SCF densities to generalized density rwf, IOpCl= 0 IROHF=0.

 **********************************************************************

            Population analysis using the SCF density.

 **********************************************************************

 Orbital symmetries:
       Occupied  (A) (A) (A) (A) (A) (A) (A) (A) (A) (A) (A) (A)
                 (A) (A) (A) (A) (A) (A) (A) (A) (A) (A) (A) (A)
                 (A) (A) (A) (A) (A) (A) (A) (A) (A) (A) (A) (A)
                 (A) (A) (A) (A) (A) (A) (A) (A) (A) (A) (A) (A)
                 (A) (A) (A) (A) (A) (A) (A) (A) (A) (A) (A) (A)
                 (A) (A) (A) (A) (A) (A) (A) (A) (A) (A) (A) (A)
                 (A) (A) (A) (A) (A) (A) (A) (A) (A) (A) (A) (A)
                 (A) (A) (A) (A) (A) (A) (A) (A) (A) (A) (A) (A)
                 (A) (A) (A) (A) (A) (A) (A) (A) (A) (A) (A) (A)
                 (A) (A) (A) (A) (A) (A) (A) (A) (A) (A) (A) (A)
                 (A) (A) (A) (A) (A) (A) (A) (A) (A) (A) (A) (A)
                 (A) (A) (A) (A) (A) (A) (A) (A) (A) (A) (A) (A)
                 (A)
       Virtual   (A) (A) (A) (A) (A) (A) (A) (A) (A) (A) (A) (A)
                 (A) (A) (A) (A) (A) (A) (A) (A) (A) (A) (A) (A)
                 (A) (A) (A) (A) (A) (A) (A) (A) (A) (A) (A) (A)
                 (A) (A) (A) (A) (A) (A) (A) (A) (A) (A) (A) (A)
                 (A) (A) (A) (A) (A) (A) (A) (A) (A) (A) (A) (A)
                 (A) (A) (A) (A) (A) (A) (A) (A) (A) (A) (A) (A)
                 (A) (A) (A) (A) (A) (A) (A) (A) (A) (A) (A) (A)
                 (A) (A) (A) (A) (A) (A) (A) (A) (A) (A) (A) (A)
                 (A) (A) (A) (A) (A) (A) (A) (A) (A) (A) (A) (A)
                 (A) (A) (A) (A) (A) (A) (A) (A) (A) (A) (A) (A)
                 (A) (A) (A) (A) (A) (A) (A) (A) (A) (A) (A) (A)
                 (A) (A) (A) (A) (A) (A) (A) (A) (A) (A) (A) (A)
                 (A) (A) (A) (A) (A) (A) (A) (A) (A) (A) (A) (A)
                 (A) (A) (A) (A) (A) (A) (A) (A) (A) (A) (A) (A)
                 (A) (A) (A) (A) (A) (A) (A) (A) (A) (A) (A) (A)
                 (A) (A) (A) (A) (A) (A) (A) (A) (A) (A) (A) (A)
                 (A) (A) (A) (A) (A) (A) (A) (A) (A) (A) (A) (A)
                 (A) (A) (A) (A) (A) (A) (A) (A) (A) (A) (A) (A)
                 (A) (A) (A) (A) (A) (A) (A) (A) (A) (A) (A) (A)
                 (A) (A) (A) (A) (A) (A) (A) (A) (A) (A) (A) (A)
                 (A) (A) (A) (A) (A) (A) (A) (A) (A) (A) (A) (A)
                 (A) (A) (A) (A) (A) (A) (A) (A) (A) (A) (A) (A)
                 (A) (A) (A) (A) (A) (A) (A) (A) (A) (A) (A) (A)
                 (A) (A) (A) (A) (A) (A) (A) (A) (A) (A) (A) (A)
                 (A) (A) (A) (A) (A) (A) (A) (A) (A) (A) (A) (A)
                 (A) (A) (A) (A) (A) (A) (A) (A) (A) (A) (A) (A)
                 (A) (A) (A) (A) (A) (A) (A) (A) (A) (A) (A) (A)
                 (A) (A) (A) (A) (A) (A) (A) (A) (A) (A) (A) (A)
                 (A) (A) (A) (A) (A) (A) (A) (A) (A) (A) (A) (A)
                 (A) (A) (A) (A) (A) (A) (A) (A) (A) (A) (A) (A)
                 (A) (A) (A) (A) (A) (A) (A) (A) (A) (A) (A) (A)
                 (A) (A) (A) (A) (A) (A) (A) (A) (A) (A) (A) (A)
                 (A) (A) (A) (A) (A) (A) (A) (A) (A) (A) (A) (A)
                 (A) (A) (A) (A) (A) (A) (A) (A) (A) (A) (A) (A)
                 (A) (A) (A) (A) (A) (A) (A) (A) (A) (A) (A) (A)
                 (A) (A) (A) (A) (A) (A) (A) (A) (A) (A) (A) (A)
                 (A) (A) (A) (A) (A) (A) (A) (A) (A) (A) (A) (A)
                 (A) (A) (A) (A) (A) (A) (A) (A) (A) (A) (A) (A)
                 (A) (A) (A) (A) (A) (A) (A) (A) (A) (A) (A) (A)
                 (A) (A) (A) (A) (A) (A) (A) (A) (A) (A) (A) (A)
                 (A) (A) (A) (A) (A) (A) (A) (A) (A) (A) (A) (A)
                 (A) (A) (A) (A) (A) (A) (A) (A) (A) (A) (A) (A)
                 (A) (A) (A) (A) (A) (A) (A) (A) (A) (A) (A) (A)
                 (A) (A) (A) (A) (A) (A) (A) (A) (A) (A) (A) (A)
                 (A) (A) (A) (A) (A) (A) (A) (A) (A) (A) (A) (A)
                 (A) (A) (A) (A) (A) (A) (A) (A) (A) (A) (A) (A)
                 (A) (A) (A) (A) (A) (A) (A) (A) (A) (A) (A) (A)
                 (A) (A) (A) (A) (A) (A) (A) (A) (A) (A) (A) (A)
                 (A) (A) (A) (A) (A) (A) (A) (A) (A) (A) (A) (A)
                 (A) (A) (A) (A) (A) (A) (A) (A) (A) (A) (A) (A)
                 (A) (A) (A) (A) (A) (A) (A) (A) (A) (A) (A) (A)
                 (A) (A) (A) (A) (A) (A) (A) (A) (A) (A) (A) (A)
                 (A) (A) (A) (A) (A) (A) (A) (A) (A) (A) (A) (A)
                 (A) (A) (A) (A) (A) (A) (A) (A) (A) (A) (A) (A)
                 (A) (A) (A) (A) (A) (A) (A) (A) (A) (A) (A) (A)
                 (A) (A) (A) (A) (A) (A) (A) (A) (A) (A) (A) (A)
                 (A) (A) (A) (A) (A) (A) (A) (A) (A) (A) (A) (A)
                 (A) (A) (A) (A) (A) (A) (A) (A) (A) (A) (A) (A)
                 (A) (A) (A) (A) (A) (A) (A) (A) (A) (A) (A) (A)
                 (A) (A) (A) (A) (A) (A) (A) (A) (A) (A) (A) (A)
                 (A) (A) (A) (A) (A) (A) (A) (A) (A) (A) (A) (A)
                 (A) (A) (A) (A) (A) (A) (A) (A) (A) (A) (A) (A)
                 (A) (A) (A) (A) (A) (A) (A) (A) (A) (A) (A) (A)
                 (A) (A) (A) (A) (A) (A) (A) (A) (A) (A) (A) (A)
                 (A) (A) (A) (A) (A) (A) (A) (A) (A) (A) (A) (A)
                 (A) (A) (A) (A) (A) (A) (A) (A) (A) (A) (A) (A)
                 (A) (A) (A) (A) (A) (A) (A) (A) (A) (A) (A) (A)
                 (A) (A) (A) (A) (A) (A) (A) (A) (A) (A) (A) (A)
                 (A) (A) (A) (A) (A)
 The electronic state is 1-A.
 Alpha  occ. eigenvalues --  -18.88295 -18.87007 -18.86799 -18.85799 -14.12914
 Alpha  occ. eigenvalues --  -14.12095 -10.06667 -10.05901 -10.05300 -10.04531
 Alpha  occ. eigenvalues --  -10.03985 -10.03968 -10.03795 -10.03750 -10.03419
 Alpha  occ. eigenvalues --  -10.03259 -10.01844 -10.01328 -10.01279 -10.01048
 Alpha  occ. eigenvalues --  -10.00857 -10.00847 -10.00572 -10.00547 -10.00447
 Alpha  occ. eigenvalues --  -10.00363 -10.00357 -10.00321 -10.00315 -10.00298
 Alpha  occ. eigenvalues --  -10.00293 -10.00240 -10.00092 -10.00046 -10.00016
 Alpha  occ. eigenvalues --   -9.99966  -9.99883  -9.99771  -9.99720  -9.99692
 Alpha  occ. eigenvalues --   -9.99418  -9.98876  -1.06835  -1.05685  -1.05230
 Alpha  occ. eigenvalues --   -1.03294  -1.00462  -0.97468  -0.90998  -0.89498
 Alpha  occ. eigenvalues --   -0.89218  -0.89107  -0.87975  -0.87042  -0.81897
 Alpha  occ. eigenvalues --   -0.80318  -0.80032  -0.79833  -0.79688  -0.79158
 Alpha  occ. eigenvalues --   -0.78700  -0.78424  -0.78229  -0.77751  -0.75743
 Alpha  occ. eigenvalues --   -0.73882  -0.69104  -0.68609  -0.67768  -0.67337
 Alpha  occ. eigenvalues --   -0.67081  -0.66000  -0.65816  -0.65299  -0.64743
 Alpha  occ. eigenvalues --   -0.64463  -0.63323  -0.62408  -0.60360  -0.59971
 Alpha  occ. eigenvalues --   -0.59948  -0.59221  -0.59210  -0.57729  -0.57048
 Alpha  occ. eigenvalues --   -0.56316  -0.55240  -0.54022  -0.52771  -0.52452
 Alpha  occ. eigenvalues --   -0.52172  -0.52070  -0.51488  -0.51283  -0.51017
 Alpha  occ. eigenvalues --   -0.50707  -0.50389  -0.50232  -0.49710  -0.49275
 Alpha  occ. eigenvalues --   -0.48787  -0.48520  -0.48405  -0.48126  -0.47838
 Alpha  occ. eigenvalues --   -0.47683  -0.47483  -0.47004  -0.46737  -0.45866
 Alpha  occ. eigenvalues --   -0.45522  -0.45218  -0.44892  -0.44548  -0.43797
 Alpha  occ. eigenvalues --   -0.43433  -0.42929  -0.42488  -0.41986  -0.41610
 Alpha  occ. eigenvalues --   -0.41549  -0.41053  -0.40855  -0.40414  -0.40064
 Alpha  occ. eigenvalues --   -0.39800  -0.39100  -0.38384  -0.36973  -0.36341
 Alpha  occ. eigenvalues --   -0.35852  -0.34735  -0.34310  -0.33976  -0.33487
 Alpha  occ. eigenvalues --   -0.33298  -0.32584  -0.32462  -0.31948  -0.31911
 Alpha  occ. eigenvalues --   -0.30893  -0.30279  -0.29818  -0.26202  -0.25887
 Alpha virt. eigenvalues --   -0.00510   0.00468   0.01196   0.02127   0.02643
 Alpha virt. eigenvalues --    0.02851   0.03473   0.03907   0.04314   0.04641
 Alpha virt. eigenvalues --    0.05658   0.06788   0.08791   0.08896   0.09255
 Alpha virt. eigenvalues --    0.09713   0.09893   0.10518   0.10987   0.11575
 Alpha virt. eigenvalues --    0.11655   0.12034   0.12653   0.13310   0.13437
[...]
 Alpha virt. eigenvalues --    0.32469   0.33184   0.33369   0.33672   0.33935
 Alpha virt. eigenvalues --    0.34234   0.34334   0.34527   0.34793   0.34841
 Alpha virt. eigenvalues --    0.34934   0.35246   0.35350   0.35466   0.36181
 Alpha virt. eigenvalues --    0.36420   0.36768   0.37613   0.37764   0.37840
 Alpha virt. eigenvalues --    0.37940   0.38076   0.38256   0.38411   0.38840
 Alpha virt. eigenvalues --    0.39009   0.39304   0.39410   0.40138   0.40548
 Alpha virt. eigenvalues --    0.40716   0.40931   0.41142   0.41455   0.41608
 Alpha virt. eigenvalues --    0.41992   0.42092   0.42445   0.42582   0.42743
 Alpha virt. eigenvalues --    0.42781   0.42974   0.43139   0.43504   0.43751
 Alpha virt. eigenvalues --    0.43778   0.43921   0.44260   0.44295   0.44442
 Alpha virt. eigenvalues --    0.44511   0.44688   0.44799   0.44888   0.45332
 Alpha virt. eigenvalues --    0.45627   0.45765   0.45984   0.46032   0.46349
 Alpha virt. eigenvalues --    0.46525   0.46702   0.46778   0.47138   0.47911
 Alpha virt. eigenvalues --    0.48144   0.48524   0.48619   0.48695   0.49265
 Alpha virt. eigenvalues --    0.49523   0.49565   0.50161   0.50400   0.50496
 Alpha virt. eigenvalues --    0.50690   0.50945   0.50975   0.51221   0.51434
 Alpha virt. eigenvalues --    0.51509   0.51955   0.52687   0.52831   0.52915
 Alpha virt. eigenvalues --    0.53039   0.53276   0.53563   0.53669   0.53865
 Alpha virt. eigenvalues --    0.54055   0.54288   0.54365   0.54613   0.54894
 Alpha virt. eigenvalues --    0.55363   0.55454   0.55860   0.56493   0.56921
 Alpha virt. eigenvalues --    0.57216   0.57270   0.57637   0.57883   0.58283
 Alpha virt. eigenvalues --    0.59238   0.59374   0.59687   0.59778   0.60390
 Alpha virt. eigenvalues --    0.60515   0.60700   0.60860   0.61104   0.61776
 Alpha virt. eigenvalues --    0.62126   0.62268   0.62576   0.62657   0.62939
 Alpha virt. eigenvalues --    0.63059   0.63137   0.63291   0.63583   0.63833
 Alpha virt. eigenvalues --    0.64221   0.64358   0.65919   0.66616   0.66979
 Alpha virt. eigenvalues --    0.67118   0.67634   0.68280   0.68586   0.69402
 Alpha virt. eigenvalues --    0.69753   0.70336   0.71182   0.71410   0.71693
 Alpha virt. eigenvalues --    0.71985   0.72100   0.72364   0.72446   0.72554
 Alpha virt. eigenvalues --    0.72717   0.73036   0.73876   0.74089   0.74212
 Alpha virt. eigenvalues --    0.74383   0.74903   0.75249   0.75870   0.76198
 Alpha virt. eigenvalues --    0.76472   0.76575   0.76755   0.77297   0.77598
 Alpha virt. eigenvalues --    0.78674   0.78884   0.79106   0.79675   0.80205
 Alpha virt. eigenvalues --    0.80469   0.80894   0.81160   0.81410   0.81877
 Alpha virt. eigenvalues --    0.82390   0.82614   0.83750   0.84498   0.84695
 Alpha virt. eigenvalues --    0.85259   0.85606   0.86270   0.86481   0.87808
 Alpha virt. eigenvalues --    0.88048   0.88870   0.89387   0.89856   0.90237
 Alpha virt. eigenvalues --    0.91522   0.91808   0.92280   0.92742   0.92941
 Alpha virt. eigenvalues --    0.93158   0.94141   0.94481   0.96745   0.98285
 Alpha virt. eigenvalues --    0.98413   0.98467   1.01057   1.01237   1.18069
 Alpha virt. eigenvalues --    1.19665   1.20678   1.20737   1.20810   1.25658
 Alpha virt. eigenvalues --    1.25799   1.26271   1.26515   1.27084   1.27243
 Alpha virt. eigenvalues --    1.27356   1.27552   1.27900   1.28501   1.28526
 Alpha virt. eigenvalues --    1.28785   1.28950   1.29031   1.29259   1.29458
 Alpha virt. eigenvalues --    1.29567   1.29634   1.30886   1.31637   1.31767
 Alpha virt. eigenvalues --    1.32258   1.32508   1.32612   1.32850   1.33388
 Alpha virt. eigenvalues --    1.33583   1.33922   1.34572   1.34777   1.35058
 Alpha virt. eigenvalues --    1.35345   1.36198   1.36321   1.36634   1.36807
 Alpha virt. eigenvalues --    1.36977   1.37301   1.37488   1.37885   1.38044
 Alpha virt. eigenvalues --    1.38381   1.38659   1.38835   1.39072   1.39220
 Alpha virt. eigenvalues --    1.39285   1.39536   1.40635   1.41546   1.41760
 Alpha virt. eigenvalues --    1.42360   1.42497   1.44930   1.44982   1.45008
 Alpha virt. eigenvalues --    1.45112   1.45487   1.45691   1.45850   1.45922
 Alpha virt. eigenvalues --    1.46022   1.46111   1.46285   1.46426   1.46810
 Alpha virt. eigenvalues --    1.46979   1.47522   1.47851   1.47959   1.48109
 Alpha virt. eigenvalues --    1.48190   1.48439   1.48612   1.48860   1.49013
 Alpha virt. eigenvalues --    1.49388   1.49614   1.50136   1.50562   1.50852
 Alpha virt. eigenvalues --    1.51080   1.51130   1.51179   1.51536   1.51659
 Alpha virt. eigenvalues --    1.51865   1.52035   1.52305   1.52493   1.52616
 Alpha virt. eigenvalues --    1.52827   1.53196   1.54576   1.54734   1.55353
 Alpha virt. eigenvalues --    1.55427   1.55789   1.55939   1.56189   1.56356
 Alpha virt. eigenvalues --    1.56418   1.56546   1.56662   1.56722   1.56749
 Alpha virt. eigenvalues --    1.56860   1.57005   1.57584   1.57907   1.58019
 Alpha virt. eigenvalues --    1.58166   1.58237   1.58450   1.58609   1.59133
 Alpha virt. eigenvalues --    1.59456   1.60126   1.60181   1.60316   1.60379
 Alpha virt. eigenvalues --    1.60718   1.61122   1.61519   1.62033   1.62135
 Alpha virt. eigenvalues --    1.62476   1.62658   1.62759   1.63900   1.64264
 Alpha virt. eigenvalues --    1.64404   1.64561   1.65312   1.66061   1.66198
 Alpha virt. eigenvalues --    1.68181   1.68577   1.69395   1.69828   1.70687
 Alpha virt. eigenvalues --    1.70880   1.71139   1.71441   1.73107   1.73967
 Alpha virt. eigenvalues --    1.75282   1.75662   1.75698   1.76266   1.78046
 Alpha virt. eigenvalues --    1.78582   1.78800   1.79200   1.79381   1.79518
 Alpha virt. eigenvalues --    1.79810   1.80018   1.80380   1.80493   1.80936
 Alpha virt. eigenvalues --    1.81175   1.81524   1.81613   1.81869   1.82467
 Alpha virt. eigenvalues --    1.82570   1.82702   1.82981   1.83358   1.83566
 Alpha virt. eigenvalues --    1.83926   1.83942   1.84623   1.84954   1.85524
 Alpha virt. eigenvalues --    1.86173   1.86516   1.86736   1.87181   1.87984
 Alpha virt. eigenvalues --    1.88167   1.88936   1.88984   1.89082   1.89571
 Alpha virt. eigenvalues --    1.89608   1.90041   1.91088   1.91556   1.91986
 Alpha virt. eigenvalues --    1.92132   1.92290   1.92982   1.93656   1.93756
 Alpha virt. eigenvalues --    1.94059   1.94112   1.94575   1.94693   1.94919
 Alpha virt. eigenvalues --    1.95066   1.95246   1.95922   1.96013   1.96346
 Alpha virt. eigenvalues --    1.96509   1.96795   1.97834   1.98110   1.98699
 Alpha virt. eigenvalues --    1.99605   1.99664   2.00608   2.01621   2.01734
 Alpha virt. eigenvalues --    2.01808   2.02451   2.02612   2.02877   2.03153
 Alpha virt. eigenvalues --    2.03502   2.03629   2.04070   2.04762   2.05102
 Alpha virt. eigenvalues --    2.05480   2.06300   2.06522   2.07922   2.07990
 Alpha virt. eigenvalues --    2.09355   2.10073   2.10487   2.10635   2.11037
 Alpha virt. eigenvalues --    2.11420   2.11863   2.11959   2.12547   2.13655
 Alpha virt. eigenvalues --    2.14113   2.17060   2.18208   2.19065   2.19496
 Alpha virt. eigenvalues --    2.20997   2.21133   2.21240   2.21722   2.21881
 Alpha virt. eigenvalues --    2.22948   2.23282   2.23507   2.23655   2.24609
 Alpha virt. eigenvalues --    2.25457   2.25598   2.26432   2.26615   2.26673
 Alpha virt. eigenvalues --    2.27724   2.29744   2.29846   2.31896   2.32049
 Alpha virt. eigenvalues --    2.32481   2.32779   2.32835   2.32919   2.33147
 Alpha virt. eigenvalues --    2.33239   2.33429   2.33783   2.33982   2.34273
 Alpha virt. eigenvalues --    2.34654   2.34903   2.35350   2.35736   2.36057
 Alpha virt. eigenvalues --    2.36163   2.36323   2.36574   2.37330   2.37422
 Alpha virt. eigenvalues --    2.37751   2.38066   2.38949   2.38998   2.39114
 Alpha virt. eigenvalues --    2.39264   2.39375   2.39537   2.39664   2.39729
 Alpha virt. eigenvalues --    2.39916   2.40015   2.40076   2.40382   2.40980
 Alpha virt. eigenvalues --    2.41068   2.41566   2.41989   2.43615   2.45644
 Alpha virt. eigenvalues --    2.46203   2.46527   2.48469   2.49524   2.49661
 Alpha virt. eigenvalues --    2.49861   2.49890   2.49979   2.51050   2.51768
 Alpha virt. eigenvalues --    2.54635   2.54722   2.55857   2.56384   2.58002
 Alpha virt. eigenvalues --    2.58111   2.58426   2.58564   2.58920   2.60469
 Alpha virt. eigenvalues --    2.60668   2.60894   2.61264   2.61977   2.62259
 Alpha virt. eigenvalues --    2.62388   2.62687   2.62931   2.63032   2.63479
 Alpha virt. eigenvalues --    2.63696   2.64041   2.65768   2.65975   2.66270
 Alpha virt. eigenvalues --    2.66316   2.66396   2.67155   2.67412   2.68103
 Alpha virt. eigenvalues --    2.68473   2.69701   2.70012   2.70887   2.71502
 Alpha virt. eigenvalues --    2.71714   2.72258   2.73111   2.74991   2.75127
 Alpha virt. eigenvalues --    2.75538   2.75721   2.77175   2.77896   2.78165
 Alpha virt. eigenvalues --    2.78910   2.79238   2.80067   2.80698   2.80821
 Alpha virt. eigenvalues --    2.81337   2.82799   2.84239   2.84801   2.85320
 Alpha virt. eigenvalues --    2.85492   2.86582   2.87156   2.87535   2.87731
 Alpha virt. eigenvalues --    2.87983   2.88241   2.89783   2.90599   2.94295
 Alpha virt. eigenvalues --    2.94351   2.94369   2.94512   2.95135   2.95362
 Alpha virt. eigenvalues --    2.95595   2.95970   2.97216   2.97449   2.97873
 Alpha virt. eigenvalues --    2.98725   2.99702   2.99743   2.99786   2.99839
 Alpha virt. eigenvalues --    3.01416   3.01647   3.02527   3.02657   3.05113
 Alpha virt. eigenvalues --    3.05450   3.05488   3.05738   3.05806   3.06123
 Alpha virt. eigenvalues --    3.07205   3.07706   3.08718   3.08973   3.10050
 Alpha virt. eigenvalues --    3.10261   3.10484   3.10808   3.12454   3.13852
 Alpha virt. eigenvalues --    3.14254   3.14322   3.14478   3.15492   3.15950
 Alpha virt. eigenvalues --    3.16046   3.16158   3.16309   3.19317   3.19550
 Alpha virt. eigenvalues --    3.19829   3.20202   3.20218   3.21566   3.23926
 Alpha virt. eigenvalues --    3.24300   3.24638   3.24705   3.24934   3.25321
 Alpha virt. eigenvalues --    3.25756   3.26193   3.26239   3.27653   3.28202
 Alpha virt. eigenvalues --    3.29237   3.29814   3.30194   3.32154   3.32470
 Alpha virt. eigenvalues --    3.32551   3.34196   3.34922   3.36785   3.37148
 Alpha virt. eigenvalues --    3.38673   3.39109   3.39820   3.39831   3.39978
 Alpha virt. eigenvalues --    3.42170   3.42920   3.42976   3.46900   3.47221
 Alpha virt. eigenvalues --    3.53921   3.54068   3.55798   3.56973   3.57575
 Alpha virt. eigenvalues --    3.58673   3.58904   3.58958   3.60099   3.62360
 Alpha virt. eigenvalues --    3.70972   3.74260   3.84749   3.84915   3.88467
 Alpha virt. eigenvalues --    3.92755   4.06594   4.06655   4.07373   4.07496
 Alpha virt. eigenvalues --    4.30999   4.31081   4.31089   4.31173  21.16621
 Alpha virt. eigenvalues --   21.24290  21.24385  21.25812  21.26134  21.37273
 Alpha virt. eigenvalues --   21.68471  21.68664  21.68870  21.71645  21.72065
 Alpha virt. eigenvalues --   21.72442  21.75196  21.76361  21.78915  21.83409
 Alpha virt. eigenvalues --   21.83936  21.90031  21.90362  21.94389  21.94546
 Alpha virt. eigenvalues --   21.95180  21.96445  21.97182  21.97672  21.99841
 Alpha virt. eigenvalues --   22.01669  22.01989  22.02092  22.03582  22.07994
 Alpha virt. eigenvalues --   22.08807  22.13894  22.15091  22.15733  22.16326
 Alpha virt. eigenvalues --   32.05499  32.06515  43.23961  43.24074  43.24171
 Alpha virt. eigenvalues --   43.24250
          Condensed to atoms (all electrons):
 Mulliken charges:
               1
     1  C   -0.148345
     2  C    0.017041
     3  C   -0.151342
     4  C   -0.148287
     5  C    0.029571
     6  C   -0.151313
     7  H    0.119859
     8  H    0.145544
     9  H    0.121511
    10  C    0.029894
    11  C   -0.151497
    12  C   -0.151004
    13  C   -0.145673
    14  C   -0.149375
    15  C    0.012226
    16  H    0.121207
    17  H    0.121339
    18  H    0.145583
    19  H    0.144639
    20  H    0.145260
    21  N   -0.003681
    22  C   -0.113271
    23  C   -0.059531
    24  C   -0.084691
    25  C   -0.203433
    26  C   -0.176232
    27  C    0.118489
    28  H    0.135299
    29  H    0.143716
    30  H    0.117616
    31  H    0.107134
    32  C   -0.107276
    33  C   -0.081850
    34  C   -0.067229
    35  C   -0.173485
    36  C   -0.200184
    37  C    0.115373
    38  H    0.137026
    39  H    0.142393
    40  H    0.107690
    41  H    0.117810
    42  N   -0.002813
    43  C   -0.116278
    44  C   -0.081032
    45  C   -0.061550
    46  C   -0.174418
    47  C   -0.201278
    48  C    0.116078
    49  H    0.136400
    50  H    0.142068
    51  H    0.107933
    52  H    0.117792
    53  C   -0.114635
    54  C   -0.081741
    55  C   -0.062760
    56  C   -0.174393
    57  C   -0.201196
    58  C    0.115876
    59  H    0.136412
    60  H    0.142605
    61  H    0.107792
    62  H    0.117984
    63  O   -0.242716
    64  H    0.268436
    65  O   -0.242697
    66  H    0.268513
    67  O   -0.243033
    68  H    0.268502
    69  O   -0.242849
    70  H    0.268472
 Sum of Mulliken charges =  -0.00000
 Mulliken charges with hydrogens summed into heavy atoms:
               1
     1  C   -0.003085
     2  C    0.017041
     3  C   -0.031482
     4  C   -0.002743
     5  C    0.029571
     6  C   -0.029802
    10  C    0.029894
    11  C   -0.030289
    12  C   -0.029666
    13  C   -0.000090
    14  C   -0.004736
    15  C    0.012226
    21  N   -0.003681
    22  C   -0.113271
    23  C    0.075768
    24  C    0.059025
    25  C   -0.085817
    26  C   -0.069099
    27  C    0.118489
    32  C   -0.107276
    33  C    0.055176
    34  C    0.075164
    35  C   -0.065795
    36  C   -0.082374
    37  C    0.115373
    42  N   -0.002813
    43  C   -0.116278
    44  C    0.055368
    45  C    0.080518
    46  C   -0.066485
    47  C   -0.083487
    48  C    0.116078
    53  C   -0.114635
    54  C    0.054671
    55  C    0.079845
    56  C   -0.066600
    57  C   -0.083212
    58  C    0.115876
    63  O    0.025721
    65  O    0.025816
    67  O    0.025469
    69  O    0.025623
 Electronic spatial extent (au):  <R**2>=          43189.5802
 Charge=              0.0000 electrons
 Dipole moment (field-independent basis, Debye):
    X=              1.6806    Y=              0.4222    Z=             -2.0491  Tot=              2.6836
 Quadrupole moment (field-independent basis, Debye-Ang):
   XX=           -190.6887   YY=           -232.7900   ZZ=           -241.7402
   XY=              5.2448   XZ=             14.6968   YZ=            -12.0479
 Traceless Quadrupole moment (field-independent basis, Debye-Ang):
   XX=             31.0510   YY=            -11.0504   ZZ=            -20.0006
   XY=              5.2448   XZ=             14.6968   YZ=            -12.0479
 Octapole moment (field-independent basis, Debye-Ang**2):
  XXX=            345.6746  YYY=             38.7385  ZZZ=            -14.8174  XYY=             10.9043
  XXY=           -121.2264  XXZ=           -101.9566  XZZ=            -48.7022  YZZ=             34.7556
  YYZ=            -66.8238  XYZ=            -68.1482
 Hexadecapole moment (field-independent basis, Debye-Ang**3):
 XXXX=         -41375.3832 YYYY=          -9000.0694 ZZZZ=          -1562.6410 XXXY=           1602.7733
 XXXZ=            669.2537 YYYX=            -74.6747 YYYZ=           -370.6462 ZZZX=            115.6175
 ZZZY=            -82.2555 XXYY=          -8229.0173 XXZZ=          -8462.0618 YYZZ=          -1733.0304
 XXYZ=           -593.2714 YYXZ=            476.9789 ZZXY=           -258.1402
 N-N= 4.158510501449D+03 E-N=-1.250560791905D+04  KE= 1.789506803229D+03
 No NMR shielding tensors so no spin-rotation constants.
 Leave Link  601 at Mon Jan 18 03:26:58 2021, MaxMem=  4026531840 cpu:               6.2 elap:               1.0
 (Enter /opt/ohpc/pub/libs/gaussian/g16-A.03/sandybridge/g16/l9999.exe)

 Test job not archived.
 1\1\GINC-CASCADEB037\FOpt\RLC-wHPBE\TZVP\C36H28N2O4\RDU230\18-Jan-2021
 \0\\#P LC-wHPBE/TZVP iop(3/107=0185200000, 3/108=0185200000) opt\\H28 
 C36 N2 O4\\0,1\C,-0.3314125481,0.387268304,-0.9207288673\C,-1.27248995
 13,1.1804435238,-0.24672047\C,0.8761217253,0.0563010049,-0.3183484296\
 C,-0.9564174194,1.6319277664,1.0437582358\C,1.2049422234,0.5071639517,
 0.968143673\C,0.259851306,1.3041611806,1.630050662\H,1.5989223765,-0.5
 384607164,-0.8789372046\H,-1.6786466876,2.2363097976,1.592153477\H,0.4
 643477048,1.6464203024,2.6456468774\C,2.4977320554,0.1559605261,1.6018
 826922\C,3.1875852986,1.0715073732,2.4094065407\C,3.0815097462,-1.1060
 911059,1.4189358433\C,4.4031572167,0.7504717998,3.0012844371\C,4.29022
 30468,-1.4435120227,2.0150117906\C,4.9754038827,-0.5171093998,2.815992
 6261\H,2.7822290545,2.0748048071,2.5490621055\H,2.5582377437,-1.857788
 2447,0.8259876694\H,4.9247702095,1.4906194304,3.607712994\H,4.70813987
 44,-2.4397529208,1.871496695\H,-0.5490827451,0.0380984745,-1.929855920
 6\N,6.2071791683,-0.8535783334,3.4195970957\C,7.1319507851,-1.69804678
 8,2.74550659\C,7.7913192853,-2.7268321275,3.4322706146\C,7.4128918878,
 -1.513778399,1.3875424239\C,8.7105023929,-3.5430573254,2.785224577\C,8
 .3136925651,-2.3457633465,0.7282551281\C,8.9721154171,-3.3605533397,1.
 4257367685\H,7.5817128416,-2.8805488472,4.490900174\H,6.9121999156,-0.
 7153930268,0.8399530819\H,9.2244489806,-4.3410707004,3.3204762232\H,8.
 5165138951,-2.1893502943,-0.3341590262\C,6.5513340492,-0.3290597111,4.
 6959307373\C,7.8332044971,0.1745146838,4.9391409579\C,5.6183743736,-0.
 320018437,5.7425450137\C,8.1782472252,0.6652557892,6.1959063267\C,5.94
 95652338,0.1922764175,6.9901403997\C,7.2356014569,0.6837495221,7.22542
 13696\H,8.5711252771,0.172517778,4.1369843695\H,4.6176019261,-0.715350
 0434,5.5684500995\H,9.1865908535,1.0497535644,6.3681724811\H,5.2228009
 434,0.2015434441,7.8020358728\N,-2.5042020827,1.5153295044,-0.85071140
 47\C,-3.1131742864,2.7750764769,-0.5952565663\C,-4.4828384154,2.863209
 7088,-0.3263685591\C,-2.3582806213,3.9561541152,-0.6221302462\C,-5.085
 3376047,4.0980004667,-0.099771258\C,-2.9495440146,5.1876159231,-0.3712
 176637\C,-4.3199493435,5.2656195734,-0.1133770995\H,-5.0837471879,1.95
 41178727,-0.3030027051\H,-1.2906886262,3.9019865242,-0.8354222086\H,-6
 .1577239115,4.1472795609,0.1048293654\H,-2.361339373,6.1047697742,-0.3
 885693215\C,-3.1524476462,0.5979574768,-1.7230813657\C,-3.7047259965,1
 .0329675248,-2.9321594897\C,-3.2656459663,-0.7577636355,-1.3841917329\
 C,-4.3609342481,0.1409010181,-3.7763859343\C,-3.8964476716,-1.65638343
 2,-2.2348421512\C,-4.4530988983,-1.2098409156,-3.4353933323\H,-3.62624
 53389,2.0841689795,-3.2094625805\H,-2.8442991658,-1.1090429782,-0.4422
 572557\H,-4.7897208643,0.500298686,-4.7151561547\H,-3.9808568725,-2.71
 05959684,-1.9722181087\O,-5.0761329244,-2.1387730345,-4.2317347618\H,-
 5.4090469509,-1.6955598486,-5.0280185442\O,-4.8541572228,6.5096598681,
 0.1148838622\H,-5.8046951531,6.4157816653,0.2852226793\O,9.8800196858,
 -4.2035580054,0.8337578986\H,9.962052421,-3.9667350469,-0.1035361259\O
 ,7.5122088233,1.1657386163,8.4809752147\H,8.4324473737,1.4723722179,8.
 5027928446\\Version=EM64L-G16RevA.03\State=1-A\HF=-1798.0031572\RMSD=8
 .350e-09\RMSF=1.682e-06\Dipole=-0.1766562,0.5295833,-0.8961208\Quadrup
 ole=23.3887107,-21.8907073,-1.4980035,-3.5651551,8.4679072,5.1918767\P
 G=C01 [X(C36H28N2O4)]\\@


 THE WORLD OF CHEMICAL REACTIONS IS LIKE A STAGE,
 ON WHICH SCENE AFTER SCENE IS CEASELESSLY PLAYED.
 THE ACTORS ON IT ARE THE ELEMENTS.
   -- CLEMENS WINKLER   BER. 30,13(1897)
 (DISCOVERER OF GERMANIUM, FEB 6, 1886)
 Job cpu time:       1 days 21 hours 48 minutes 50.1 seconds.
 Elapsed time:       0 days  5 hours 49 minutes 28.3 seconds.
 File lengths (MBytes):  RWF=    632 Int=      0 D2E=      0 Chk=     76 Scr=      8
 Normal termination of Gaussian 16 at Mon Jan 18 03:26:58 2021.
