 Entering Gaussian System, Link 0=g16
 Input=mol_ta_pa_whol_tune_c1.gjf
 Output=mol_ta_pa_whol_tune_c1.log
 Initial command:
 /opt/ohpc/pub/libs/gaussian/g16-A.03/sandybridge/g16/l1.exe "/mnt/gpfs2_4m/scratch/rdu230/ondemand/projects/init_structures/gaussian/wtuning/mol_ta_pa_whol/tuning_mol_ta_pa_whol_ocycle0/Gau-20249.inp" -scrdir="/mnt/gpfs2_4m/scratch/rdu230/ondemand/projects/init_structures/gaussian/wtuning/mol_ta_pa_whol/tuning_mol_ta_pa_whol_ocycle0/"
 Entering Link 1 = /opt/ohpc/pub/libs/gaussian/g16-A.03/sandybridge/g16/l1.exe PID=     20250.
  
 Copyright (c) 1988,1990,1992,1993,1995,1998,2003,2009,2016,
            Gaussian, Inc.  All Rights Reserved.
  
 This is part of the Gaussian(R) 16 program.  It is based on
 the Gaussian(R) 09 system (copyright 2009, Gaussian, Inc.),
 the Gaussian(R) 03 system (copyright 2003, Gaussian, Inc.),
 the Gaussian(R) 98 system (copyright 1998, Gaussian, Inc.),
 the Gaussian(R) 94 system (copyright 1995, Gaussian, Inc.),
 the Gaussian 92(TM) system (copyright 1992, Gaussian, Inc.),
 the Gaussian 90(TM) system (copyright 1990, Gaussian, Inc.),
 the Gaussian 88(TM) system (copyright 1988, Gaussian, Inc.),
 the Gaussian 86(TM) system (copyright 1986, Carnegie Mellon
 University), and the Gaussian 82(TM) system (copyright 1983,
 Carnegie Mellon University). Gaussian is a federally registered
 trademark of Gaussian, Inc.
  
 This software contains proprietary and confidential information,
 including trade secrets, belonging to Gaussian, Inc.
  
 This software is provided under written license and may be
 used, copied, transmitted, or stored only in accord with that
 written license.
  
 The following legend is applicable only to US Government
 contracts under FAR:
  
                    RESTRICTED RIGHTS LEGEND
  
 Use, reproduction and disclosure by the US Government is
 subject to restrictions as set forth in subparagraphs (a)
 and (c) of the Commercial Computer Software - Restricted
 Rights clause in FAR 52.227-19.
  
 Gaussian, Inc.
 340 Quinnipiac St., Bldg. 40, Wallingford CT 06492
  
  
 ---------------------------------------------------------------
 Warning -- This program may not be used in any manner that
 competes with the business of Gaussian, Inc. or will provide
 assistance to any competitor of Gaussian, Inc.  The licensee
 of this program is prohibited from giving any competitor of
 Gaussian, Inc. access to this program.  By using this program,
 the user acknowledges that Gaussian, Inc. is engaged in the
 business of creating and licensing software in the field of
 computational chemistry and represents and warrants to the
 licensee that it is not a competitor of Gaussian, Inc. and that
 it will not use this program in any manner prohibited above.
 ---------------------------------------------------------------
  

 Cite this work as:
 Gaussian 16, Revision A.03,
 M. J. Frisch, G. W. Trucks, H. B. Schlegel, G. E. Scuseria, 
 M. A. Robb, J. R. Cheeseman, G. Scalmani, V. Barone, 
 G. A. Petersson, H. Nakatsuji, X. Li, M. Caricato, A. V. Marenich, 
 J. Bloino, B. G. Janesko, R. Gomperts, B. Mennucci, H. P. Hratchian, 
 J. V. Ortiz, A. F. Izmaylov, J. L. Sonnenberg, D. Williams-Young, 
 F. Ding, F. Lipparini, F. Egidi, J. Goings, B. Peng, A. Petrone, 
 T. Henderson, D. Ranasinghe, V. G. Zakrzewski, J. Gao, N. Rega, 
 G. Zheng, W. Liang, M. Hada, M. Ehara, K. Toyota, R. Fukuda, 
 J. Hasegawa, M. Ishida, T. Nakajima, Y. Honda, O. Kitao, H. Nakai, 
 T. Vreven, K. Throssell, J. A. Montgomery, Jr., J. E. Peralta, 
 F. Ogliaro, M. J. Bearpark, J. J. Heyd, E. N. Brothers, K. N. Kudin, 
 V. N. Staroverov, T. A. Keith, R. Kobayashi, J. Normand, 
 K. Raghavachari, A. P. Rendell, J. C. Burant, S. S. Iyengar, 
 J. Tomasi, M. Cossi, J. M. Millam, M. Klene, C. Adamo, R. Cammi, 
 J. W. Ochterski, R. L. Martin, K. Morokuma, O. Farkas, 
 J. B. Foresman, and D. J. Fox, Gaussian, Inc., Wallingford CT, 2016.
 
 ******************************************
 Gaussian 16:  EM64L-G16RevA.03 25-Dec-2016
                27-Jan-2021 
 ******************************************
 %mem=30GB
 %nproc=8
 Will use up to    8 processors via shared memory.
 ----------------------------------------------------------------------
 #P LC-wHPBE/TZVP iop(3/107=0328100000, 3/108=0328100000) scf=(conver=6
 ,fermi,ndamp=35,noincfock,novaracc,vshift=500,xqc)
 ----------------------------------------------------------------------
 1/38=1,172=1/1;
 2/12=2,17=6,18=5,40=1/2;
 3/5=19,7=101,11=2,25=1,30=1,74=-71,107=328100000,108=328100000/1,2,3;
 4//1;
 5/5=100002,6=6,8=3,10=500,13=1,18=-1,22=13,38=1,93=35/2,8;
 6/7=2,8=2,9=2,10=2,28=1/1;
 99/5=1,9=1/99;
 Leave Link    1 at Wed Jan 27 11:42:25 2021, MaxMem=  4026531840 cpu:               1.4 elap:               0.2
 (Enter /opt/ohpc/pub/libs/gaussian/g16-A.03/sandybridge/g16/l101.exe)
 -------------
 H28 C36 S2 N2
 -------------
 Symbolic Z-matrix:
 Charge =  1 Multiplicity = 2
 C                    -2.60495   0.98535  -0.4776 
 C                    -1.59547   1.22765  -1.3969 
 S                    -0.45975   2.55784  -1.07366 
 C                    -1.50998   0.46723  -2.56416 
 C                     1.04378   0.45573  -0.02172 
 C                     1.03833   1.6821   -0.66831 
 C                    -3.55759  -0.00175  -0.69717 
 C                    -2.44711  -0.53915  -2.76444 
 H                    -0.59632  -0.14267  -4.60505 
 C                     2.23873  -0.14765   0.3198 
 C                     2.24654   2.29783  -0.96192 
 C                     3.4421    1.69472  -0.62117 
 C                     3.4531    0.46292   0.02384 
 H                     2.23426  -1.10624   0.8278 
 H                     2.25393   3.24835  -1.48635 
 H                     4.38168   2.17824  -0.86646 
 C                    -3.46167  -0.76408  -1.85628 
 H                    -2.64667   1.58552   0.42472 
 H                     0.10694  -0.03264   0.22438 
 H                    -2.40424  -1.14624  -3.66328 
 H                    -4.19289  -1.54201  -2.04788 
 S                    -0.23356   0.81746  -3.73747 
 N                     4.67369  -0.15955   0.36875 
 C                     5.73251   0.61266   0.89656 
 C                     7.0457    0.37796   0.49945 
 C                     5.47587   1.62233   1.81957 
 C                     8.07874   1.13315   1.02456 
 C                     6.51287   2.38463   2.32621 
 C                     7.82031   2.14318   1.9369 
 H                     7.25165  -0.40367  -0.22406 
 H                     4.45483   1.8073    2.13612 
 H                     9.0974    0.93653   0.70487 
 H                     6.29513   3.16901   3.04442 
 H                     8.6322    2.7384    2.34134 
 C                     4.83705  -1.54815   0.16853 
 C                     5.51607  -2.32162   1.10579 
 C                     4.31902  -2.16354  -0.96749 
 C                     5.67999  -3.67983   0.90253 
 C                     4.47234  -3.52557  -1.15401 
 C                     5.15666  -4.29201  -0.22481 
 H                     5.9172   -1.84882   1.99595 
 H                     3.79167  -1.56607  -1.70365 
 H                     6.21321  -4.26806   1.64295 
 H                     4.06165  -3.98973  -2.04533 
 H                     5.28122  -5.35883  -0.3779 
 N                    -4.59137  -0.22524   0.23557 
 C                    -4.99681  -1.54462   0.53937 
 C                    -6.34593  -1.84946   0.69364 
 C                    -4.05361  -2.55701   0.68817 
 C                    -6.73855  -3.14012   0.99882 
 C                    -4.45592  -3.84892   0.97571 
 C                    -5.79871  -4.14859   1.13714 
 H                    -7.08584  -1.06498   0.57541 
 H                    -2.99978  -2.32462   0.57667 
 H                    -7.79475  -3.36103   1.1174 
 H                    -3.70742  -4.62708   1.08827 
 H                    -6.11071  -5.16122   1.36994 
 C                    -5.22846   0.87291   0.85935 
 C                    -5.54818   0.82477   2.2126 
 C                    -5.54192   2.01493   0.12913 
 C                    -6.17805   1.89709   2.81802 
 C                    -6.15512   3.09024   0.74651 
 C                    -6.48119   3.03723   2.09175 
 H                    -5.30093  -0.06162   2.78718 
 H                    -5.29956   2.05613  -0.92758 
 H                    -6.42172   1.84431   3.87453 
 H                    -6.3907    3.97529   0.16388 
 H                    -6.96763   3.87989   2.57161 
 
 ITRead=  0  0  0  0  0  0  0  0  0  0  0  0  0  0  0  0  0  0  0  0
 ITRead=  0  0  0  0  0  0  0  0  0  0  0  0  0  0  0  0  0  0  0  0
 ITRead=  0  0  0  0  0  0  0  0  0  0  0  0  0  0  0  0  0  0  0  0
 ITRead=  0  0  0  0  0  0  0  0
 MicOpt= -1 -1 -1 -1 -1 -1 -1 -1 -1 -1 -1 -1 -1 -1 -1 -1 -1 -1 -1 -1
 MicOpt= -1 -1 -1 -1 -1 -1 -1 -1 -1 -1 -1 -1 -1 -1 -1 -1 -1 -1 -1 -1
 MicOpt= -1 -1 -1 -1 -1 -1 -1 -1 -1 -1 -1 -1 -1 -1 -1 -1 -1 -1 -1 -1
 MicOpt= -1 -1 -1 -1 -1 -1 -1 -1
 NAtoms=     68 NQM=       68 NQMF=       0 NMMI=      0 NMMIF=      0
                NMic=       0 NMicF=      0.
                    Isotopes and Nuclear Properties:
 (Nuclear quadrupole moments (NQMom) in fm**2, nuclear magnetic moments (NMagM)
  in nuclear magnetons)

  Atom         1           2           3           4           5           6           7           8           9          10
 IAtWgt=          12          12          32          12          12          12          12          12           1          12
 AtmWgt=  12.0000000  12.0000000  31.9720718  12.0000000  12.0000000  12.0000000  12.0000000  12.0000000   1.0078250  12.0000000
 NucSpn=           0           0           0           0           0           0           0           0           1           0
 AtZEff=  -0.0000000  -0.0000000  -0.0000000  -0.0000000  -0.0000000  -0.0000000  -0.0000000  -0.0000000  -0.0000000  -0.0000000
 NQMom=    0.0000000   0.0000000   0.0000000   0.0000000   0.0000000   0.0000000   0.0000000   0.0000000   0.0000000   0.0000000
 NMagM=    0.0000000   0.0000000   0.0000000   0.0000000   0.0000000   0.0000000   0.0000000   0.0000000   2.7928460   0.0000000
 AtZNuc=   6.0000000   6.0000000  16.0000000   6.0000000   6.0000000   6.0000000   6.0000000   6.0000000   1.0000000   6.0000000

  Atom        11          12          13          14          15          16          17          18          19          20
 IAtWgt=          12          12          12           1           1           1          12           1           1           1
 AtmWgt=  12.0000000  12.0000000  12.0000000   1.0078250   1.0078250   1.0078250  12.0000000   1.0078250   1.0078250   1.0078250
 NucSpn=           0           0           0           1           1           1           0           1           1           1
 AtZEff=  -0.0000000  -0.0000000  -0.0000000  -0.0000000  -0.0000000  -0.0000000  -0.0000000  -0.0000000  -0.0000000  -0.0000000
 NQMom=    0.0000000   0.0000000   0.0000000   0.0000000   0.0000000   0.0000000   0.0000000   0.0000000   0.0000000   0.0000000
 NMagM=    0.0000000   0.0000000   0.0000000   2.7928460   2.7928460   2.7928460   0.0000000   2.7928460   2.7928460   2.7928460
 AtZNuc=   6.0000000   6.0000000   6.0000000   1.0000000   1.0000000   1.0000000   6.0000000   1.0000000   1.0000000   1.0000000

  Atom        21          22          23          24          25          26          27          28          29          30
 IAtWgt=           1          32          14          12          12          12          12          12          12           1
 AtmWgt=   1.0078250  31.9720718  14.0030740  12.0000000  12.0000000  12.0000000  12.0000000  12.0000000  12.0000000   1.0078250
 NucSpn=           1           0           2           0           0           0           0           0           0           1
 AtZEff=  -0.0000000  -0.0000000  -0.0000000  -0.0000000  -0.0000000  -0.0000000  -0.0000000  -0.0000000  -0.0000000  -0.0000000
 NQMom=    0.0000000   0.0000000   2.0440000   0.0000000   0.0000000   0.0000000   0.0000000   0.0000000   0.0000000   0.0000000
 NMagM=    2.7928460   0.0000000   0.4037610   0.0000000   0.0000000   0.0000000   0.0000000   0.0000000   0.0000000   2.7928460
 AtZNuc=   1.0000000  16.0000000   7.0000000   6.0000000   6.0000000   6.0000000   6.0000000   6.0000000   6.0000000   1.0000000

  Atom        31          32          33          34          35          36          37          38          39          40
 IAtWgt=           1           1           1           1          12          12          12          12          12          12
 AtmWgt=   1.0078250   1.0078250   1.0078250   1.0078250  12.0000000  12.0000000  12.0000000  12.0000000  12.0000000  12.0000000
 NucSpn=           1           1           1           1           0           0           0           0           0           0
 AtZEff=  -0.0000000  -0.0000000  -0.0000000  -0.0000000  -0.0000000  -0.0000000  -0.0000000  -0.0000000  -0.0000000  -0.0000000
 NQMom=    0.0000000   0.0000000   0.0000000   0.0000000   0.0000000   0.0000000   0.0000000   0.0000000   0.0000000   0.0000000
 NMagM=    2.7928460   2.7928460   2.7928460   2.7928460   0.0000000   0.0000000   0.0000000   0.0000000   0.0000000   0.0000000
 AtZNuc=   1.0000000   1.0000000   1.0000000   1.0000000   6.0000000   6.0000000   6.0000000   6.0000000   6.0000000   6.0000000

  Atom        41          42          43          44          45          46          47          48          49          50
 IAtWgt=           1           1           1           1           1          14          12          12          12          12
 AtmWgt=   1.0078250   1.0078250   1.0078250   1.0078250   1.0078250  14.0030740  12.0000000  12.0000000  12.0000000  12.0000000
 NucSpn=           1           1           1           1           1           2           0           0           0           0
 AtZEff=  -0.0000000  -0.0000000  -0.0000000  -0.0000000  -0.0000000  -0.0000000  -0.0000000  -0.0000000  -0.0000000  -0.0000000
 NQMom=    0.0000000   0.0000000   0.0000000   0.0000000   0.0000000   2.0440000   0.0000000   0.0000000   0.0000000   0.0000000
 NMagM=    2.7928460   2.7928460   2.7928460   2.7928460   2.7928460   0.4037610   0.0000000   0.0000000   0.0000000   0.0000000
 AtZNuc=   1.0000000   1.0000000   1.0000000   1.0000000   1.0000000   7.0000000   6.0000000   6.0000000   6.0000000   6.0000000

  Atom        51          52          53          54          55          56          57          58          59          60
 IAtWgt=          12          12           1           1           1           1           1          12          12          12
 AtmWgt=  12.0000000  12.0000000   1.0078250   1.0078250   1.0078250   1.0078250   1.0078250  12.0000000  12.0000000  12.0000000
 NucSpn=           0           0           1           1           1           1           1           0           0           0
 AtZEff=  -0.0000000  -0.0000000  -0.0000000  -0.0000000  -0.0000000  -0.0000000  -0.0000000  -0.0000000  -0.0000000  -0.0000000
 NQMom=    0.0000000   0.0000000   0.0000000   0.0000000   0.0000000   0.0000000   0.0000000   0.0000000   0.0000000   0.0000000
 NMagM=    0.0000000   0.0000000   2.7928460   2.7928460   2.7928460   2.7928460   2.7928460   0.0000000   0.0000000   0.0000000
 AtZNuc=   6.0000000   6.0000000   1.0000000   1.0000000   1.0000000   1.0000000   1.0000000   6.0000000   6.0000000   6.0000000

  Atom        61          62          63          64          65          66          67          68
 IAtWgt=          12          12          12           1           1           1           1           1
 AtmWgt=  12.0000000  12.0000000  12.0000000   1.0078250   1.0078250   1.0078250   1.0078250   1.0078250
 NucSpn=           0           0           0           1           1           1           1           1
 AtZEff=  -0.0000000  -0.0000000  -0.0000000  -0.0000000  -0.0000000  -0.0000000  -0.0000000  -0.0000000
 NQMom=    0.0000000   0.0000000   0.0000000   0.0000000   0.0000000   0.0000000   0.0000000   0.0000000
 NMagM=    0.0000000   0.0000000   0.0000000   2.7928460   2.7928460   2.7928460   2.7928460   2.7928460
 AtZNuc=   6.0000000   6.0000000   6.0000000   1.0000000   1.0000000   1.0000000   1.0000000   1.0000000
 Leave Link  101 at Wed Jan 27 11:42:26 2021, MaxMem=  4026531840 cpu:               0.8 elap:               0.1
 (Enter /opt/ohpc/pub/libs/gaussian/g16-A.03/sandybridge/g16/l202.exe)
 Stoichiometry    C36H28N2S2(1+,2)
 Framework group  C1[X(C36H28N2S2)]
 Deg. of freedom   198
 Full point group                 C1      NOp   1
 Largest Abelian subgroup         C1      NOp   1
 Largest concise Abelian subgroup C1      NOp   1
                         Standard orientation:                         
 ---------------------------------------------------------------------
 Center     Atomic      Atomic             Coordinates (Angstroms)
 Number     Number       Type             X           Y           Z
 ---------------------------------------------------------------------
      1          6           0       -2.604951   -0.985352    0.477595
      2          6           0       -1.595468   -1.227646    1.396897
      3         16           0       -0.459746   -2.557842    1.073663
      4          6           0       -1.509976   -0.467226    2.564163
      5          6           0        1.043777   -0.455726    0.021717
      6          6           0        1.038330   -1.682104    0.668307
      7          6           0       -3.557585    0.001751    0.697168
      8          6           0       -2.447111    0.539154    2.764444
      9          1           0       -0.596318    0.142670    4.605045
     10          6           0        2.238728    0.147647   -0.319798
     11          6           0        2.246539   -2.297832    0.961919
     12          6           0        3.442101   -1.694718    0.621166
     13          6           0        3.453096   -0.462920   -0.023837
     14          1           0        2.234263    1.106243   -0.827797
     15          1           0        2.253931   -3.248348    1.486346
     16          1           0        4.381679   -2.178238    0.866461
     17          6           0       -3.461673    0.764082    1.856276
     18          1           0       -2.646669   -1.585519   -0.424718
     19          1           0        0.106936    0.032641   -0.224382
     20          1           0       -2.404245    1.146243    3.663282
     21          1           0       -4.192893    1.542008    2.047877
     22         16           0       -0.233558   -0.817463    3.737465
     23          7           0        4.673686    0.159547   -0.368747
     24          6           0        5.732508   -0.612661   -0.896564
     25          6           0        7.045695   -0.377960   -0.499452
     26          6           0        5.475865   -1.622329   -1.819567
     27          6           0        8.078745   -1.133154   -1.024558
     28          6           0        6.512871   -2.384632   -2.326214
     29          6           0        7.820306   -2.143178   -1.936900
     30          1           0        7.251646    0.403669    0.224060
     31          1           0        4.454830   -1.807304   -2.136118
     32          1           0        9.097402   -0.936530   -0.704866
     33          1           0        6.295127   -3.169013   -3.044416
     34          1           0        8.632202   -2.738403   -2.341339
     35          6           0        4.837054    1.548147   -0.168533
     36          6           0        5.516065    2.321618   -1.105787
     37          6           0        4.319017    2.163542    0.967486
     38          6           0        5.679987    3.679833   -0.902534
     39          6           0        4.472338    3.525567    1.154010
     40          6           0        5.156657    4.292005    0.224805
     41          1           0        5.917204    1.848815   -1.995947
     42          1           0        3.791670    1.566068    1.703651
     43          1           0        6.213214    4.268058   -1.642948
     44          1           0        4.061647    3.989730    2.045325
     45          1           0        5.281223    5.358830    0.377899
     46          7           0       -4.591369    0.225236   -0.235572
     47          6           0       -4.996809    1.544618   -0.539366
     48          6           0       -6.345932    1.849462   -0.693639
     49          6           0       -4.053605    2.557013   -0.688173
     50          6           0       -6.738551    3.140118   -0.998819
     51          6           0       -4.455920    3.848924   -0.975713
     52          6           0       -5.798707    4.148587   -1.137139
     53          1           0       -7.085839    1.064984   -0.575406
     54          1           0       -2.999778    2.324624   -0.576668
     55          1           0       -7.794748    3.361033   -1.117399
     56          1           0       -3.707423    4.627077   -1.088273
     57          1           0       -6.110711    5.161215   -1.369943
     58          6           0       -5.228462   -0.872905   -0.859345
     59          6           0       -5.548183   -0.824769   -2.212595
     60          6           0       -5.541916   -2.014931   -0.129127
     61          6           0       -6.178047   -1.897088   -2.818017
     62          6           0       -6.155123   -3.090236   -0.746513
     63          6           0       -6.481192   -3.037227   -2.091754
     64          1           0       -5.300925    0.061617   -2.787177
     65          1           0       -5.299559   -2.056134    0.927579
     66          1           0       -6.421719   -1.844307   -3.874525
     67          1           0       -6.390696   -3.975287   -0.163884
     68          1           0       -6.967632   -3.879890   -2.571608
 ---------------------------------------------------------------------
 Rotational constants (GHZ):           0.1314912           0.0372042           0.0344004
 Leave Link  202 at Wed Jan 27 11:42:26 2021, MaxMem=  4026531840 cpu:               0.1 elap:               0.0
 (Enter /opt/ohpc/pub/libs/gaussian/g16-A.03/sandybridge/g16/l301.exe)
 Standard basis: TZVP (5D, 7F)
 Ernie: Thresh=  0.10000D-02 Tol=  0.10000D-05 Strict=F.
 There are   974 symmetry adapted cartesian basis functions of A   symmetry.
 There are   934 symmetry adapted basis functions of A   symmetry.
   934 basis functions,  1648 primitive gaussians,   974 cartesian basis functions
   145 alpha electrons      144 beta electrons
       nuclear repulsion energy      4395.1421619507 Hartrees.
 IExCor=33909 DFT=T Ex+Corr=LC-wHPBE ExCW=0 ScaHFX=  1.000000
 ScaDFX=  1.000000  1.000000  1.000000  1.000000 ScalE2=  1.000000  1.000000
 IRadAn=      5 IRanWt=     -1 IRanGd=            0 ICorTp=0 IEmpDi=  4
 HFx  wShort=  0.000000 wLong=  0.328100 cFull=  0.000000 cShort=  0.000000 cLong=  1.000000
 DFx  wShort=  0.000000 wLong=  0.328100 cFull=  0.000000 cShort=  1.000000 cLong=  0.000000
 NAtoms=   68 NActive=   68 NUniq=   68 SFac= 1.00D+00 NAtFMM=   60 NAOKFM=T Big=T
 Integral buffers will be    131072 words long.
 Raffenetti 2 integral format.
 Two-electron integral symmetry is turned on.
 Leave Link  301 at Wed Jan 27 11:42:26 2021, MaxMem=  4026531840 cpu:               0.4 elap:               0.1
 (Enter /opt/ohpc/pub/libs/gaussian/g16-A.03/sandybridge/g16/l302.exe)
 NPDir=0 NMtPBC=     1 NCelOv=     1 NCel=       1 NClECP=     1 NCelD=      1
         NCelK=      1 NCelE2=     1 NClLst=     1 CellRange=     0.0.
 One-electron integrals computed using PRISM.
 One-electron integral symmetry used in STVInt
 NBasis=   934 RedAO= T EigKep=  5.84D-06  NBF=   934
 NBsUse=   934 1.00D-06 EigRej= -1.00D+00 NBFU=   934
 Precomputing XC quadrature grid using
 IXCGrd= 4 IRadAn=           5 IRanWt=          -1 IRanGd=           0 AccXCQ= 0.00D+00.
 Generated NRdTot=       0 NPtTot=           0 NUsed=           0 NTot=          32
 NSgBfM=   919   919   919   919   919 MxSgAt=    68 MxSgA2=    68.
 Leave Link  302 at Wed Jan 27 11:42:29 2021, MaxMem=  4026531840 cpu:              25.6 elap:               3.2
 (Enter /opt/ohpc/pub/libs/gaussian/g16-A.03/sandybridge/g16/l303.exe)
 DipDrv:  MaxL=1.
 Leave Link  303 at Wed Jan 27 11:42:29 2021, MaxMem=  4026531840 cpu:               1.9 elap:               0.3
 (Enter /opt/ohpc/pub/libs/gaussian/g16-A.03/sandybridge/g16/l401.exe)
 ExpMin= 9.52D-02 ExpMax= 6.07D+04 ExpMxC= 2.07D+03 IAcc=3 IRadAn=         5 AccDes= 0.00D+00
 Harris functional with IExCor=33909 and IRadAn=       5 diagonalized for initial guess.
 HarFok:  IExCor=33909 AccDes= 0.00D+00 IRadAn=         5 IDoV= 1 UseB2=F ITyADJ=14
 ICtDFT=  3500011 ScaDFX=  1.000000  1.000000  1.000000  1.000000
 FoFCou: FMM=F IPFlag=           0 FMFlag=      100000 FMFlg1=        2001
         NFxFlg=           0 DoJE=T BraDBF=F KetDBF=T FulRan=T
         wScrn=  0.000000 ICntrl=       500 IOpCl=  0 I1Cent=   200000004 NGrid=           0
         NMat0=    1 NMatS0=      1 NMatT0=    0 NMatD0=    1 NMtDS0=    0 NMtDT0=    0
 Petite list used in FoFCou.
 Harris En= -2244.98783071647    
 JPrj=0 DoOrth=F DoCkMO=F.
 Initial guess <Sx>= 0.0000 <Sy>= 0.0000 <Sz>= 0.5000 <S**2>= 0.7500 S= 0.5000
 Leave Link  401 at Wed Jan 27 11:42:45 2021, MaxMem=  4026531840 cpu:             124.1 elap:              15.6
 (Enter /opt/ohpc/pub/libs/gaussian/g16-A.03/sandybridge/g16/l502.exe)
 Integral symmetry usage will be decided dynamically.
 UHF open shell SCF:
 Using DIIS extrapolation, IDIIS=    10.
 NGot=  4026531840 LenX=  4024617300 LenY=  4023667650
 Requested convergence on RMS density matrix=1.00D-06 within  32 cycles.
 Requested convergence on MAX density matrix=1.00D-04.
 Requested convergence on             energy=1.00D-04.
 Virtual orbitals will be shifted by   0.500 hartree.
 No special actions if energy rises.
 Dynamic level shift is on during FON iterations.

 Cycle   1  Pass 1  IDiag  1:
 FoFJK:  IHMeth= 1 ICntrl=       0 DoSepK=T KAlg= 0 I1Cent=           0 FoldK=F
 IRaf=         1 NMat=       1 IRICut=       1 DoRegI=T DoRafI=F ISym2E= 0 IDoP0=0 IntGTp=1.
 FoFCou: FMM=T IPFlag=           0 FMFlag=      100000 FMFlg1=        2001
         NFxFlg=           0 DoJE=T BraDBF=F KetDBF=F FulRan=T
         wScrn=  0.000000 ICntrl=       500 IOpCl=  0 I1Cent=           0 NGrid=           0
         NMat0=    1 NMatS0=      1 NMatT0=    0 NMatD0=    1 NMtDS0=    0 NMtDT0=    0
 Symmetry not used in FoFCou.
 FMM levels:  10  Number of levels for PrismC:   9
 E= -2292.67559067956    
 DIIS: error= 2.49D-02 at cycle   1 NSaved=   1.
 NSaved= 1 IEnMin= 1 EnMin= -2292.67559067956     IErMin= 1 ErrMin= 2.49D-02
 ErrMax= 2.49D-02  0.00D+00 EMaxC= 1.00D+00 BMatC= 2.59D+00 BMatP= 2.59D+00
 IDIUse=1 WtCom= 1.00D+00 WtEn= 0.00D+00
 Coeff-Com:  0.100D+01
 Coeff:      0.100D+01
 Gap=     0.511 Goal=   None    Shift=    0.500
 T= 1384. Gap= 0.648 NK=0 IS=  146 IE=  934 IFin=  145
          NO(<0.9)=   0  NV(>0.1)=   0    145.00e < EF      0.00e >EF  Err=0.0D+00
 Gap=     0.125 Goal=   None    Shift=    0.500
 T= 1384. Gap= 0.457 NK=0 IS=  145 IE=  934 IFin=  144
          NO(<0.9)=   0  NV(>0.1)=   0    144.00e < EF      0.00e >EF  Err=0.0D+00
 GapD=    0.125 DampG=1.000 DampE=0.500 DampFc=0.5000 IDamp=-1.
 Damping current iteration by 5.00D-01
 RMSDP=2.98D-03 MaxDP=3.13D-01              OVMax= 9.23D-02

 Cycle   2  Pass 1  IDiag  1:
 E= -2293.06075292241     Delta-E=       -0.385162242846 Rises=F Damp=T
 DIIS: error= 1.09D-02 at cycle   2 NSaved=   2.
 NSaved= 2 IEnMin= 2 EnMin= -2293.06075292241     IErMin= 2 ErrMin= 1.09D-02
 ErrMax= 1.09D-02  0.00D+00 EMaxC= 1.00D+00 BMatC= 4.49D-01 BMatP= 2.59D+00
 IDIUse=1 WtCom= 1.00D+00 WtEn= 0.00D+00
 Coeff-Com: -0.583D+00 0.158D+01
 Coeff:     -0.583D+00 0.158D+01
 Gap=     0.286 Goal=   None    Shift=    0.500
 T= 1259. Gap= 0.730 NK=0 IS=  146 IE=  934 IFin=  145
          NO(<0.9)=   0  NV(>0.1)=   0    145.00e < EF      0.00e >EF  Err=0.0D+00
 Gap=     0.077 Goal=   None    Shift=    0.500
 T= 1259. Gap= 0.558 NK=0 IS=  145 IE=  934 IFin=  144
          NO(<0.9)=   0  NV(>0.1)=   0    144.00e < EF      0.00e >EF  Err=0.0D+00
 GapD=    0.077 DampG=0.500 DampE=0.500 DampFc=0.2500 IDamp=-1.
 Damping current iteration by 2.50D-01
 RMSDP=2.20D-03 MaxDP=2.35D-01 DE=-3.85D-01 OVMax= 4.24D-02

 Cycle   3  Pass 1  IDiag  1:
 E= -2293.13240288670     Delta-E=       -0.071649964286 Rises=F Damp=T
 DIIS: error= 8.71D-03 at cycle   3 NSaved=   3.
 NSaved= 3 IEnMin= 3 EnMin= -2293.13240288670     IErMin= 3 ErrMin= 8.71D-03
 ErrMax= 8.71D-03  0.00D+00 EMaxC= 1.00D+00 BMatC= 2.36D-01 BMatP= 4.49D-01
 IDIUse=1 WtCom= 1.00D+00 WtEn= 0.00D+00
 Coeff-Com:  0.712D-01-0.290D+01 0.383D+01
 Coeff:      0.712D-01-0.290D+01 0.383D+01
 Gap=     0.265 Goal=   None    Shift=    0.500
 T= 1073. Gap= 0.764 NK=0 IS=  146 IE=  934 IFin=  145
          NO(<0.9)=   0  NV(>0.1)=   0    145.00e < EF      0.00e >EF  Err=0.0D+00
 Gap=     0.084 Goal=   None    Shift=    0.500
 T= 1073. Gap= 0.583 NK=0 IS=  145 IE=  934 IFin=  144
          NO(<0.9)=   0  NV(>0.1)=   0    144.00e < EF      0.00e >EF  Err=0.0D+00
 GapD=    0.084 DampG=0.500 DampE=1.000 DampFc=0.5000 IDamp=-1.
 Damping current iteration by 5.00D-01
 RMSDP=2.06D-03 MaxDP=2.17D-01 DE=-7.16D-02 OVMax= 2.09D-02

 Cycle   4  Pass 1  IDiag  1:
 E= -2293.22933768732     Delta-E=       -0.096934800623 Rises=F Damp=T
 DIIS: error= 6.10D-03 at cycle   4 NSaved=   4.
 NSaved= 4 IEnMin= 4 EnMin= -2293.22933768732     IErMin= 4 ErrMin= 6.10D-03
 ErrMax= 6.10D-03  0.00D+00 EMaxC= 1.00D+00 BMatC= 5.73D-02 BMatP= 2.36D-01
 IDIUse=1 WtCom= 1.00D+00 WtEn= 0.00D+00
 Coeff-Com:  0.764D-01-0.500D-01-0.123D+01 0.220D+01
 Coeff:      0.764D-01-0.500D-01-0.123D+01 0.220D+01
 Gap=     0.267 Goal=   None    Shift=    0.500
 T=  744. Gap= 0.767 NK=0 IS=  146 IE=  934 IFin=  145
          NO(<0.9)=   0  NV(>0.1)=   0    145.00e < EF      0.00e >EF  Err=0.0D+00
 Gap=     0.084 Goal=   None    Shift=    0.500
 T=  744. Gap= 0.584 NK=0 IS=  145 IE=  934 IFin=  144
          NO(<0.9)=   0  NV(>0.1)=   0    144.00e < EF      0.00e >EF  Err=0.0D+00
 GapD=    0.084 DampG=0.500 DampE=1.000 DampFc=0.5000 IDamp=-1.
 Damping current iteration by 5.00D-01
 RMSDP=1.24D-03 MaxDP=1.26D-01 DE=-9.69D-02 OVMax= 2.17D-02

 Cycle   5  Pass 1  IDiag  1:
 E= -2293.27515985993     Delta-E=       -0.045822172612 Rises=F Damp=T
 DIIS: error= 4.60D-03 at cycle   5 NSaved=   5.
 NSaved= 5 IEnMin= 5 EnMin= -2293.27515985993     IErMin= 5 ErrMin= 4.60D-03
 ErrMax= 4.60D-03  0.00D+00 EMaxC= 1.00D+00 BMatC= 1.56D-02 BMatP= 5.73D-02
 IDIUse=1 WtCom= 1.00D+00 WtEn= 0.00D+00
 Coeff-Com: -0.149D-01 0.634D+00-0.562D+00-0.203D+01 0.297D+01
 Coeff:     -0.149D-01 0.634D+00-0.562D+00-0.203D+01 0.297D+01
 Gap=     0.270 Goal=   None    Shift=    0.500
 T=  576. Gap= 0.771 NK=0 IS=  146 IE=  934 IFin=  145
          NO(<0.9)=   0  NV(>0.1)=   0    145.00e < EF      0.00e >EF  Err=0.0D+00
 Gap=     0.085 Goal=   None    Shift=    0.500
 T=  576. Gap= 0.586 NK=0 IS=  145 IE=  934 IFin=  144
          NO(<0.9)=   0  NV(>0.1)=   0    144.00e < EF      0.00e >EF  Err=0.0D+00
 GapD=    0.085 DampG=0.500 DampE=1.000 DampFc=0.5000 IDamp=-1.
 Damping current iteration by 5.00D-01
 RMSDP=7.38D-04 MaxDP=7.57D-02 DE=-4.58D-02 OVMax= 2.08D-02

 Cycle   6  Pass 1  IDiag  1:
 E= -2293.29834649152     Delta-E=       -0.023186631586 Rises=F Damp=T
 DIIS: error= 3.78D-03 at cycle   6 NSaved=   6.
 NSaved= 6 IEnMin= 6 EnMin= -2293.29834649152     IErMin= 6 ErrMin= 3.78D-03
 ErrMax= 3.78D-03  0.00D+00 EMaxC= 1.00D+00 BMatC= 4.92D-03 BMatP= 1.56D-02
 IDIUse=1 WtCom= 1.00D+00 WtEn= 0.00D+00
 Coeff-Com: -0.229D-01 0.857D-01 0.210D+00 0.770D-01-0.316D+01 0.381D+01
 Coeff:     -0.229D-01 0.857D-01 0.210D+00 0.770D-01-0.316D+01 0.381D+01
 Gap=     0.273 Goal=   None    Shift=    0.500
 T=  400. Gap= 0.773 NK=0 IS=  146 IE=  934 IFin=  145
          NO(<0.9)=   0  NV(>0.1)=   0    145.00e < EF      0.00e >EF  Err=0.0D+00
 Gap=     0.086 Goal=   None    Shift=    0.500
 T=  400. Gap= 0.587 NK=0 IS=  145 IE=  934 IFin=  144
          NO(<0.9)=   0  NV(>0.1)=   0    144.00e < EF      0.00e >EF  Err=0.0D+00
 GapD=    0.086 DampG=0.500 DampE=1.000 DampFc=0.5000 IDamp=-1.
 Damping current iteration by 5.00D-01
 RMSDP=4.36D-04 MaxDP=4.78D-02 DE=-2.32D-02 OVMax= 2.11D-02

 Cycle   7  Pass 1  IDiag  1:
 E= -2293.31057519601     Delta-E=       -0.012228704490 Rises=F Damp=T
 DIIS: error= 3.31D-03 at cycle   7 NSaved=   7.
 NSaved= 7 IEnMin= 7 EnMin= -2293.31057519601     IErMin= 7 ErrMin= 3.31D-03
 ErrMax= 3.31D-03  0.00D+00 EMaxC= 1.00D+00 BMatC= 1.88D-03 BMatP= 4.92D-03
 IDIUse=1 WtCom= 1.00D+00 WtEn= 0.00D+00
 Coeff-Com: -0.881D-03-0.187D+00 0.222D+00 0.826D+00-0.136D+01-0.219D+01
 Coeff-Com:  0.369D+01
 Coeff:     -0.881D-03-0.187D+00 0.222D+00 0.826D+00-0.136D+01-0.219D+01
 Coeff:      0.369D+01
 Gap=     0.273 Goal=   None    Shift=    0.500
 T=  272. Gap= 0.773 NK=0 IS=  146 IE=  934 IFin=  145
          NO(<0.9)=   0  NV(>0.1)=   0    145.00e < EF      0.00e >EF  Err=0.0D+00
 Gap=     0.086 Goal=   None    Shift=    0.500
 T=  272. Gap= 0.586 NK=0 IS=  145 IE=  934 IFin=  144
          NO(<0.9)=   0  NV(>0.1)=   0    144.00e < EF      0.00e >EF  Err=0.0D+00
 GapD=    0.086 DampG=0.500 DampE=1.000 DampFc=0.5000 IDamp=-1.
 Damping current iteration by 5.00D-01
 RMSDP=2.73D-04 MaxDP=3.10D-02 DE=-1.22D-02 OVMax= 2.10D-02

 Cycle   8  Pass 1  IDiag  1:
 E= -2293.31725645456     Delta-E=       -0.006681258556 Rises=F Damp=T
 DIIS: error= 3.00D-03 at cycle   8 NSaved=   8.
 NSaved= 8 IEnMin= 8 EnMin= -2293.31725645456     IErMin= 8 ErrMin= 3.00D-03
 ErrMax= 3.00D-03  0.00D+00 EMaxC= 1.00D+00 BMatC= 8.99D-04 BMatP= 1.88D-03
 IDIUse=1 WtCom= 1.00D+00 WtEn= 0.00D+00
 Coeff-Com:  0.657D-02-0.126D-01-0.139D+00-0.112D+00 0.216D+01-0.214D+01
 Coeff-Com: -0.379D+01 0.503D+01
 Coeff:      0.657D-02-0.126D-01-0.139D+00-0.112D+00 0.216D+01-0.214D+01
 Coeff:     -0.379D+01 0.503D+01
 Gap=     0.274 Goal=   None    Shift=    0.500
 T=  183. Gap= 0.774 NK=0 IS=  146 IE=  934 IFin=  145
          NO(<0.9)=   0  NV(>0.1)=   0    145.00e < EF      0.00e >EF  Err=0.0D+00
 Gap=     0.085 Goal=   None    Shift=    0.500
 T=  183. Gap= 0.586 NK=0 IS=  145 IE=  934 IFin=  144
          NO(<0.9)=   0  NV(>0.1)=   0    144.00e < EF      0.00e >EF  Err=0.0D+00
 GapD=    0.085 DampG=0.500 DampE=1.000 DampFc=0.5000 IDamp=-1.
 Damping current iteration by 5.00D-01
 RMSDP=1.98D-04 MaxDP=2.00D-02 DE=-6.68D-03 OVMax= 2.20D-02

 Cycle   9  Pass 1  IDiag  1:
 E= -2293.32106855326     Delta-E=       -0.003812098697 Rises=F Damp=T
 DIIS: error= 2.78D-03 at cycle   9 NSaved=   9.
 NSaved= 9 IEnMin= 9 EnMin= -2293.32106855326     IErMin= 9 ErrMin= 2.78D-03
 ErrMax= 2.78D-03  0.00D+00 EMaxC= 1.00D+00 BMatC= 5.34D-04 BMatP= 8.99D-04
 IDIUse=1 WtCom= 1.00D+00 WtEn= 0.00D+00
 Coeff-Com:  0.203D-02 0.526D-01-0.700D-01-0.687D+00 0.206D+01-0.257D+00
 Coeff-Com: -0.296D+01-0.604D+00 0.347D+01
 Coeff:      0.203D-02 0.526D-01-0.700D-01-0.687D+00 0.206D+01-0.257D+00
 Coeff:     -0.296D+01-0.604D+00 0.347D+01
 Gap=     0.274 Goal=   None    Shift=    0.500
 T=  120. Gap= 0.774 NK=0 IS=  146 IE=  934 IFin=  145
          NO(<0.9)=   0  NV(>0.1)=   0    145.00e < EF      0.00e >EF  Err=0.0D+00
 Gap=     0.085 Goal=   None    Shift=    0.500
 T=  120. Gap= 0.586 NK=0 IS=  145 IE=  934 IFin=  144
          NO(<0.9)=   0  NV(>0.1)=   0    144.00e < EF      0.00e >EF  Err=0.0D+00
 GapD=    0.085 DampG=0.500 DampE=1.000 DampFc=0.5000 IDamp=-1.
 Damping current iteration by 5.00D-01
 RMSDP=1.58D-04 MaxDP=1.33D-02 DE=-3.81D-03 OVMax= 2.08D-02

 Cycle  10  Pass 1  IDiag  1:
 E= -2293.32336309258     Delta-E=       -0.002294539317 Rises=F Damp=T
 DIIS: error= 2.60D-03 at cycle  10 NSaved=  10.
 NSaved=10 IEnMin=10 EnMin= -2293.32336309258     IErMin=10 ErrMin= 2.60D-03
 ErrMax= 2.60D-03  0.00D+00 EMaxC= 1.00D+00 BMatC= 3.69D-04 BMatP= 5.34D-04
 IDIUse=1 WtCom= 1.00D+00 WtEn= 0.00D+00
 Coeff-Com: -0.299D-02-0.780D-01 0.303D+00-0.268D+00-0.127D+01 0.182D+01
 Coeff-Com:  0.250D+01-0.310D+01-0.542D+01 0.650D+01
 Coeff:     -0.299D-02-0.780D-01 0.303D+00-0.268D+00-0.127D+01 0.182D+01
 Coeff:      0.250D+01-0.310D+01-0.542D+01 0.650D+01
 Gap=     0.274 Goal=   None    Shift=    0.500
 T=   71. Gap= 0.774 NK=0 IS=  146 IE=  934 IFin=  145
          NO(<0.9)=   0  NV(>0.1)=   0    145.00e < EF      0.00e >EF  Err=0.0D+00
 Gap=     0.084 Goal=   None    Shift=    0.500
 T=   71. Gap= 0.585 NK=0 IS=  145 IE=  934 IFin=  144
          NO(<0.9)=   0  NV(>0.1)=   0    144.00e < EF      0.00e >EF  Err=0.0D+00
 GapD=    0.084 DampG=0.500 DampE=1.000 DampFc=0.5000 IDamp=-1.
 Damping current iteration by 5.00D-01
 RMSDP=1.49D-04 MaxDP=1.36D-02 DE=-2.29D-03 OVMax= 2.26D-02

 Cycle  11  Pass 1  IDiag  1:
 E= -2293.32483553041     Delta-E=       -0.001472437831 Rises=F Damp=T
 DIIS: error= 2.46D-03 at cycle  11 NSaved=  11.
 NSaved=11 IEnMin=11 EnMin= -2293.32483553041     IErMin=11 ErrMin= 2.46D-03
 ErrMax= 2.46D-03  0.00D+00 EMaxC= 1.00D+00 BMatC= 2.95D-04 BMatP= 3.69D-04
 IDIUse=1 WtCom= 1.00D+00 WtEn= 0.00D+00
 Coeff-Com: -0.224D-02-0.106D+00 0.339D+00-0.254D+00-0.121D+01 0.154D+01
 Coeff-Com:  0.239D+01-0.227D+01-0.512D+01 0.460D+01 0.109D+01
 Coeff:     -0.224D-02-0.106D+00 0.339D+00-0.254D+00-0.121D+01 0.154D+01
 Coeff:      0.239D+01-0.227D+01-0.512D+01 0.460D+01 0.109D+01
 Gap=     0.274 Goal=   None    Shift=    0.500
 Gap=     0.085 Goal=   None    Shift=    0.500
 GapD=    0.085 DampG=0.500 DampE=1.000 DampFc=0.5000 IDamp=-1.
 Damping current iteration by 5.00D-01
 RMSDP=1.16D-04 MaxDP=1.01D-02 DE=-1.47D-03 OVMax= 1.81D-02

 Cycle  12  Pass 1  IDiag  1:
 E= -2293.32586548677     Delta-E=       -0.001029956363 Rises=F Damp=T
 DIIS: error= 2.30D-03 at cycle  12 NSaved=  12.
 NSaved=12 IEnMin=12 EnMin= -2293.32586548677     IErMin=12 ErrMin= 2.30D-03
 ErrMax= 2.30D-03  0.00D+00 EMaxC= 1.00D+00 BMatC= 2.41D-04 BMatP= 2.95D-04
 IDIUse=1 WtCom= 1.00D+00 WtEn= 0.00D+00
 Coeff-Com: -0.566D-03-0.658D-01 0.133D+00 0.178D+00-0.958D+00 0.426D+00
 Coeff-Com:  0.966D+00 0.138D+01-0.407D+01 0.296D+01-0.540D+01 0.545D+01
 Coeff:     -0.566D-03-0.658D-01 0.133D+00 0.178D+00-0.958D+00 0.426D+00
 Coeff:      0.966D+00 0.138D+01-0.407D+01 0.296D+01-0.540D+01 0.545D+01
 Gap=     0.273 Goal=   None    Shift=    0.500
 Gap=     0.084 Goal=   None    Shift=    0.500
 GapD=    0.084 DampG=0.500 DampE=1.000 DampFc=0.5000 IDamp=-1.
 Damping current iteration by 5.00D-01
 RMSDP=1.21D-04 MaxDP=1.04D-02 DE=-1.03D-03 OVMax= 2.03D-02

 Cycle  13  Pass 1  IDiag  1:
 E= -2293.32661513187     Delta-E=       -0.000749645103 Rises=F Damp=T
 DIIS: error= 2.22D-03 at cycle  13 NSaved=  13.
 NSaved=13 IEnMin=13 EnMin= -2293.32661513187     IErMin=13 ErrMin= 2.22D-03
 ErrMax= 2.22D-03  0.00D+00 EMaxC= 1.00D+00 BMatC= 2.26D-04 BMatP= 2.41D-04
 IDIUse=1 WtCom= 1.00D+00 WtEn= 0.00D+00
 Large coefficients: NSaved= 13 BigCof=   10.87 CofMax=   10.00 Det=-3.57D-07
 Inversion failed.  Reducing to 12 matrices.
 Large coefficients: NSaved= 12 BigCof=   10.87 CofMax=   10.00 Det=-3.57D-07
 Inversion failed.  Reducing to 11 matrices.
 Large coefficients: NSaved= 11 BigCof=   10.31 CofMax=   10.00 Det=-3.75D-07
 Inversion failed.  Reducing to 10 matrices.
 Coeff-Com:  0.640D-02 0.793D-01-0.190D+00-0.731D+00 0.183D+01-0.291D+00
 Coeff-Com:  0.253D+01-0.960D+01 0.480D+01 0.256D+01
 Coeff:      0.640D-02 0.793D-01-0.190D+00-0.731D+00 0.183D+01-0.291D+00
 Coeff:      0.253D+01-0.960D+01 0.480D+01 0.256D+01
 Gap=     0.272 Goal=   None    Shift=    0.500
 Gap=     0.084 Goal=   None    Shift=    0.500
 GapD=    0.084 DampG=0.500 DampE=1.000 DampFc=0.5000 IDamp=-1.
 Damping current iteration by 5.00D-01
 RMSDP=1.19D-04 MaxDP=1.06D-02 DE=-7.50D-04 OVMax= 2.02D-02

 Cycle  14  Pass 1  IDiag  1:
 E= -2293.32722029255     Delta-E=       -0.000605160680 Rises=F Damp=T
 DIIS: error= 2.13D-03 at cycle  14 NSaved=  11.
 NSaved=11 IEnMin=11 EnMin= -2293.32722029255     IErMin=11 ErrMin= 2.13D-03
 ErrMax= 2.13D-03  0.00D+00 EMaxC= 1.00D+00 BMatC= 2.28D-04 BMatP= 2.26D-04
 IDIUse=1 WtCom= 1.00D+00 WtEn= 0.00D+00
 Large coefficients: NSaved= 11 BigCof=   10.87 CofMax=   10.00 Det=-2.31D-07
 Inversion failed.  Reducing to 10 matrices.
 Large coefficients: NSaved= 10 BigCof=   10.91 CofMax=   10.00 Det=-2.35D-07
 Inversion failed.  Reducing to  9 matrices.
 Large coefficients: NSaved=  9 BigCof=   10.91 CofMax=   10.00 Det=-2.36D-07
 Inversion failed.  Reducing to  8 matrices.
 Large coefficients: NSaved=  8 BigCof=   10.53 CofMax=   10.00 Det=-2.40D-07
 Inversion failed.  Reducing to  7 matrices.
 Large coefficients: NSaved=  7 BigCof=   10.79 CofMax=   10.00 Det=-3.04D-07
 Inversion failed.  Reducing to  6 matrices.
 Large coefficients: NSaved=  6 BigCof=   10.50 CofMax=   10.00 Det=-3.12D-07
 Inversion failed.  Reducing to  5 matrices.
 Large coefficients: NSaved=  5 BigCof=   10.15 CofMax=   10.00 Det=-3.63D-07
 Inversion failed.  Reducing to  4 matrices.
 Coeff-Com: -0.251D+01 0.391D+01-0.133D+01 0.937D+00
 Coeff:     -0.251D+01 0.391D+01-0.133D+01 0.937D+00
 Gap=     0.273 Goal=   None    Shift=    0.500
 Gap=     0.086 Goal=   None    Shift=    0.500
 GapD=    0.086 DampG=0.500 DampE=1.000 DampFc=0.5000 IDamp=-1.
 Damping current iteration by 5.00D-01
 RMSDP=6.35D-05 MaxDP=4.86D-03 DE=-6.05D-04 OVMax= 9.79D-03

 Cycle  15  Pass 1  IDiag  1:
 E= -2293.32772979838     Delta-E=       -0.000509505831 Rises=F Damp=T
 DIIS: error= 1.92D-03 at cycle  15 NSaved=   5.
 NSaved= 5 IEnMin= 5 EnMin= -2293.32772979838     IErMin= 5 ErrMin= 1.92D-03
 ErrMax= 1.92D-03  0.00D+00 EMaxC= 1.00D+00 BMatC= 1.62D-04 BMatP= 2.26D-04
 IDIUse=1 WtCom= 1.00D+00 WtEn= 0.00D+00
 Coeff-Com: -0.179D+00 0.204D+01-0.500D+01 0.193D+01 0.221D+01
 Coeff:     -0.179D+00 0.204D+01-0.500D+01 0.193D+01 0.221D+01
 Gap=     0.271 Goal=   None    Shift=    0.500
 Gap=     0.084 Goal=   None    Shift=    0.500
 GapD=    0.084 DampG=0.500 DampE=1.000 DampFc=0.5000 IDamp=-1.
 Damping current iteration by 5.00D-01
 RMSDP=8.33D-05 MaxDP=7.09D-03 DE=-5.10D-04 OVMax= 1.59D-02

 Cycle  16  Pass 1  IDiag  1:
 E= -2293.32813734586     Delta-E=       -0.000407547479 Rises=F Damp=T
 DIIS: error= 1.82D-03 at cycle  16 NSaved=   6.
 NSaved= 6 IEnMin= 6 EnMin= -2293.32813734586     IErMin= 6 ErrMin= 1.82D-03
 ErrMax= 1.82D-03  0.00D+00 EMaxC= 1.00D+00 BMatC= 1.50D-04 BMatP= 1.62D-04
 IDIUse=1 WtCom= 1.00D+00 WtEn= 0.00D+00
 Coeff-Com:  0.638D+00 0.714D+00-0.333D+01 0.777D+00-0.962D+00 0.316D+01
 Coeff:      0.638D+00 0.714D+00-0.333D+01 0.777D+00-0.962D+00 0.316D+01
 Gap=     0.270 Goal=   None    Shift=    0.500
 Gap=     0.084 Goal=   None    Shift=    0.500
 GapD=    0.084 DampG=0.500 DampE=1.000 DampFc=0.5000 IDamp=-1.
 Damping current iteration by 5.00D-01
 RMSDP=9.46D-05 MaxDP=9.64D-03 DE=-4.08D-04 OVMax= 1.60D-02

 Cycle  17  Pass 1  IDiag  1:
 E= -2293.32850565984     Delta-E=       -0.000368313981 Rises=F Damp=T
 DIIS: error= 1.74D-03 at cycle  17 NSaved=   7.
 NSaved= 7 IEnMin= 7 EnMin= -2293.32850565984     IErMin= 7 ErrMin= 1.74D-03
 ErrMax= 1.74D-03  0.00D+00 EMaxC= 1.00D+00 BMatC= 1.52D-04 BMatP= 1.50D-04
 IDIUse=1 WtCom= 1.00D+00 WtEn= 0.00D+00
 Coeff-Com:  0.210D+00 0.694D+00-0.119D+01-0.945D+00-0.247D-01 0.669D-01
 Coeff-Com:  0.219D+01
 Coeff:      0.210D+00 0.694D+00-0.119D+01-0.945D+00-0.247D-01 0.669D-01
 Coeff:      0.219D+01
 Gap=     0.269 Goal=   None    Shift=    0.500
 Gap=     0.084 Goal=   None    Shift=    0.500
 GapD=    0.084 DampG=0.500 DampE=1.000 DampFc=0.5000 IDamp=-1.
 Damping current iteration by 5.00D-01
 RMSDP=8.27D-05 MaxDP=8.26D-03 DE=-3.68D-04 OVMax= 1.29D-02

 Cycle  18  Pass 1  IDiag  1:
 E= -2293.32885612322     Delta-E=       -0.000350463373 Rises=F Damp=T
 DIIS: error= 1.70D-03 at cycle  18 NSaved=   8.
 NSaved= 8 IEnMin= 8 EnMin= -2293.32885612322     IErMin= 8 ErrMin= 1.70D-03
 ErrMax= 1.70D-03  0.00D+00 EMaxC= 1.00D+00 BMatC= 1.46D-04 BMatP= 1.50D-04
 IDIUse=1 WtCom= 1.00D+00 WtEn= 0.00D+00
 Coeff-Com:  0.170D+00 0.175D+00-0.185D+00-0.981D+00-0.120D+00 0.130D+01
 Coeff-Com: -0.200D+01 0.264D+01
 Coeff:      0.170D+00 0.175D+00-0.185D+00-0.981D+00-0.120D+00 0.130D+01
 Coeff:     -0.200D+01 0.264D+01
 Gap=     0.268 Goal=   None    Shift=    0.500
 Gap=     0.085 Goal=   None    Shift=    0.500
 GapD=    0.085 DampG=0.500 DampE=1.000 DampFc=0.5000 IDamp=-1.
 Damping current iteration by 5.00D-01
 RMSDP=7.08D-05 MaxDP=6.92D-03 DE=-3.50D-04 OVMax= 1.11D-02

 Cycle  19  Pass 1  IDiag  1:
 E= -2293.32917937415     Delta-E=       -0.000323250929 Rises=F Damp=T
 DIIS: error= 1.79D-03 at cycle  19 NSaved=   9.
 NSaved= 9 IEnMin= 9 EnMin= -2293.32917937415     IErMin= 8 ErrMin= 1.70D-03
 ErrMax= 1.79D-03  0.00D+00 EMaxC= 1.00D+00 BMatC= 1.34D-04 BMatP= 1.46D-04
 IDIUse=1 WtCom= 1.00D+00 WtEn= 0.00D+00
 Coeff-Com:  0.165D+00 0.201D+00-0.170D+00-0.106D+01-0.108D+00 0.138D+01
 Coeff-Com: -0.245D+01 0.346D+01-0.415D+00
 Coeff:      0.165D+00 0.201D+00-0.170D+00-0.106D+01-0.108D+00 0.138D+01
 Coeff:     -0.245D+01 0.346D+01-0.415D+00
 Gap=     0.268 Goal=   None    Shift=    0.500
 Gap=     0.085 Goal=   None    Shift=    0.500
 GapD=    0.085 DampG=0.500 DampE=1.000 DampFc=0.5000 IDamp=-1.
 Damping current iteration by 5.00D-01
 RMSDP=5.35D-05 MaxDP=4.65D-03 DE=-3.23D-04 OVMax= 9.31D-03

 Cycle  20  Pass 1  IDiag  1:
 E= -2293.32946193199     Delta-E=       -0.000282557847 Rises=F Damp=T
 DIIS: error= 1.82D-03 at cycle  20 NSaved=  10.
 NSaved=10 IEnMin=10 EnMin= -2293.32946193199     IErMin= 8 ErrMin= 1.70D-03
 ErrMax= 1.82D-03  0.00D+00 EMaxC= 1.00D+00 BMatC= 1.21D-04 BMatP= 1.34D-04
 IDIUse=1 WtCom= 1.00D+00 WtEn= 0.00D+00
 Coeff-Com:  0.202D+00 0.146D+00-0.127D+00-0.113D+01-0.270D-01 0.989D+00
 Coeff-Com: -0.188D+01 0.370D+01-0.123D+01 0.355D+00
 Coeff:      0.202D+00 0.146D+00-0.127D+00-0.113D+01-0.270D-01 0.989D+00
 Coeff:     -0.188D+01 0.370D+01-0.123D+01 0.355D+00
 Gap=     0.268 Goal=   None    Shift=    0.500
 Gap=     0.085 Goal=   None    Shift=    0.500
 GapD=    0.085 DampG=0.500 DampE=1.000 DampFc=0.5000 IDamp=-1.
 Damping current iteration by 5.00D-01
 RMSDP=3.99D-05 MaxDP=3.17D-03 DE=-2.83D-04 OVMax= 7.87D-03

 Cycle  21  Pass 1  IDiag  1:
 E= -2293.32969350808     Delta-E=       -0.000231576085 Rises=F Damp=T
 DIIS: error= 1.81D-03 at cycle  21 NSaved=  11.
 NSaved=11 IEnMin=11 EnMin= -2293.32969350808     IErMin= 8 ErrMin= 1.70D-03
 ErrMax= 1.81D-03  0.00D+00 EMaxC= 1.00D+00 BMatC= 1.19D-04 BMatP= 1.21D-04
 IDIUse=1 WtCom= 1.00D+00 WtEn= 0.00D+00
 Large coefficients: NSaved= 11 BigCof=   13.82 CofMax=   10.00 Det=-9.90D-10
 Inversion failed.  Reducing to 10 matrices.
 Coeff-Com:  0.316D+00 0.722D-01-0.116D+01-0.959D-01 0.112D+01-0.245D+01
 Coeff-Com:  0.579D+01-0.724D+01 0.753D+01-0.287D+01
 Coeff:      0.316D+00 0.722D-01-0.116D+01-0.959D-01 0.112D+01-0.245D+01
 Coeff:      0.579D+01-0.724D+01 0.753D+01-0.287D+01
 Gap=     0.269 Goal=   None    Shift=    0.500
 Gap=     0.086 Goal=   None    Shift=    0.500
 GapD=    0.086 DampG=0.500 DampE=1.000 DampFc=0.5000 IDamp=-1.
 Damping current iteration by 5.00D-01
 RMSDP=3.01D-05 MaxDP=2.23D-03 DE=-2.32D-04 OVMax= 6.67D-03

 Cycle  22  Pass 1  IDiag  1:
 E= -2293.32987511497     Delta-E=       -0.000181606888 Rises=F Damp=T
 DIIS: error= 1.76D-03 at cycle  22 NSaved=  11.
 NSaved=11 IEnMin=11 EnMin= -2293.32987511497     IErMin= 7 ErrMin= 1.70D-03
 ErrMax= 1.76D-03  0.00D+00 EMaxC= 1.00D+00 BMatC= 1.35D-04 BMatP= 1.19D-04
 IDIUse=1 WtCom= 1.00D+00 WtEn= 0.00D+00
 Coeff-Com:  0.306D+00 0.722D-01-0.115D+01-0.959D-01 0.127D+01-0.278D+01
 Coeff-Com:  0.551D+01-0.544D+01 0.476D+01-0.952D+00-0.516D+00
 Coeff:      0.306D+00 0.722D-01-0.115D+01-0.959D-01 0.127D+01-0.278D+01
 Coeff:      0.551D+01-0.544D+01 0.476D+01-0.952D+00-0.516D+00
 Gap=     0.269 Goal=   None    Shift=    0.500
 Gap=     0.086 Goal=   None    Shift=    0.500
 GapD=    0.086 DampG=0.500 DampE=1.000 DampFc=0.5000 IDamp=-1.
 Damping current iteration by 5.00D-01
 RMSDP=2.35D-05 MaxDP=1.58D-03 DE=-1.82D-04 OVMax= 5.68D-03

 Cycle  23  Pass 1  IDiag  1:
 E= -2293.33001441706     Delta-E=       -0.000139302098 Rises=F Damp=T
 DIIS: error= 1.71D-03 at cycle  23 NSaved=  12.
 NSaved=12 IEnMin=12 EnMin= -2293.33001441706     IErMin= 7 ErrMin= 1.70D-03
 ErrMax= 1.71D-03  0.00D+00 EMaxC= 1.00D+00 BMatC= 1.66D-04 BMatP= 1.19D-04
 IDIUse=1 WtCom= 1.00D+00 WtEn= 0.00D+00
 Large coefficients: NSaved= 12 BigCof=  124.14 CofMax=   10.00 Det=-1.58D-10
 Inversion failed.  Reducing to 11 matrices.
 Large coefficients: NSaved= 11 BigCof=  112.85 CofMax=   10.00 Det=-1.62D-10
 Inversion failed.  Reducing to 10 matrices.
 Large coefficients: NSaved= 10 BigCof=   96.82 CofMax=   10.00 Det=-1.70D-10
 Inversion failed.  Reducing to  9 matrices.
 Large coefficients: NSaved=  9 BigCof=   99.42 CofMax=   10.00 Det=-2.85D-10
 Inversion failed.  Reducing to  8 matrices.
 Large coefficients: NSaved=  8 BigCof=  102.88 CofMax=   10.00 Det=-3.03D-10
 Inversion failed.  Reducing to  7 matrices.
 Large coefficients: NSaved=  7 BigCof=   92.29 CofMax=   10.00 Det=-3.61D-10
 Inversion failed.  Reducing to  6 matrices.
 Large coefficients: NSaved=  6 BigCof=   92.25 CofMax=   10.00 Det=-4.19D-10
 Inversion failed.  Reducing to  5 matrices.
 Large coefficients: NSaved=  5 BigCof=   55.38 CofMax=   10.00 Det=-8.29D-10
 Inversion failed.  Reducing to  4 matrices.
 Large coefficients: NSaved=  4 BigCof=   49.22 CofMax=   10.00 Det=-9.64D-10
 Inversion failed.  Reducing to  3 matrices.
 Large coefficients: NSaved=  3 BigCof=   20.81 CofMax=   10.00 Det=-6.16D-09
 Inversion failed.  Reducing to  2 matrices.
 Coeff-Com:  0.258D+01-0.158D+01
 Coeff:      0.258D+01-0.158D+01
 Gap=     0.268 Goal=   None    Shift=    0.500
 Gap=     0.086 Goal=   None    Shift=    0.500
 GapD=    0.086 DampG=0.500 DampE=1.000 DampFc=0.5000 IDamp=-1.
 Damping current iteration by 5.00D-01
 RMSDP=2.02D-05 MaxDP=1.50D-03 DE=-1.39D-04 OVMax= 5.50D-03

 Cycle  24  Pass 1  IDiag  1:
 E= -2293.33012677986     Delta-E=       -0.000112362798 Rises=F Damp=T
 DIIS: error= 1.68D-03 at cycle  24 NSaved=   3.
 NSaved= 3 IEnMin= 3 EnMin= -2293.33012677986     IErMin= 3 ErrMin= 1.68D-03
 ErrMax= 1.68D-03  0.00D+00 EMaxC= 1.00D+00 BMatC= 1.99D-04 BMatP= 1.35D-04
 IDIUse=1 WtCom= 1.00D+00 WtEn= 0.00D+00
 Coeff-Com:  0.364D+01-0.400D+01 0.136D+01
 Coeff:      0.364D+01-0.400D+01 0.136D+01
 Gap=     0.268 Goal=   None    Shift=    0.500
 Gap=     0.086 Goal=   None    Shift=    0.500
 GapD=    0.086 DampG=0.500 DampE=1.000 DampFc=0.5000 IDamp=-1.
 Damping current iteration by 5.00D-01
 RMSDP=1.73D-05 MaxDP=1.24D-03 DE=-1.12D-04 OVMax= 4.91D-03

 Cycle  25  Pass 1  IDiag  1:
 E= -2293.33021739015     Delta-E=       -0.000090610290 Rises=F Damp=T
 DIIS: error= 1.64D-03 at cycle  25 NSaved=   4.
 NSaved= 4 IEnMin= 4 EnMin= -2293.33021739015     IErMin= 4 ErrMin= 1.64D-03
 ErrMax= 1.64D-03  0.00D+00 EMaxC= 1.00D+00 BMatC= 2.35D-04 BMatP= 1.35D-04
 IDIUse=1 WtCom= 1.00D+00 WtEn= 0.00D+00
 Large coefficients: NSaved=  4 BigCof=   15.28 CofMax=   10.00 Det=-1.21D-08
 Inversion failed.  Reducing to  3 matrices.
 Large coefficients: NSaved=  3 BigCof=   12.62 CofMax=   10.00 Det=-5.13D-08
 Inversion failed.  Reducing to  2 matrices.
 Coeff-Com:  0.608D+01-0.508D+01
 Coeff:      0.608D+01-0.508D+01
 Gap=     0.268 Goal=   None    Shift=    0.500
 Gap=     0.086 Goal=   None    Shift=    0.500
 GapD=    0.086 DampG=0.500 DampE=1.000 DampFc=0.5000 IDamp=-1.
 Damping current iteration by 5.00D-01
 RMSDP=1.33D-05 MaxDP=6.63D-04 DE=-9.06D-05 OVMax= 3.35D-03

 Cycle  26  Pass 1  IDiag  1:
 E= -2293.33028522534     Delta-E=       -0.000067835184 Rises=F Damp=T
 DIIS: error= 1.60D-03 at cycle  26 NSaved=   3.
 NSaved= 3 IEnMin= 3 EnMin= -2293.33028522534     IErMin= 3 ErrMin= 1.60D-03
 ErrMax= 1.60D-03  0.00D+00 EMaxC= 1.00D+00 BMatC= 2.79D-04 BMatP= 1.99D-04
 IDIUse=1 WtCom= 1.00D+00 WtEn= 0.00D+00
 Coeff-Com:  0.408D+01-0.110D+01-0.198D+01
 Coeff:      0.408D+01-0.110D+01-0.198D+01
 Gap=     0.268 Goal=   None    Shift=    0.500
 Gap=     0.086 Goal=   None    Shift=    0.500
 GapD=    0.086 DampG=0.500 DampE=1.000 DampFc=0.5000 IDamp=-1.
 Damping current iteration by 5.00D-01
 RMSDP=1.16D-05 MaxDP=6.11D-04 DE=-6.78D-05 OVMax= 3.29D-03

 Cycle  27  Pass 1  IDiag  1:
 E= -2293.33034237400     Delta-E=       -0.000057148667 Rises=F Damp=T
 DIIS: error= 1.56D-03 at cycle  27 NSaved=   4.
 NSaved= 4 IEnMin= 4 EnMin= -2293.33034237400     IErMin= 4 ErrMin= 1.56D-03
 ErrMax= 1.56D-03  0.00D+00 EMaxC= 1.00D+00 BMatC= 3.17D-04 BMatP= 1.99D-04
 IDIUse=1 WtCom= 1.00D+00 WtEn= 0.00D+00
 Coeff-Com:  0.447D+01-0.371D+01 0.264D+01-0.240D+01
 Coeff:      0.447D+01-0.371D+01 0.264D+01-0.240D+01
 Gap=     0.268 Goal=   None    Shift=    0.500
 Gap=     0.086 Goal=   None    Shift=    0.500
 GapD=    0.086 DampG=0.500 DampE=1.000 DampFc=0.5000 IDamp=-1.
 Damping current iteration by 5.00D-01
 RMSDP=9.31D-06 MaxDP=5.15D-04 DE=-5.71D-05 OVMax= 2.57D-03

 Cycle  28  Pass 1  IDiag  1:
 E= -2293.33038498234     Delta-E=       -0.000042608335 Rises=F Damp=T
 DIIS: error= 1.52D-03 at cycle  28 NSaved=   5.
 NSaved= 5 IEnMin= 5 EnMin= -2293.33038498234     IErMin= 5 ErrMin= 1.52D-03
 ErrMax= 1.52D-03  0.00D+00 EMaxC= 1.00D+00 BMatC= 3.57D-04 BMatP= 1.99D-04
 IDIUse=1 WtCom= 1.00D+00 WtEn= 0.00D+00
 Large coefficients: NSaved=  5 BigCof=   15.85 CofMax=   10.00 Det=-3.34D-09
 Inversion failed.  Reducing to  4 matrices.
 Large coefficients: NSaved=  4 BigCof=   15.48 CofMax=   10.00 Det=-3.37D-09
 Inversion failed.  Reducing to  3 matrices.
 Large coefficients: NSaved=  3 BigCof=   10.10 CofMax=   10.00 Det=-7.20D-09
 Inversion failed.  Reducing to  2 matrices.
 Large coefficients: NSaved=  2 BigCof=   11.06 CofMax=   10.00 Det=-1.92D-06
 Coeff-Com:  0.111D+02-0.101D+02
 Coeff:      0.111D+02-0.101D+02
 Gap=     0.268 Goal=   None    Shift=    0.500
 Gap=     0.086 Goal=   None    Shift=    0.500
 GapD=    0.086 DampG=0.500 DampE=1.000 DampFc=0.5000 IDamp=-1.
 Damping current iteration by 5.00D-01
 RMSDP=1.51D-05 MaxDP=1.68D-03 DE=-4.26D-05 OVMax= 3.91D-03

 Cycle  29  Pass 1  IDiag  1:
 E= -2293.33044391185     Delta-E=       -0.000058929511 Rises=F Damp=T
 DIIS: error= 1.52D-03 at cycle  29 NSaved=   3.
 NSaved= 3 IEnMin= 3 EnMin= -2293.33044391185     IErMin= 3 ErrMin= 1.52D-03
 ErrMax= 1.52D-03  0.00D+00 EMaxC= 1.00D+00 BMatC= 3.62D-04 BMatP= 3.17D-04
 IDIUse=1 WtCom= 1.00D+00 WtEn= 0.00D+00
 Large coefficients: NSaved=  3 BigCof=   12.47 CofMax=   10.00 Det=-7.08D-07
 Inversion failed.  Reducing to  2 matrices.
 Coeff-Com:  0.188D+01-0.885D+00
 Coeff:      0.188D+01-0.885D+00
 Gap=     0.262 Goal=   None    Shift=    0.500
 Gap=     0.084 Goal=   None    Shift=    0.500
 GapD=    0.084 DampG=0.500 DampE=1.000 DampFc=0.5000 IDamp=-1.
 Damping current iteration by 5.00D-01
 RMSDP=5.26D-05 MaxDP=5.60D-03 DE=-5.89D-05 OVMax= 6.00D-03

 Cycle  30  Pass 1  IDiag  1:
 E= -2293.33057439826     Delta-E=       -0.000130486404 Rises=F Damp=T
 DIIS: error= 1.76D-03 at cycle  30 NSaved=   3.
 NSaved= 3 IEnMin= 3 EnMin= -2293.33057439826     IErMin= 2 ErrMin= 1.52D-03
 ErrMax= 1.76D-03  0.00D+00 EMaxC= 1.00D+00 BMatC= 1.88D-04 BMatP= 3.57D-04
 IDIUse=1 WtCom= 1.00D+00 WtEn= 0.00D+00
 Coeff-Com:  0.181D+01-0.252D+01 0.171D+01
 Coeff:      0.181D+01-0.252D+01 0.171D+01
 Gap=     0.263 Goal=   None    Shift=    0.500
 Gap=     0.086 Goal=   None    Shift=    0.500
 GapD=    0.086 DampG=0.500 DampE=1.000 DampFc=0.5000 IDamp=-1.
 Damping current iteration by 5.00D-01
 RMSDP=4.75D-05 MaxDP=5.67D-03 DE=-1.30D-04 OVMax= 8.33D-03

 Cycle  31  Pass 1  IDiag  1:
 E= -2293.33071090702     Delta-E=       -0.000136508761 Rises=F Damp=T
 DIIS: error= 1.87D-03 at cycle  31 NSaved=   4.
 NSaved= 4 IEnMin= 4 EnMin= -2293.33071090702     IErMin= 2 ErrMin= 1.52D-03
 ErrMax= 1.87D-03  0.00D+00 EMaxC= 1.00D+00 BMatC= 1.61D-04 BMatP= 1.88D-04
 IDIUse=1 WtCom= 1.00D+00 WtEn= 0.00D+00
 Coeff-Com:  0.114D+01-0.144D+01-0.934D+00 0.223D+01
 Coeff:      0.114D+01-0.144D+01-0.934D+00 0.223D+01
 Gap=     0.262 Goal=   None    Shift=    0.500
 Gap=     0.087 Goal=   None    Shift=    0.500
 GapD=    0.087 DampG=0.500 DampE=1.000 DampFc=0.5000 IDamp=-1.
 Damping current iteration by 5.00D-01
 RMSDP=5.07D-05 MaxDP=6.24D-03 DE=-1.37D-04 OVMax= 9.93D-03

 Cycle  32  Pass 1  IDiag  1:
 E= -2293.33087104087     Delta-E=       -0.000160133856 Rises=F Damp=T
 DIIS: error= 1.95D-03 at cycle  32 NSaved=   5.
 NSaved= 5 IEnMin= 5 EnMin= -2293.33087104087     IErMin= 2 ErrMin= 1.52D-03
 ErrMax= 1.95D-03  0.00D+00 EMaxC= 1.00D+00 BMatC= 1.51D-04 BMatP= 1.61D-04
 IDIUse=1 WtCom= 1.00D+00 WtEn= 0.00D+00
 Coeff-Com:  0.784D+00-0.112D+01 0.193D+00-0.140D+01 0.254D+01
 Coeff:      0.784D+00-0.112D+01 0.193D+00-0.140D+01 0.254D+01
 Gap=     0.261 Goal=   None    Shift=    0.500
 Gap=     0.088 Goal=   None    Shift=    0.500
 GapD=    0.088 DampG=0.500 DampE=1.000 DampFc=0.5000 IDamp=-1.
 Damping current iteration by 5.00D-01
 RMSDP=5.65D-05 MaxDP=6.90D-03 DE=-1.60D-04 OVMax= 1.11D-02

 >>>>>>>>>> Convergence criterion not met.
 SCF Done:  E(ULC-wHPBE) =  -2293.33087104     A.U. after   33 cycles
            NFock= 32  Conv=0.56D-04     -V/T= 2.0042
 <Sx>= 0.0000 <Sy>= 0.0000 <Sz>= 0.5000 <S**2>= 0.7864 S= 0.5181
 <L.S>= 0.000000000000E+00
 KE= 2.283686118383D+03 PE=-1.412945994118D+04 EE= 5.157300789801D+03
 Annihilation of the first spin contaminant:
 S**2 before annihilation     0.7861,   after     0.7508
 Leave Link  502 at Wed Jan 27 13:01:19 2021, MaxMem=  4026531840 cpu:           37344.8 elap:            4714.4
 (Enter /opt/ohpc/pub/libs/gaussian/g16-A.03/sandybridge/g16/l508.exe)
 Integral symmetry usage will be decided dynamically.
 Tight linear equation convergence will be used.
 ULC-wHPBE wavefunction.
 Quadratic Convergence SCF Method.
 Line search only if initial step raises energy.
 FoFJK:  IHMeth= 1 ICntrl=       0 DoSepK=T KAlg= 0 I1Cent=           0 FoldK=F
 IRaf=         1 NMat=       1 IRICut=       1 DoRegI=T DoRafI=F ISym2E= 1 IDoP0=0 IntGTp=1.
 FoFCou: FMM=T IPFlag=           0 FMFlag=      100000 FMFlg1=        2001
         NFxFlg=           0 DoJE=T BraDBF=F KetDBF=F FulRan=T
         wScrn=  0.000000 ICntrl=       500 IOpCl=  0 I1Cent=           0 NGrid=           0
         NMat0=    1 NMatS0=      1 NMatT0=    0 NMatD0=    1 NMtDS0=    0 NMtDT0=    0
 Petite list used in FoFCou.
 FMM levels:  10  Number of levels for PrismC:   9
 Iteration   1 EE= -2293.33128659334                                    Grad=8.281D-03 Max rot=    0.3410 deg.
 QCNR:  CnvC1=8.28D-08 CnvC2=8.28D-07
 LinEq1:  Iter=  0 NonCon=     1 RMS=1.51D-04 Max=6.78D-02 NDo=     1
 AX will form     1 AO Fock derivatives at one time.
 LinEq1:  Iter=  1 NonCon=     1 RMS=3.27D-05 Max=2.85D-03 NDo=     1
 LinEq1:  Iter=  2 NonCon=     1 RMS=2.11D-05 Max=3.52D-03 NDo=     1
 LinEq1:  Iter=  3 NonCon=     1 RMS=1.27D-05 Max=1.99D-03 NDo=     1
 LinEq1:  Iter=  4 NonCon=     1 RMS=6.45D-06 Max=9.96D-04 NDo=     1
 LinEq1:  Iter=  5 NonCon=     1 RMS=3.87D-06 Max=4.25D-04 NDo=     1
 LinEq1:  Iter=  6 NonCon=     1 RMS=1.95D-06 Max=1.62D-04 NDo=     1
 LinEq1:  Iter=  7 NonCon=     1 RMS=1.11D-06 Max=1.34D-04 NDo=     1
 LinEq1:  Iter=  8 NonCon=     1 RMS=6.66D-07 Max=7.05D-05 NDo=     1
 LinEq1:  Iter=  9 NonCon=     1 RMS=3.86D-07 Max=3.12D-05 NDo=     1
 LinEq1:  Iter= 10 NonCon=     1 RMS=2.36D-07 Max=1.77D-05 NDo=     1
 LinEq1:  Iter= 11 NonCon=     1 RMS=1.27D-07 Max=9.69D-06 NDo=     1
 LinEq1:  Iter= 12 NonCon=     1 RMS=7.49D-08 Max=5.89D-06 NDo=     1
 LinEq1:  Iter= 13 NonCon=     1 RMS=3.63D-08 Max=2.98D-06 NDo=     1
 LinEq1:  Iter= 14 NonCon=     1 RMS=1.93D-08 Max=1.52D-06 NDo=     1
 LinEq1:  Iter= 15 NonCon=     1 RMS=1.01D-08 Max=1.24D-06 NDo=     1
 LinEq1:  Iter= 16 NonCon=     0 RMS=4.70D-09 Max=3.91D-07 NDo=     1
 Linear equations converged to 8.281D-08 8.281D-07 after    16 iterations.
 Angle between quadratic step and gradient= 154.62 degrees.
 Incorrect curvature in search direction -- initial direction reversed.
     ILin= 1 X=0.000D+00 Y=-2.293331286593D+03 DE= 0.00D+00 F= -2.05D-02
     ILin= 2 X=6.000D-01 Y=-2.293310168184D+03 DE= 2.11D-02 F=  1.70D-01
     Reject lnstep minimum 3.263D-01 FVal=-2.293340051632D+03 Lims=  0.00D+00  6.00D-01
     ILin= 3 X=3.000D-01 Y=-2.293334602128D+03 DE=-3.32D-03 F=  1.44D-02
     A contracting polynomial of degree  3 produced  0.1858
 Iteration   2 EE= -2293.33465500548     Delta-E=       -0.003368412147 Grad=1.228D-02 Max rot=    0.2427 deg.
 Gradient too large for Newton-Raphson -- use scaled steepest descent instead.
     ILin= 1 X=0.000D+00 Y=-2.293334655005D+03 DE= 0.00D+00 F= -2.76D-04
     ILin= 2 X=3.000D-01 Y=-2.293334728104D+03 DE=-7.31D-05 F= -2.11D-04
     ILin= 3 X=6.000D-01 Y=-2.293334781739D+03 DE=-1.27D-04 F= -1.46D-04
     ILin= 4 X=1.200D+00 Y=-2.293334830759D+03 DE=-1.76D-04 F= -1.71D-05
     Reject lnstep minimum 1.494D+00 FVal=-2.293334837001D+03 Lims=  6.00D-01  1.20D+00
     ILin= 5 X=2.400D+00 Y=-2.293334696838D+03 DE=-4.18D-05 F=  2.40D-04
     An  expanding polynomial of degree  5 produced  1.2795
     Minimum is close to point  4 DX=  7.95D-02 DF= -6.80D-07 DXR=  6.22D-02 DFR=  3.87D-03 which will be used.
 Iteration   3 EE= -2293.33483075888     Delta-E=       -0.000175753399 Grad=9.592D-03 Max rot=    0.1848 deg.
 QCNR:  CnvC1=9.59D-08 CnvC2=9.59D-07
 LinEq1:  Iter=  0 NonCon=     1 RMS=7.93D-05 Max=3.00D-02 NDo=     1
 LinEq1:  Iter=  1 NonCon=     1 RMS=2.95D-05 Max=2.88D-03 NDo=     1
 LinEq1:  Iter=  2 NonCon=     1 RMS=1.17D-05 Max=1.12D-03 NDo=     1
 LinEq1:  Iter=  3 NonCon=     1 RMS=7.46D-06 Max=1.67D-03 NDo=     1
 LinEq1:  Iter=  4 NonCon=     1 RMS=4.19D-06 Max=7.08D-04 NDo=     1
 LinEq1:  Iter=  5 NonCon=     1 RMS=2.25D-06 Max=2.06D-04 NDo=     1
 LinEq1:  Iter=  6 NonCon=     1 RMS=1.52D-06 Max=1.73D-04 NDo=     1
 LinEq1:  Iter=  7 NonCon=     1 RMS=9.06D-07 Max=8.10D-05 NDo=     1
 LinEq1:  Iter=  8 NonCon=     1 RMS=4.92D-07 Max=4.78D-05 NDo=     1
 LinEq1:  Iter=  9 NonCon=     1 RMS=2.60D-07 Max=1.80D-05 NDo=     1
 LinEq1:  Iter= 10 NonCon=     1 RMS=1.46D-07 Max=9.93D-06 NDo=     1
 LinEq1:  Iter= 11 NonCon=     1 RMS=7.49D-08 Max=5.01D-06 NDo=     1
 LinEq1:  Iter= 12 NonCon=     1 RMS=3.64D-08 Max=3.37D-06 NDo=     1
 LinEq1:  Iter= 13 NonCon=     1 RMS=1.99D-08 Max=1.60D-06 NDo=     1
 LinEq1:  Iter= 14 NonCon=     0 RMS=9.15D-09 Max=5.36D-07 NDo=     1
 Linear equations converged to 9.592D-08 9.592D-07 after    14 iterations.
 Angle between quadratic step and gradient=  54.71 degrees.
     ILin= 1 X=0.000D+00 Y=-2.293334830759D+03 DE= 0.00D+00 F= -2.28D-03
     ILin= 2 X=1.000D+00 Y=-2.293335631102D+03 DE=-8.00D-04
 Iteration   4 EE= -2293.33563110178     Delta-E=       -0.000800342897 Grad=9.786D-03 Max rot=    0.0765 deg.
 QCNR:  CnvC1=9.79D-08 CnvC2=9.79D-07
 LinEq1:  Iter=  0 NonCon=     1 RMS=3.92D-05 Max=1.20D-02 NDo=     1
 LinEq1:  Iter=  1 NonCon=     1 RMS=3.54D-05 Max=8.25D-03 NDo=     1
 LinEq1:  Iter=  2 NonCon=     1 RMS=1.38D-05 Max=9.08D-04 NDo=     1
 LinEq1:  Iter=  3 NonCon=     1 RMS=7.19D-06 Max=7.66D-04 NDo=     1
 LinEq1:  Iter=  4 NonCon=     1 RMS=4.08D-06 Max=3.31D-04 NDo=     1
 LinEq1:  Iter=  5 NonCon=     1 RMS=2.30D-06 Max=4.70D-04 NDo=     1
 LinEq1:  Iter=  6 NonCon=     1 RMS=1.27D-06 Max=1.34D-04 NDo=     1
 LinEq1:  Iter=  7 NonCon=     1 RMS=8.16D-07 Max=1.09D-04 NDo=     1
 LinEq1:  Iter=  8 NonCon=     1 RMS=4.33D-07 Max=3.71D-05 NDo=     1
 LinEq1:  Iter=  9 NonCon=     1 RMS=2.58D-07 Max=1.71D-05 NDo=     1
 LinEq1:  Iter= 10 NonCon=     1 RMS=1.41D-07 Max=1.82D-05 NDo=     1
 LinEq1:  Iter= 11 NonCon=     1 RMS=7.04D-08 Max=4.36D-06 NDo=     1
 LinEq1:  Iter= 12 NonCon=     1 RMS=3.55D-08 Max=2.48D-06 NDo=     1
 LinEq1:  Iter= 13 NonCon=     1 RMS=1.74D-08 Max=1.21D-06 NDo=     1
 LinEq1:  Iter= 14 NonCon=     0 RMS=9.35D-09 Max=5.12D-07 NDo=     1
 Linear equations converged to 9.786D-08 9.786D-07 after    14 iterations.
 Angle between quadratic step and gradient=  69.52 degrees.
     ILin= 1 X=0.000D+00 Y=-2.293335631102D+03 DE= 0.00D+00 F= -2.87D-04
     ILin= 2 X=1.000D+00 Y=-2.293335781315D+03 DE=-1.50D-04
 Iteration   5 EE= -2293.33578131467     Delta-E=       -0.000150212893 Grad=4.832D-04 Max rot=    0.0085 deg.
 QCNR:  CnvC1=4.83D-09 CnvC2=4.83D-08
 LinEq1:  Iter=  0 NonCon=     1 RMS=3.44D-06 Max=1.43D-03 NDo=     1
 LinEq1:  Iter=  1 NonCon=     1 RMS=2.08D-06 Max=2.75D-04 NDo=     1
 LinEq1:  Iter=  2 NonCon=     1 RMS=7.31D-07 Max=8.21D-05 NDo=     1
 LinEq1:  Iter=  3 NonCon=     1 RMS=4.83D-07 Max=5.67D-05 NDo=     1
 LinEq1:  Iter=  4 NonCon=     1 RMS=2.22D-07 Max=1.90D-05 NDo=     1
 LinEq1:  Iter=  5 NonCon=     1 RMS=1.47D-07 Max=3.40D-05 NDo=     1
 LinEq1:  Iter=  6 NonCon=     1 RMS=7.33D-08 Max=8.69D-06 NDo=     1
 LinEq1:  Iter=  7 NonCon=     1 RMS=5.16D-08 Max=7.50D-06 NDo=     1
 LinEq1:  Iter=  8 NonCon=     1 RMS=2.55D-08 Max=2.19D-06 NDo=     1
 LinEq1:  Iter=  9 NonCon=     1 RMS=1.51D-08 Max=1.22D-06 NDo=     1
 LinEq1:  Iter= 10 NonCon=     1 RMS=8.30D-09 Max=6.37D-07 NDo=     1
 LinEq1:  Iter= 11 NonCon=     1 RMS=4.15D-09 Max=3.15D-07 NDo=     1
 LinEq1:  Iter= 12 NonCon=     1 RMS=2.16D-09 Max=1.81D-07 NDo=     1
 LinEq1:  Iter= 13 NonCon=     1 RMS=9.91D-10 Max=1.11D-07 NDo=     1
 LinEq1:  Iter= 14 NonCon=     0 RMS=5.29D-10 Max=3.84D-08 NDo=     1
 Linear equations converged to 4.832D-09 4.832D-08 after    14 iterations.
 Angle between quadratic step and gradient=  63.61 degrees.
     ILin= 1 X=0.000D+00 Y=-2.293335781315D+03 DE= 0.00D+00 F= -2.15D-06
     ILin= 2 X=1.000D+00 Y=-2.293335782397D+03 DE=-1.08D-06
 Iteration   6 EE= -2293.33578239653     Delta-E=       -0.000001081858 Grad=7.466D-06 Max rot=    0.0001 deg.
 Rotation gradient small -- convergence achieved.
 SCF Done:  E(ULC-wHPBE) =  -2293.33578240     a.u. after    6 cycles
            Convg  =    0.7466D-05                    69 Fock formations.
              S**2 =  0.8049                  -V/T =  2.0042
 <Sx>= 0.0000 <Sy>= 0.0000 <Sz>= 0.5000 <S**2>= 0.8049 S= 0.5271
 <L.S>= 0.000000000000E+00
 Annihilation of the first spin contaminant:
 S**2 before annihilation     0.8049,   after     0.7528
 Leave Link  508 at Wed Jan 27 15:21:49 2021, MaxMem=  4026531840 cpu:           66670.4 elap:            8429.8
 (Enter /opt/ohpc/pub/libs/gaussian/g16-A.03/sandybridge/g16/l601.exe)
 Copying SCF densities to generalized density rwf, IOpCl= 1 IROHF=0.

 **********************************************************************

            Population analysis using the SCF density.

 **********************************************************************

 Orbital symmetries:
 Alpha Orbitals:
       Occupied  (A) (A) (A) (A) (A) (A) (A) (A) (A) (A) (A) (A)
                 (A) (A) (A) (A) (A) (A) (A) (A) (A) (A) (A) (A)
                 (A) (A) (A) (A) (A) (A) (A) (A) (A) (A) (A) (A)
                 (A) (A) (A) (A) (A) (A) (A) (A) (A) (A) (A) (A)
                 (A) (A) (A) (A) (A) (A) (A) (A) (A) (A) (A) (A)
                 (A) (A) (A) (A) (A) (A) (A) (A) (A) (A) (A) (A)
                 (A) (A) (A) (A) (A) (A) (A) (A) (A) (A) (A) (A)
                 (A) (A) (A) (A) (A) (A) (A) (A) (A) (A) (A) (A)
                 (A) (A) (A) (A) (A) (A) (A) (A) (A) (A) (A) (A)
                 (A) (A) (A) (A) (A) (A) (A) (A) (A) (A) (A) (A)
                 (A) (A) (A) (A) (A) (A) (A) (A) (A) (A) (A) (A)
                 (A) (A) (A) (A) (A) (A) (A) (A) (A) (A) (A) (A)
                 (A)
       Virtual   (A) (A) (A) (A) (A) (A) (A) (A) (A) (A) (A) (A)
                 (A) (A) (A) (A) (A) (A) (A) (A) (A) (A) (A) (A)
                 (A) (A) (A) (A) (A) (A) (A) (A) (A) (A) (A) (A)
                 (A) (A) (A) (A) (A) (A) (A) (A) (A) (A) (A) (A)
                 (A) (A) (A) (A) (A) (A) (A) (A) (A) (A) (A) (A)
                 (A) (A) (A) (A) (A) (A) (A) (A) (A) (A) (A) (A)
                 (A) (A) (A) (A) (A) (A) (A) (A) (A) (A) (A) (A)
                 (A) (A) (A) (A) (A) (A) (A) (A) (A) (A) (A) (A)
                 (A) (A) (A) (A) (A) (A) (A) (A) (A) (A) (A) (A)
                 (A) (A) (A) (A) (A) (A) (A) (A) (A) (A) (A) (A)
                 (A) (A) (A) (A) (A) (A) (A) (A) (A) (A) (A) (A)
                 (A) (A) (A) (A) (A) (A) (A) (A) (A) (A) (A) (A)
                 (A) (A) (A) (A) (A) (A) (A) (A) (A) (A) (A) (A)
                 (A) (A) (A) (A) (A) (A) (A) (A) (A) (A) (A) (A)
                 (A) (A) (A) (A) (A) (A) (A) (A) (A) (A) (A) (A)
                 (A) (A) (A) (A) (A) (A) (A) (A) (A) (A) (A) (A)
                 (A) (A) (A) (A) (A) (A) (A) (A) (A) (A) (A) (A)
                 (A) (A) (A) (A) (A) (A) (A) (A) (A) (A) (A) (A)
                 (A) (A) (A) (A) (A) (A) (A) (A) (A) (A) (A) (A)
                 (A) (A) (A) (A) (A) (A) (A) (A) (A) (A) (A) (A)
                 (A) (A) (A) (A) (A) (A) (A) (A) (A) (A) (A) (A)
                 (A) (A) (A) (A) (A) (A) (A) (A) (A) (A) (A) (A)
                 (A) (A) (A) (A) (A) (A) (A) (A) (A) (A) (A) (A)
                 (A) (A) (A) (A) (A) (A) (A) (A) (A) (A) (A) (A)
                 (A) (A) (A) (A) (A) (A) (A) (A) (A) (A) (A) (A)
                 (A) (A) (A) (A) (A) (A) (A) (A) (A) (A) (A) (A)
                 (A) (A) (A) (A) (A) (A) (A) (A) (A) (A) (A) (A)
                 (A) (A) (A) (A) (A) (A) (A) (A) (A) (A) (A) (A)
                 (A) (A) (A) (A) (A) (A) (A) (A) (A) (A) (A) (A)
                 (A) (A) (A) (A) (A) (A) (A) (A) (A) (A) (A) (A)
                 (A) (A) (A) (A) (A) (A) (A) (A) (A) (A) (A) (A)
                 (A) (A) (A) (A) (A) (A) (A) (A) (A) (A) (A) (A)
                 (A) (A) (A) (A) (A) (A) (A) (A) (A) (A) (A) (A)
                 (A) (A) (A) (A) (A) (A) (A) (A) (A) (A) (A) (A)
                 (A) (A) (A) (A) (A) (A) (A) (A) (A) (A) (A) (A)
                 (A) (A) (A) (A) (A) (A) (A) (A) (A) (A) (A) (A)
                 (A) (A) (A) (A) (A) (A) (A) (A) (A) (A) (A) (A)
                 (A) (A) (A) (A) (A) (A) (A) (A) (A) (A) (A) (A)
                 (A) (A) (A) (A) (A) (A) (A) (A) (A) (A) (A) (A)
                 (A) (A) (A) (A) (A) (A) (A) (A) (A) (A) (A) (A)
                 (A) (A) (A) (A) (A) (A) (A) (A) (A) (A) (A) (A)
                 (A) (A) (A) (A) (A) (A) (A) (A) (A) (A) (A) (A)
                 (A) (A) (A) (A) (A) (A) (A) (A) (A) (A) (A) (A)
                 (A) (A) (A) (A) (A) (A) (A) (A) (A) (A) (A) (A)
                 (A) (A) (A) (A) (A) (A) (A) (A) (A) (A) (A) (A)
                 (A) (A) (A) (A) (A) (A) (A) (A) (A) (A) (A) (A)
                 (A) (A) (A) (A) (A) (A) (A) (A) (A) (A) (A) (A)
                 (A) (A) (A) (A) (A) (A) (A) (A) (A) (A) (A) (A)
                 (A) (A) (A) (A) (A) (A) (A) (A) (A) (A) (A) (A)
                 (A) (A) (A) (A) (A) (A) (A) (A) (A) (A) (A) (A)
                 (A) (A) (A) (A) (A) (A) (A) (A) (A) (A) (A) (A)
                 (A) (A) (A) (A) (A) (A) (A) (A) (A) (A) (A) (A)
                 (A) (A) (A) (A) (A) (A) (A) (A) (A) (A) (A) (A)
                 (A) (A) (A) (A) (A) (A) (A) (A) (A) (A) (A) (A)
                 (A) (A) (A) (A) (A) (A) (A) (A) (A) (A) (A) (A)
                 (A) (A) (A) (A) (A) (A) (A) (A) (A) (A) (A) (A)
                 (A) (A) (A) (A) (A) (A) (A) (A) (A) (A) (A) (A)
                 (A) (A) (A) (A) (A) (A) (A) (A) (A) (A) (A) (A)
                 (A) (A) (A) (A) (A) (A) (A) (A) (A) (A) (A) (A)
                 (A) (A) (A) (A) (A) (A) (A) (A) (A) (A) (A) (A)
                 (A) (A) (A) (A) (A) (A) (A) (A) (A) (A) (A) (A)
                 (A) (A) (A) (A) (A) (A) (A) (A) (A) (A) (A) (A)
                 (A) (A) (A) (A) (A) (A) (A) (A) (A) (A) (A) (A)
                 (A) (A) (A) (A) (A) (A) (A) (A) (A) (A) (A) (A)
                 (A) (A) (A) (A) (A) (A) (A) (A) (A) (A) (A) (A)
                 (A) (A) (A) (A) (A) (A) (A) (A) (A)
 Beta  Orbitals:
       Occupied  (A) (A) (A) (A) (A) (A) (A) (A) (A) (A) (A) (A)
                 (A) (A) (A) (A) (A) (A) (A) (A) (A) (A) (A) (A)
                 (A) (A) (A) (A) (A) (A) (A) (A) (A) (A) (A) (A)
                 (A) (A) (A) (A) (A) (A) (A) (A) (A) (A) (A) (A)
                 (A) (A) (A) (A) (A) (A) (A) (A) (A) (A) (A) (A)
                 (A) (A) (A) (A) (A) (A) (A) (A) (A) (A) (A) (A)
                 (A) (A) (A) (A) (A) (A) (A) (A) (A) (A) (A) (A)
                 (A) (A) (A) (A) (A) (A) (A) (A) (A) (A) (A) (A)
                 (A) (A) (A) (A) (A) (A) (A) (A) (A) (A) (A) (A)
                 (A) (A) (A) (A) (A) (A) (A) (A) (A) (A) (A) (A)
                 (A) (A) (A) (A) (A) (A) (A) (A) (A) (A) (A) (A)
                 (A) (A) (A) (A) (A) (A) (A) (A) (A) (A) (A) (A)
       Virtual   (A) (A) (A) (A) (A) (A) (A) (A) (A) (A) (A) (A)
                 (A) (A) (A) (A) (A) (A) (A) (A) (A) (A) (A) (A)
                 (A) (A) (A) (A) (A) (A) (A) (A) (A) (A) (A) (A)
                 (A) (A) (A) (A) (A) (A) (A) (A) (A) (A) (A) (A)
                 (A) (A) (A) (A) (A) (A) (A) (A) (A) (A) (A) (A)
                 (A) (A) (A) (A) (A) (A) (A) (A) (A) (A) (A) (A)
                 (A) (A) (A) (A) (A) (A) (A) (A) (A) (A) (A) (A)
                 (A) (A) (A) (A) (A) (A) (A) (A) (A) (A) (A) (A)
                 (A) (A) (A) (A) (A) (A) (A) (A) (A) (A) (A) (A)
                 (A) (A) (A) (A) (A) (A) (A) (A) (A) (A) (A) (A)
                 (A) (A) (A) (A) (A) (A) (A) (A) (A) (A) (A) (A)
                 (A) (A) (A) (A) (A) (A) (A) (A) (A) (A) (A) (A)
                 (A) (A) (A) (A) (A) (A) (A) (A) (A) (A) (A) (A)
                 (A) (A) (A) (A) (A) (A) (A) (A) (A) (A) (A) (A)
                 (A) (A) (A) (A) (A) (A) (A) (A) (A) (A) (A) (A)
                 (A) (A) (A) (A) (A) (A) (A) (A) (A) (A) (A) (A)
                 (A) (A) (A) (A) (A) (A) (A) (A) (A) (A) (A) (A)
                 (A) (A) (A) (A) (A) (A) (A) (A) (A) (A) (A) (A)
                 (A) (A) (A) (A) (A) (A) (A) (A) (A) (A) (A) (A)
                 (A) (A) (A) (A) (A) (A) (A) (A) (A) (A) (A) (A)
                 (A) (A) (A) (A) (A) (A) (A) (A) (A) (A) (A) (A)
                 (A) (A) (A) (A) (A) (A) (A) (A) (A) (A) (A) (A)
                 (A) (A) (A) (A) (A) (A) (A) (A) (A) (A) (A) (A)
                 (A) (A) (A) (A) (A) (A) (A) (A) (A) (A) (A) (A)
                 (A) (A) (A) (A) (A) (A) (A) (A) (A) (A) (A) (A)
                 (A) (A) (A) (A) (A) (A) (A) (A) (A) (A) (A) (A)
                 (A) (A) (A) (A) (A) (A) (A) (A) (A) (A) (A) (A)
                 (A) (A) (A) (A) (A) (A) (A) (A) (A) (A) (A) (A)
                 (A) (A) (A) (A) (A) (A) (A) (A) (A) (A) (A) (A)
                 (A) (A) (A) (A) (A) (A) (A) (A) (A) (A) (A) (A)
                 (A) (A) (A) (A) (A) (A) (A) (A) (A) (A) (A) (A)
                 (A) (A) (A) (A) (A) (A) (A) (A) (A) (A) (A) (A)
                 (A) (A) (A) (A) (A) (A) (A) (A) (A) (A) (A) (A)
                 (A) (A) (A) (A) (A) (A) (A) (A) (A) (A) (A) (A)
                 (A) (A) (A) (A) (A) (A) (A) (A) (A) (A) (A) (A)
                 (A) (A) (A) (A) (A) (A) (A) (A) (A) (A) (A) (A)
                 (A) (A) (A) (A) (A) (A) (A) (A) (A) (A) (A) (A)
                 (A) (A) (A) (A) (A) (A) (A) (A) (A) (A) (A) (A)
                 (A) (A) (A) (A) (A) (A) (A) (A) (A) (A) (A) (A)
                 (A) (A) (A) (A) (A) (A) (A) (A) (A) (A) (A) (A)
                 (A) (A) (A) (A) (A) (A) (A) (A) (A) (A) (A) (A)
                 (A) (A) (A) (A) (A) (A) (A) (A) (A) (A) (A) (A)
                 (A) (A) (A) (A) (A) (A) (A) (A) (A) (A) (A) (A)
                 (A) (A) (A) (A) (A) (A) (A) (A) (A) (A) (A) (A)
                 (A) (A) (A) (A) (A) (A) (A) (A) (A) (A) (A) (A)
                 (A) (A) (A) (A) (A) (A) (A) (A) (A) (A) (A) (A)
                 (A) (A) (A) (A) (A) (A) (A) (A) (A) (A) (A) (A)
                 (A) (A) (A) (A) (A) (A) (A) (A) (A) (A) (A) (A)
                 (A) (A) (A) (A) (A) (A) (A) (A) (A) (A) (A) (A)
                 (A) (A) (A) (A) (A) (A) (A) (A) (A) (A) (A) (A)
                 (A) (A) (A) (A) (A) (A) (A) (A) (A) (A) (A) (A)
                 (A) (A) (A) (A) (A) (A) (A) (A) (A) (A) (A) (A)
                 (A) (A) (A) (A) (A) (A) (A) (A) (A) (A) (A) (A)
                 (A) (A) (A) (A) (A) (A) (A) (A) (A) (A) (A) (A)
                 (A) (A) (A) (A) (A) (A) (A) (A) (A) (A) (A) (A)
                 (A) (A) (A) (A) (A) (A) (A) (A) (A) (A) (A) (A)
                 (A) (A) (A) (A) (A) (A) (A) (A) (A) (A) (A) (A)
                 (A) (A) (A) (A) (A) (A) (A) (A) (A) (A) (A) (A)
                 (A) (A) (A) (A) (A) (A) (A) (A) (A) (A) (A) (A)
                 (A) (A) (A) (A) (A) (A) (A) (A) (A) (A) (A) (A)
                 (A) (A) (A) (A) (A) (A) (A) (A) (A) (A) (A) (A)
                 (A) (A) (A) (A) (A) (A) (A) (A) (A) (A) (A) (A)
                 (A) (A) (A) (A) (A) (A) (A) (A) (A) (A) (A) (A)
                 (A) (A) (A) (A) (A) (A) (A) (A) (A) (A) (A) (A)
                 (A) (A) (A) (A) (A) (A) (A) (A) (A) (A) (A) (A)
                 (A) (A) (A) (A) (A) (A) (A) (A) (A) (A)
 The electronic state is 2-A.
 Alpha  occ. eigenvalues --  -88.39774 -88.37527 -14.41382 -14.26151 -10.26627
 Alpha  occ. eigenvalues --  -10.26001 -10.25891 -10.25653 -10.23734 -10.22443
 Alpha  occ. eigenvalues --  -10.22268 -10.21469 -10.21374 -10.21360 -10.21311
 Alpha  occ. eigenvalues --  -10.21247 -10.20453 -10.20308 -10.20137 -10.20104
 Alpha  occ. eigenvalues --  -10.19965 -10.19952 -10.18849 -10.18818 -10.17263
 Alpha  occ. eigenvalues --  -10.16930 -10.15910 -10.15528 -10.14880 -10.14626
 Alpha  occ. eigenvalues --  -10.13007 -10.12831 -10.12819 -10.12596 -10.12509
 Alpha  occ. eigenvalues --  -10.12434 -10.12408 -10.12354 -10.12276 -10.11907
 Alpha  occ. eigenvalues --   -7.99136  -7.96885  -6.01073  -6.00534  -5.99897
 Alpha  occ. eigenvalues --   -5.98892  -5.98330  -5.97501  -1.26287  -1.14661
 Alpha  occ. eigenvalues --   -1.13778  -1.12022  -1.10453  -1.06912  -1.05067
 Alpha  occ. eigenvalues --   -1.03584  -1.03252  -1.02051  -1.01530  -1.00334
 Alpha  occ. eigenvalues --   -0.99772  -0.98666  -0.97651  -0.94964  -0.94756
 Alpha  occ. eigenvalues --   -0.93025  -0.92784  -0.91782  -0.91484  -0.88956
 Alpha  occ. eigenvalues --   -0.88017  -0.87839  -0.86045  -0.85303  -0.84460
 Alpha  occ. eigenvalues --   -0.82067  -0.81388  -0.80287  -0.79320  -0.78918
 Alpha  occ. eigenvalues --   -0.78191  -0.77246  -0.76975  -0.74866  -0.74717
 Alpha  occ. eigenvalues --   -0.74310  -0.72849  -0.71876  -0.71730  -0.71028
 Alpha  occ. eigenvalues --   -0.70516  -0.69363  -0.68073  -0.67749  -0.67522
 Alpha  occ. eigenvalues --   -0.67249  -0.66730  -0.66247  -0.65919  -0.65762
 Alpha  occ. eigenvalues --   -0.64779  -0.64212  -0.64112  -0.63566  -0.63060
 Alpha  occ. eigenvalues --   -0.62842  -0.62282  -0.61331  -0.60985  -0.60776
 Alpha  occ. eigenvalues --   -0.60138  -0.59780  -0.59623  -0.59294  -0.58843
 Alpha  occ. eigenvalues --   -0.58728  -0.58263  -0.57908  -0.57437  -0.57173
 Alpha  occ. eigenvalues --   -0.56888  -0.55288  -0.55192  -0.54794  -0.54089
 Alpha  occ. eigenvalues --   -0.53393  -0.53052  -0.51939  -0.51199  -0.50363
 Alpha  occ. eigenvalues --   -0.50150  -0.49896  -0.49588  -0.49119  -0.48532
 Alpha  occ. eigenvalues --   -0.48305  -0.46391  -0.45853  -0.43780  -0.42632
 Alpha  occ. eigenvalues --   -0.41819  -0.41280  -0.40974  -0.40336  -0.33579
 Alpha virt. eigenvalues --   -0.09437  -0.09009  -0.08477  -0.06656  -0.05736
 Alpha virt. eigenvalues --   -0.04221  -0.03310  -0.02178  -0.01352  -0.00415
 Alpha virt. eigenvalues --    0.00585   0.00751   0.01797   0.01973   0.02450
 Alpha virt. eigenvalues --    0.03406   0.03756   0.04149   0.04397   0.04590
 Alpha virt. eigenvalues --    0.05004   0.05914   0.06555   0.06950   0.07447
 Alpha virt. eigenvalues --    0.07770   0.08039   0.08426   0.08600   0.08828
 Alpha virt. eigenvalues --    0.08891   0.09326   0.09719   0.09788   0.09994
 Alpha virt. eigenvalues --    0.10243   0.10833   0.11294   0.11429   0.11694
 Alpha virt. eigenvalues --    0.12302   0.12410   0.13193   0.13542   0.13749
 Alpha virt. eigenvalues --    0.14088   0.14309   0.14927   0.15061   0.15422
 Alpha virt. eigenvalues --    0.15537   0.15930   0.16249   0.16441   0.16833
 Alpha virt. eigenvalues --    0.17047   0.17275   0.17406   0.17968   0.18403
[...]
     3 S(33)  Bbb    -0.0047    -0.194    -0.069    -0.065  0.6604  0.6797 -0.3190
              Bcc     0.0165     0.675     0.241     0.225  0.7425 -0.6545  0.1427
 
              Baa    -0.0994   -13.338    -4.759    -4.449 -0.3427  0.7550  0.5591
     4 C(13)  Bbb    -0.0900   -12.078    -4.310    -4.029  0.7096 -0.1820  0.6807
              Bcc     0.1894    25.416     9.069     8.478  0.6156  0.6300 -0.4734
 
              Baa    -0.0016    -0.211    -0.075    -0.070 -0.1434  0.9897 -0.0011
     5 C(13)  Bbb     0.0002     0.030     0.011     0.010  0.1415  0.0216  0.9897
              Bcc     0.0013     0.181     0.065     0.060  0.9795  0.1417 -0.1431
 
              Baa    -0.0054    -0.730    -0.261    -0.244  0.8140  0.4833 -0.3221
     6 C(13)  Bbb     0.0026     0.344     0.123     0.115  0.5183 -0.3542  0.7784
              Bcc     0.0029     0.386     0.138     0.129 -0.2622  0.8006  0.5388
 
              Baa    -0.0346    -4.638    -1.655    -1.547  0.3572  0.9165 -0.1802
     7 C(13)  Bbb     0.0171     2.299     0.820     0.767 -0.4608  0.3407  0.8195
              Bcc     0.0174     2.339     0.835     0.780  0.8125 -0.2097  0.5440
 
              Baa    -0.0739    -9.914    -3.538    -3.307  0.5476  0.6481 -0.5292
     8 C(13)  Bbb     0.0339     4.553     1.624     1.519 -0.1760  0.7076  0.6844
              Bcc     0.0400     5.362     1.913     1.788  0.8180 -0.2817  0.5015
 
              Baa    -0.0027    -1.416    -0.505    -0.472  0.7525 -0.3868  0.5331
     9 H(1)   Bbb    -0.0008    -0.407    -0.145    -0.136  0.6354  0.6391 -0.4333
              Bcc     0.0034     1.823     0.651     0.608 -0.1731  0.6648  0.7267
 
              Baa    -0.0006    -0.082    -0.029    -0.027 -0.0191  0.9939 -0.1085
    10 C(13)  Bbb    -0.0002    -0.023    -0.008    -0.008  0.3305  0.1087  0.9375
              Bcc     0.0008     0.105     0.038     0.035  0.9436 -0.0179 -0.3306
 
              Baa    -0.0009    -0.117    -0.042    -0.039  0.5036  0.2309  0.8325
    11 C(13)  Bbb    -0.0001    -0.014    -0.005    -0.005  0.2479  0.8844 -0.3954
              Bcc     0.0010     0.131     0.047     0.044  0.8276 -0.4055 -0.3881
 
              Baa    -0.0007    -0.095    -0.034    -0.032  0.3976  0.8684 -0.2963
    12 C(13)  Bbb    -0.0001    -0.010    -0.004    -0.003  0.7798 -0.1496  0.6078
              Bcc     0.0008     0.106     0.038     0.035 -0.4835  0.4727  0.7367
 
              Baa    -0.0005    -0.068    -0.024    -0.023  0.3078  0.5229  0.7949
    13 C(13)  Bbb    -0.0002    -0.025    -0.009    -0.008 -0.0653  0.8451 -0.5306
              Bcc     0.0007     0.093     0.033     0.031  0.9492 -0.1114 -0.2943
 
              Baa    -0.0005    -0.262    -0.093    -0.087 -0.0889  0.9587  0.2701
    14 H(1)   Bbb    -0.0003    -0.155    -0.055    -0.052  0.3177 -0.2297  0.9200
              Bcc     0.0008     0.417     0.149     0.139  0.9440  0.1676 -0.2842
 
              Baa    -0.0005    -0.250    -0.089    -0.083  0.3913  0.7623 -0.5155
    15 H(1)   Bbb    -0.0003    -0.134    -0.048    -0.045  0.4226  0.3487  0.8365
              Bcc     0.0007     0.384     0.137     0.128  0.8175 -0.5452 -0.1857
 
              Baa    -0.0003    -0.144    -0.052    -0.048  0.2839  0.9428 -0.1748
    16 H(1)   Bbb    -0.0002    -0.090    -0.032    -0.030  0.1719  0.1293  0.9766
              Bcc     0.0004     0.235     0.084     0.078  0.9433 -0.3073 -0.1254
 
              Baa    -0.0743    -9.975    -3.559    -3.327  0.8244 -0.5013  0.2629
    17 C(13)  Bbb    -0.0658    -8.828    -3.150    -2.945 -0.0643  0.3784  0.9234
              Bcc     0.1401    18.803     6.710     6.272  0.5623  0.7782 -0.2797
 
              Baa    -0.0056    -3.004    -1.072    -1.002  0.9675  0.0318  0.2509
    18 H(1)   Bbb    -0.0037    -1.984    -0.708    -0.662  0.1461  0.7395 -0.6571
              Bcc     0.0093     4.988     1.780     1.664 -0.2064  0.6724  0.7108
 
              Baa    -0.0017    -0.896    -0.320    -0.299  0.0134  0.9952 -0.0973
    19 H(1)   Bbb    -0.0004    -0.231    -0.082    -0.077  0.2153  0.0922  0.9722
              Bcc     0.0021     1.126     0.402     0.376  0.9765 -0.0340 -0.2130
 
              Baa    -0.0032    -1.690    -0.603    -0.564  0.5645  0.7308 -0.3839
    20 H(1)   Bbb    -0.0012    -0.666    -0.238    -0.222  0.0634  0.4253  0.9028
              Bcc     0.0044     2.356     0.841     0.786  0.8230 -0.5339  0.1938
 
              Baa    -0.0058    -3.107    -1.109    -1.036  0.3686 -0.2366  0.8990
    21 H(1)   Bbb    -0.0038    -2.023    -0.722    -0.675  0.7812  0.6031 -0.1616
              Bcc     0.0096     5.130     1.831     1.711 -0.5039  0.7618  0.4071
 
              Baa    -0.2081    -8.531    -3.044    -2.846  0.7693 -0.3496  0.5347
    22 S(33)  Bbb    -0.1795    -7.359    -2.626    -2.455 -0.1922  0.6715  0.7156
              Bcc     0.3876    15.890     5.670     5.300  0.6092  0.6533 -0.4494
 
              Baa    -0.0003    -0.012    -0.004    -0.004  0.0136  0.9863  0.1641
    23 N(14)  Bbb     0.0000     0.000     0.000     0.000  0.2951 -0.1608  0.9418
              Bcc     0.0003     0.012     0.004     0.004  0.9554  0.0356 -0.2933
 
              Baa    -0.0002    -0.022    -0.008    -0.007  0.0135  0.9761 -0.2170
    24 C(13)  Bbb    -0.0001    -0.016    -0.006    -0.005  0.2405  0.2075  0.9482
              Bcc     0.0003     0.038     0.014     0.013  0.9706 -0.0650 -0.2320
 
              Baa    -0.0001    -0.016    -0.006    -0.005  0.1165  0.7823  0.6119
    25 C(13)  Bbb    -0.0001    -0.010    -0.004    -0.003  0.1492 -0.6229  0.7680
              Bcc     0.0002     0.026     0.009     0.009  0.9819  0.0018 -0.1893
 
              Baa    -0.0001    -0.020    -0.007    -0.007  0.3107  0.7002  0.6428
    26 C(13)  Bbb    -0.0001    -0.013    -0.005    -0.004 -0.1401  0.7026 -0.6977
              Bcc     0.0002     0.033     0.012     0.011  0.9401 -0.1267 -0.3164
 
              Baa    -0.0001    -0.012    -0.004    -0.004 -0.0120  0.8185 -0.5743
    27 C(13)  Bbb    -0.0001    -0.009    -0.003    -0.003  0.1973  0.5650  0.8012
              Bcc     0.0002     0.021     0.008     0.007  0.9803 -0.1037 -0.1682
 
              Baa    -0.0001    -0.015    -0.005    -0.005  0.0389  0.8257 -0.5628
    28 C(13)  Bbb    -0.0001    -0.011    -0.004    -0.004  0.3597  0.5139  0.7788
              Bcc     0.0002     0.027     0.009     0.009  0.9323 -0.2327 -0.2769
 
              Baa    -0.0001    -0.012    -0.004    -0.004  0.2869  0.7738  0.5648
    29 C(13)  Bbb    -0.0000    -0.005    -0.002    -0.002  0.1158 -0.6133  0.7814
              Bcc     0.0001     0.017     0.006     0.006  0.9509 -0.1588 -0.2655
 
              Baa    -0.0001    -0.056    -0.020    -0.019 -0.0274  0.9822  0.1857
    30 H(1)   Bbb    -0.0001    -0.049    -0.018    -0.016  0.1025 -0.1820  0.9779
              Bcc     0.0002     0.105     0.037     0.035  0.9944  0.0459 -0.0957
 
              Baa    -0.0002    -0.098    -0.035    -0.033  0.1910  0.9781 -0.0825
    31 H(1)   Bbb    -0.0001    -0.076    -0.027    -0.025  0.3354  0.0140  0.9420
              Bcc     0.0003     0.174     0.062     0.058  0.9225 -0.2076 -0.3254
 
              Baa    -0.0001    -0.034    -0.012    -0.011  0.0760  0.9971  0.0071
    32 H(1)   Bbb    -0.0001    -0.031    -0.011    -0.010  0.1338 -0.0172  0.9909
              Bcc     0.0001     0.065     0.023     0.022  0.9881 -0.0743 -0.1347
 
              Baa    -0.0001    -0.051    -0.018    -0.017  0.2392  0.9555 -0.1729
    33 H(1)   Bbb    -0.0001    -0.045    -0.016    -0.015  0.3670  0.0759  0.9271
              Bcc     0.0002     0.096     0.034     0.032  0.8989 -0.2852 -0.3325
 
              Baa    -0.0001    -0.033    -0.012    -0.011  0.2445  0.9670  0.0712
    34 H(1)   Bbb    -0.0001    -0.031    -0.011    -0.010  0.2247 -0.1279  0.9660
              Bcc     0.0001     0.064     0.023     0.021  0.9433 -0.2202 -0.2485
 
              Baa    -0.0002    -0.028    -0.010    -0.009 -0.1337  0.9421  0.3074
    35 C(13)  Bbb    -0.0002    -0.020    -0.007    -0.007  0.2043 -0.2773  0.9388
              Bcc     0.0004     0.048     0.017     0.016  0.9697  0.1883 -0.1554
 
              Baa    -0.0001    -0.020    -0.007    -0.007 -0.1081  0.8702  0.4807
    36 C(13)  Bbb    -0.0001    -0.016    -0.006    -0.005  0.3012 -0.4322  0.8500
              Bcc     0.0003     0.036     0.013     0.012  0.9474  0.2367 -0.2154
 
              Baa    -0.0002    -0.032    -0.012    -0.011 -0.2044  0.7817  0.5892
    37 C(13)  Bbb    -0.0002    -0.022    -0.008    -0.007  0.2312 -0.5463  0.8050
              Bcc     0.0004     0.054     0.019     0.018  0.9512  0.3008 -0.0690
 
              Baa    -0.0001    -0.017    -0.006    -0.006 -0.2186  0.8155  0.5359
    38 C(13)  Bbb    -0.0001    -0.014    -0.005    -0.005  0.3298 -0.4551  0.8271
              Bcc     0.0002     0.031     0.011     0.010  0.9184  0.3575 -0.1695
 
              Baa    -0.0002    -0.026    -0.009    -0.009 -0.3157  0.6838  0.6579
    39 C(13)  Bbb    -0.0001    -0.020    -0.007    -0.007  0.2856 -0.5927  0.7531
              Bcc     0.0003     0.046     0.016     0.015  0.9048  0.4257 -0.0082
 
              Baa    -0.0001    -0.019    -0.007    -0.006 -0.3131  0.7302  0.6073
    40 C(13)  Bbb    -0.0001    -0.016    -0.006    -0.005  0.3154 -0.5232  0.7917
              Bcc     0.0003     0.035     0.012     0.012  0.8958  0.4394 -0.0665
 
              Baa    -0.0001    -0.067    -0.024    -0.022 -0.0736  0.9353  0.3461
    41 H(1)   Bbb    -0.0001    -0.057    -0.020    -0.019  0.3186 -0.3068  0.8969
              Bcc     0.0002     0.123     0.044     0.041  0.9450  0.1762 -0.2754
 
              Baa    -0.0003    -0.184    -0.066    -0.061 -0.2249  0.8407  0.4927
    42 H(1)   Bbb    -0.0002    -0.123    -0.044    -0.041  0.1778 -0.4617  0.8690
              Bcc     0.0006     0.307     0.110     0.102  0.9580  0.2830 -0.0457
 
              Baa    -0.0001    -0.053    -0.019    -0.018 -0.2090  0.8077  0.5513
    43 H(1)   Bbb    -0.0001    -0.046    -0.016    -0.015  0.3780 -0.4532  0.8073
              Bcc     0.0002     0.099     0.035     0.033  0.9019  0.3771 -0.2106
 
              Baa    -0.0002    -0.110    -0.039    -0.037 -0.4189  0.5921  0.6884
    44 H(1)   Bbb    -0.0002    -0.082    -0.029    -0.027  0.2935 -0.6291  0.7197
              Bcc     0.0004     0.191     0.068     0.064  0.8593  0.5036  0.0898
 
              Baa    -0.0001    -0.063    -0.022    -0.021 -0.3481  0.6367  0.6880
    45 H(1)   Bbb    -0.0001    -0.053    -0.019    -0.018  0.3795 -0.5754  0.7245
              Bcc     0.0002     0.116     0.041     0.039  0.8572  0.5133 -0.0413
 
              Baa    -0.5711   -22.026    -7.859    -7.347  0.0298  0.9961  0.0827
    46 N(14)  Bbb    -0.5705   -22.003    -7.851    -7.340  0.7384 -0.0777  0.6699
              Bcc     1.1416    44.029    15.711    14.686 -0.6737 -0.0411  0.7378
 
              Baa    -0.0661    -8.864    -3.163    -2.957  0.0336  0.2705  0.9621
    47 C(13)  Bbb     0.0279     3.746     1.337     1.250  0.9832  0.1640 -0.0804
              Bcc     0.0381     5.118     1.826     1.707 -0.1796  0.9486 -0.2604
 
              Baa    -0.0719    -9.653    -3.444    -3.220  0.3450  0.9145 -0.2112
    48 C(13)  Bbb    -0.0631    -8.473    -3.023    -2.826  0.9264 -0.3679 -0.0802
              Bcc     0.1351    18.126     6.468     6.046  0.1510  0.1680  0.9741
 
              Baa    -0.0735    -9.864    -3.520    -3.290  0.7760 -0.6174  0.1293
    49 C(13)  Bbb    -0.0645    -8.658    -3.089    -2.888  0.6196  0.7076 -0.3398
              Bcc     0.1380    18.522     6.609     6.178  0.1183  0.3438  0.9316
 
              Baa    -0.0784   -10.526    -3.756    -3.511 -0.0898  0.2306  0.9689
    50 C(13)  Bbb     0.0362     4.862     1.735     1.622  0.9859  0.1588  0.0536
              Bcc     0.0422     5.664     2.021     1.889 -0.1416  0.9600 -0.2416
 
              Baa    -0.0801   -10.742    -3.833    -3.583 -0.0697  0.1723  0.9826
    51 C(13)  Bbb     0.0369     4.957     1.769     1.654  0.8975  0.4409 -0.0136
              Bcc     0.0431     5.785     2.064     1.930 -0.4355  0.8809 -0.1854
 
              Baa    -0.0818   -10.981    -3.918    -3.663  0.9483  0.3125  0.0557
    52 C(13)  Bbb    -0.0736    -9.873    -3.523    -3.293 -0.2940  0.9307 -0.2176
              Bcc     0.1554    20.854     7.441     6.956 -0.1199  0.1900  0.9744
 
              Baa    -0.0050    -2.685    -0.958    -0.896 -0.4792  0.8234  0.3039
    53 H(1)   Bbb    -0.0033    -1.737    -0.620    -0.579  0.1847 -0.2439  0.9520
              Bcc     0.0083     4.422     1.578     1.475  0.8581  0.5123 -0.0352
 
              Baa    -0.0047    -2.528    -0.902    -0.843 -0.0109 -0.7040  0.7101
    54 H(1)   Bbb    -0.0035    -1.859    -0.663    -0.620 -0.0467  0.7097  0.7029
              Bcc     0.0082     4.387     1.565     1.463  0.9988  0.0255  0.0406
 
              Baa    -0.0025    -1.342    -0.479    -0.448  0.1594  0.1897  0.9688
    55 H(1)   Bbb    -0.0018    -0.965    -0.344    -0.322  0.9730 -0.1960 -0.1217
              Bcc     0.0043     2.308     0.823     0.770  0.1668  0.9621 -0.2158
 
              Baa    -0.0026    -1.379    -0.492    -0.460  0.1819  0.3931  0.9013
    56 H(1)   Bbb    -0.0019    -1.023    -0.365    -0.341  0.7181  0.5730 -0.3948
              Bcc     0.0045     2.402     0.857     0.801 -0.6717  0.7191 -0.1781
 
              Baa    -0.0103    -5.476    -1.954    -1.826  0.9534  0.3002  0.0312
    57 H(1)   Bbb    -0.0006    -0.321    -0.114    -0.107 -0.0941  0.1973  0.9758
              Bcc     0.0109     5.796     2.068     1.933 -0.2868  0.9332 -0.2163
 
              Baa    -0.0633    -8.488    -3.029    -2.831  0.8625 -0.4883 -0.1326
    58 C(13)  Bbb     0.0267     3.583     1.278     1.195 -0.0266 -0.3054  0.9518
              Bcc     0.0366     4.906     1.750     1.636  0.5053  0.8175  0.2764
 
              Baa    -0.0716    -9.613    -3.430    -3.206  0.3938  0.9011 -0.1815
    59 C(13)  Bbb    -0.0628    -8.430    -3.008    -2.812  0.0781  0.1640  0.9834
              Bcc     0.1345    18.043     6.438     6.018  0.9159 -0.4014 -0.0058
 
              Baa    -0.0735    -9.867    -3.521    -3.291  0.3323  0.3854  0.8608
    60 C(13)  Bbb    -0.0643    -8.627    -3.078    -2.878  0.4523  0.7358 -0.5040
              Bcc     0.1378    18.494     6.599     6.169  0.8277 -0.5568 -0.0702
 
              Baa    -0.0779   -10.456    -3.731    -3.488  0.8772 -0.4076 -0.2538
    61 C(13)  Bbb     0.0360     4.833     1.724     1.612  0.0850 -0.3885  0.9175
              Bcc     0.0419     5.624     2.007     1.876  0.4726  0.8264  0.3062
 
              Baa    -0.0801   -10.743    -3.834    -3.584  0.9072 -0.3561 -0.2240
    62 C(13)  Bbb     0.0369     4.955     1.768     1.653 -0.0450 -0.6116  0.7899
              Bcc     0.0431     5.788     2.065     1.931  0.4183  0.7065  0.5709
 
              Baa    -0.0821   -11.023    -3.933    -3.677  0.0499 -0.5221  0.8514
    63 C(13)  Bbb    -0.0739    -9.911    -3.537    -3.306  0.4516  0.7721  0.4471
              Bcc     0.1560    20.934     7.470     6.983  0.8908 -0.3622 -0.2743
 
              Baa    -0.0050    -2.689    -0.959    -0.897 -0.0634  0.7427  0.6666
    64 H(1)   Bbb    -0.0033    -1.751    -0.625    -0.584  0.9944 -0.0095  0.1052
              Bcc     0.0083     4.440     1.584     1.481 -0.0845 -0.6696  0.7379
 
              Baa    -0.0048    -2.544    -0.908    -0.849  0.8594  0.5097  0.0394
    65 H(1)   Bbb    -0.0035    -1.871    -0.668    -0.624 -0.4990  0.8195  0.2819
              Bcc     0.0083     4.416     1.576     1.473  0.1114 -0.2619  0.9586
 
              Baa    -0.0025    -1.344    -0.479    -0.448  0.9055 -0.4242 -0.0100
    66 H(1)   Bbb    -0.0018    -0.938    -0.335    -0.313  0.0083 -0.0058  0.9999
              Bcc     0.0043     2.281     0.814     0.761  0.4242  0.9056  0.0018
 
              Baa    -0.0026    -1.382    -0.493    -0.461  0.7971 -0.6036 -0.0182
    67 H(1)   Bbb    -0.0019    -1.011    -0.361    -0.337  0.4609  0.6275 -0.6275
              Bcc     0.0045     2.394     0.854     0.798  0.3902  0.4918  0.7784
 
              Baa    -0.0103    -5.494    -1.960    -1.833  0.0292 -0.5063  0.8619
    68 H(1)   Bbb    -0.0006    -0.329    -0.118    -0.110  0.8925 -0.3751 -0.2506
              Bcc     0.0109     5.823     2.078     1.942  0.4502  0.7765  0.4409
 

 ---------------------------------------------------------------------------------

 No NMR shielding tensors so no spin-rotation constants.
 Leave Link  601 at Wed Jan 27 15:21:51 2021, MaxMem=  4026531840 cpu:              14.5 elap:               1.9
 (Enter /opt/ohpc/pub/libs/gaussian/g16-A.03/sandybridge/g16/l9999.exe)

 Test job not archived.
 1\1\GINC-CNODE210\SP\ULC-wHPBE\TZVP\C36H28N2S2(1+,2)\RDU230\27-Jan-202
 1\0\\#P LC-wHPBE/TZVP iop(3/107=0328100000, 3/108=0328100000) scf=(con
 ver=6,fermi,ndamp=35,noincfock,novaracc,vshift=500,xqc)\\H28 C36 S2 N2
 \\1,2\C,0,-2.604951,0.985352,-0.477595\C,0,-1.595468,1.227646,-1.39689
 7\S,0,-0.459746,2.557842,-1.073663\C,0,-1.509976,0.467226,-2.564163\C,
 0,1.043777,0.455726,-0.021717\C,0,1.03833,1.682104,-0.668307\C,0,-3.55
 7585,-0.001751,-0.697168\C,0,-2.447111,-0.539154,-2.764444\H,0,-0.5963
 18,-0.14267,-4.605045\C,0,2.238728,-0.147647,0.319798\C,0,2.246539,2.2
 97832,-0.961919\C,0,3.442101,1.694718,-0.621166\C,0,3.453096,0.46292,0
 .023837\H,0,2.234263,-1.106243,0.827797\H,0,2.253931,3.248348,-1.48634
 6\H,0,4.381679,2.178238,-0.866461\C,0,-3.461673,-0.764082,-1.856276\H,
 0,-2.646669,1.585519,0.424718\H,0,0.106936,-0.032641,0.224382\H,0,-2.4
 04245,-1.146243,-3.663282\H,0,-4.192893,-1.542008,-2.047877\S,0,-0.233
 558,0.817463,-3.737465\N,0,4.673686,-0.159547,0.368747\C,0,5.732508,0.
 612661,0.896564\C,0,7.045695,0.37796,0.499452\C,0,5.475865,1.622329,1.
 819567\C,0,8.078745,1.133154,1.024558\C,0,6.512871,2.384632,2.326214\C
 ,0,7.820306,2.143178,1.9369\H,0,7.251646,-0.403669,-0.22406\H,0,4.4548
 3,1.807304,2.136118\H,0,9.097402,0.93653,0.704866\H,0,6.295127,3.16901
 3,3.044416\H,0,8.632202,2.738403,2.341339\C,0,4.837054,-1.548147,0.168
 533\C,0,5.516065,-2.321618,1.105787\C,0,4.319017,-2.163542,-0.967486\C
 ,0,5.679987,-3.679833,0.902534\C,0,4.472338,-3.525567,-1.15401\C,0,5.1
 56657,-4.292005,-0.224805\H,0,5.917204,-1.848815,1.995947\H,0,3.79167,
 -1.566068,-1.703651\H,0,6.213214,-4.268058,1.642948\H,0,4.061647,-3.98
 973,-2.045325\H,0,5.281223,-5.35883,-0.377899\N,0,-4.591369,-0.225236,
 0.235572\C,0,-4.996809,-1.544618,0.539366\C,0,-6.345932,-1.849462,0.69
 3639\C,0,-4.053605,-2.557013,0.688173\C,0,-6.738551,-3.140118,0.998819
 \C,0,-4.45592,-3.848924,0.975713\C,0,-5.798707,-4.148587,1.137139\H,0,
 -7.085839,-1.064984,0.575406\H,0,-2.999778,-2.324624,0.576668\H,0,-7.7
 94748,-3.361033,1.117399\H,0,-3.707423,-4.627077,1.088273\H,0,-6.11071
 1,-5.161215,1.369943\C,0,-5.228462,0.872905,0.859345\C,0,-5.548183,0.8
 24769,2.212595\C,0,-5.541916,2.014931,0.129127\C,0,-6.178047,1.897088,
 2.818017\C,0,-6.155123,3.090236,0.746513\C,0,-6.481192,3.037227,2.0917
 54\H,0,-5.300925,-0.061617,2.787177\H,0,-5.299559,2.056134,-0.927579\H
 ,0,-6.421719,1.844307,3.874525\H,0,-6.390696,3.975287,0.163884\H,0,-6.
 967632,3.87989,2.571608\\Version=EM64L-G16RevA.03\State=2-A\HF=-2293.3
 357824\S2=0.804899\S2-1=0.\S2A=0.752849\RMSD=1.563e-08\Dipole=-6.92634
 65,-1.0537233,0.0578153\Quadrupole=52.8325711,-21.3747061,-31.457865,5
 .5519852,-10.7442362,4.7836229\PG=C01 [X(C36H28N2S2)]\\@


 You don't have to suffer to be a poet.
 Adolescence is enough suffering for anyone.
                             -- John Ciardi
 Job cpu time:       1 days  4 hours 56 minutes 25.7 seconds.
 Elapsed time:       0 days  3 hours 39 minutes 25.9 seconds.
 File lengths (MBytes):  RWF=    464 Int=      0 D2E=      0 Chk=     68 Scr=      8
 Normal termination of Gaussian 16 at Wed Jan 27 15:21:51 2021.
