 Entering Gaussian System, Link 0=g16
 Input=mol_ta_pa_whol_tune_c5.gjf
 Output=mol_ta_pa_whol_tune_c5.log
 Initial command:
 /opt/ohpc/pub/libs/gaussian/g16-A.03/sandybridge/g16/l1.exe "/mnt/gpfs2_4m/scratch/rdu230/ondemand/projects/init_structures/gaussian/wtuning/mol_ta_pa_whol/tuning_mol_ta_pa_whol_ocycle0/Gau-73475.inp" -scrdir="/mnt/gpfs2_4m/scratch/rdu230/ondemand/projects/init_structures/gaussian/wtuning/mol_ta_pa_whol/tuning_mol_ta_pa_whol_ocycle0/"
 Entering Link 1 = /opt/ohpc/pub/libs/gaussian/g16-A.03/sandybridge/g16/l1.exe PID=     73476.
  
 Copyright (c) 1988,1990,1992,1993,1995,1998,2003,2009,2016,
            Gaussian, Inc.  All Rights Reserved.
  
 This is part of the Gaussian(R) 16 program.  It is based on
 the Gaussian(R) 09 system (copyright 2009, Gaussian, Inc.),
 the Gaussian(R) 03 system (copyright 2003, Gaussian, Inc.),
 the Gaussian(R) 98 system (copyright 1998, Gaussian, Inc.),
 the Gaussian(R) 94 system (copyright 1995, Gaussian, Inc.),
 the Gaussian 92(TM) system (copyright 1992, Gaussian, Inc.),
 the Gaussian 90(TM) system (copyright 1990, Gaussian, Inc.),
 the Gaussian 88(TM) system (copyright 1988, Gaussian, Inc.),
 the Gaussian 86(TM) system (copyright 1986, Carnegie Mellon
 University), and the Gaussian 82(TM) system (copyright 1983,
 Carnegie Mellon University). Gaussian is a federally registered
 trademark of Gaussian, Inc.
  
 This software contains proprietary and confidential information,
 including trade secrets, belonging to Gaussian, Inc.
  
 This software is provided under written license and may be
 used, copied, transmitted, or stored only in accord with that
 written license.
  
 The following legend is applicable only to US Government
 contracts under FAR:
  
                    RESTRICTED RIGHTS LEGEND
  
 Use, reproduction and disclosure by the US Government is
 subject to restrictions as set forth in subparagraphs (a)
 and (c) of the Commercial Computer Software - Restricted
 Rights clause in FAR 52.227-19.
  
 Gaussian, Inc.
 340 Quinnipiac St., Bldg. 40, Wallingford CT 06492
  
  
 ---------------------------------------------------------------
 Warning -- This program may not be used in any manner that
 competes with the business of Gaussian, Inc. or will provide
 assistance to any competitor of Gaussian, Inc.  The licensee
 of this program is prohibited from giving any competitor of
 Gaussian, Inc. access to this program.  By using this program,
 the user acknowledges that Gaussian, Inc. is engaged in the
 business of creating and licensing software in the field of
 computational chemistry and represents and warrants to the
 licensee that it is not a competitor of Gaussian, Inc. and that
 it will not use this program in any manner prohibited above.
 ---------------------------------------------------------------
  

 Cite this work as:
 Gaussian 16, Revision A.03,
 M. J. Frisch, G. W. Trucks, H. B. Schlegel, G. E. Scuseria, 
 M. A. Robb, J. R. Cheeseman, G. Scalmani, V. Barone, 
 G. A. Petersson, H. Nakatsuji, X. Li, M. Caricato, A. V. Marenich, 
 J. Bloino, B. G. Janesko, R. Gomperts, B. Mennucci, H. P. Hratchian, 
 J. V. Ortiz, A. F. Izmaylov, J. L. Sonnenberg, D. Williams-Young, 
 F. Ding, F. Lipparini, F. Egidi, J. Goings, B. Peng, A. Petrone, 
 T. Henderson, D. Ranasinghe, V. G. Zakrzewski, J. Gao, N. Rega, 
 G. Zheng, W. Liang, M. Hada, M. Ehara, K. Toyota, R. Fukuda, 
 J. Hasegawa, M. Ishida, T. Nakajima, Y. Honda, O. Kitao, H. Nakai, 
 T. Vreven, K. Throssell, J. A. Montgomery, Jr., J. E. Peralta, 
 F. Ogliaro, M. J. Bearpark, J. J. Heyd, E. N. Brothers, K. N. Kudin, 
 V. N. Staroverov, T. A. Keith, R. Kobayashi, J. Normand, 
 K. Raghavachari, A. P. Rendell, J. C. Burant, S. S. Iyengar, 
 J. Tomasi, M. Cossi, J. M. Millam, M. Klene, C. Adamo, R. Cammi, 
 J. W. Ochterski, R. L. Martin, K. Morokuma, O. Farkas, 
 J. B. Foresman, and D. J. Fox, Gaussian, Inc., Wallingford CT, 2016.
 
 ******************************************
 Gaussian 16:  EM64L-G16RevA.03 25-Dec-2016
                28-Jan-2021 
 ******************************************
 %mem=30GB
 %nproc=8
 Will use up to    8 processors via shared memory.
 ----------------------------------------------------------------------
 #P LC-wHPBE/TZVP iop(3/107=0237400000, 3/108=0237400000) scf=(conver=6
 ,fermi,ndamp=35,noincfock,novaracc,vshift=500,xqc)
 ----------------------------------------------------------------------
 1/38=1,172=1/1;
 2/12=2,17=6,18=5,40=1/2;
 3/5=19,7=101,11=2,25=1,30=1,74=-71,107=237400000,108=237400000/1,2,3;
 4//1;
 5/5=100002,6=6,8=3,10=500,13=1,18=-1,22=13,38=1,93=35/2,8;
 6/7=2,8=2,9=2,10=2,28=1/1;
 99/5=1,9=1/99;
 Leave Link    1 at Thu Jan 28 03:43:37 2021, MaxMem=  4026531840 cpu:               1.6 elap:               0.2
 (Enter /opt/ohpc/pub/libs/gaussian/g16-A.03/sandybridge/g16/l101.exe)
 -------------
 H28 C36 S2 N2
 -------------
 Symbolic Z-matrix:
 Charge =  1 Multiplicity = 2
 C                    -2.60495   0.98535  -0.4776 
 C                    -1.59547   1.22765  -1.3969 
 S                    -0.45975   2.55784  -1.07366 
 C                    -1.50998   0.46723  -2.56416 
 C                     1.04378   0.45573  -0.02172 
 C                     1.03833   1.6821   -0.66831 
 C                    -3.55759  -0.00175  -0.69717 
 C                    -2.44711  -0.53915  -2.76444 
 H                    -0.59632  -0.14267  -4.60505 
 C                     2.23873  -0.14765   0.3198 
 C                     2.24654   2.29783  -0.96192 
 C                     3.4421    1.69472  -0.62117 
 C                     3.4531    0.46292   0.02384 
 H                     2.23426  -1.10624   0.8278 
 H                     2.25393   3.24835  -1.48635 
 H                     4.38168   2.17824  -0.86646 
 C                    -3.46167  -0.76408  -1.85628 
 H                    -2.64667   1.58552   0.42472 
 H                     0.10694  -0.03264   0.22438 
 H                    -2.40424  -1.14624  -3.66328 
 H                    -4.19289  -1.54201  -2.04788 
 S                    -0.23356   0.81746  -3.73747 
 N                     4.67369  -0.15955   0.36875 
 C                     5.73251   0.61266   0.89656 
 C                     7.0457    0.37796   0.49945 
 C                     5.47587   1.62233   1.81957 
 C                     8.07874   1.13315   1.02456 
 C                     6.51287   2.38463   2.32621 
 C                     7.82031   2.14318   1.9369 
 H                     7.25165  -0.40367  -0.22406 
 H                     4.45483   1.8073    2.13612 
 H                     9.0974    0.93653   0.70487 
 H                     6.29513   3.16901   3.04442 
 H                     8.6322    2.7384    2.34134 
 C                     4.83705  -1.54815   0.16853 
 C                     5.51607  -2.32162   1.10579 
 C                     4.31902  -2.16354  -0.96749 
 C                     5.67999  -3.67983   0.90253 
 C                     4.47234  -3.52557  -1.15401 
 C                     5.15666  -4.29201  -0.22481 
 H                     5.9172   -1.84882   1.99595 
 H                     3.79167  -1.56607  -1.70365 
 H                     6.21321  -4.26806   1.64295 
 H                     4.06165  -3.98973  -2.04533 
 H                     5.28122  -5.35883  -0.3779 
 N                    -4.59137  -0.22524   0.23557 
 C                    -4.99681  -1.54462   0.53937 
 C                    -6.34593  -1.84946   0.69364 
 C                    -4.05361  -2.55701   0.68817 
 C                    -6.73855  -3.14012   0.99882 
 C                    -4.45592  -3.84892   0.97571 
 C                    -5.79871  -4.14859   1.13714 
 H                    -7.08584  -1.06498   0.57541 
 H                    -2.99978  -2.32462   0.57667 
 H                    -7.79475  -3.36103   1.1174 
 H                    -3.70742  -4.62708   1.08827 
 H                    -6.11071  -5.16122   1.36994 
 C                    -5.22846   0.87291   0.85935 
 C                    -5.54818   0.82477   2.2126 
 C                    -5.54192   2.01493   0.12913 
 C                    -6.17805   1.89709   2.81802 
 C                    -6.15512   3.09024   0.74651 
 C                    -6.48119   3.03723   2.09175 
 H                    -5.30093  -0.06162   2.78718 
 H                    -5.29956   2.05613  -0.92758 
 H                    -6.42172   1.84431   3.87453 
 H                    -6.3907    3.97529   0.16388 
 H                    -6.96763   3.87989   2.57161 
 
 ITRead=  0  0  0  0  0  0  0  0  0  0  0  0  0  0  0  0  0  0  0  0
 ITRead=  0  0  0  0  0  0  0  0  0  0  0  0  0  0  0  0  0  0  0  0
 ITRead=  0  0  0  0  0  0  0  0  0  0  0  0  0  0  0  0  0  0  0  0
 ITRead=  0  0  0  0  0  0  0  0
 MicOpt= -1 -1 -1 -1 -1 -1 -1 -1 -1 -1 -1 -1 -1 -1 -1 -1 -1 -1 -1 -1
 MicOpt= -1 -1 -1 -1 -1 -1 -1 -1 -1 -1 -1 -1 -1 -1 -1 -1 -1 -1 -1 -1
 MicOpt= -1 -1 -1 -1 -1 -1 -1 -1 -1 -1 -1 -1 -1 -1 -1 -1 -1 -1 -1 -1
 MicOpt= -1 -1 -1 -1 -1 -1 -1 -1
 NAtoms=     68 NQM=       68 NQMF=       0 NMMI=      0 NMMIF=      0
                NMic=       0 NMicF=      0.
                    Isotopes and Nuclear Properties:
 (Nuclear quadrupole moments (NQMom) in fm**2, nuclear magnetic moments (NMagM)
  in nuclear magnetons)

  Atom         1           2           3           4           5           6           7           8           9          10
 IAtWgt=          12          12          32          12          12          12          12          12           1          12
 AtmWgt=  12.0000000  12.0000000  31.9720718  12.0000000  12.0000000  12.0000000  12.0000000  12.0000000   1.0078250  12.0000000
 NucSpn=           0           0           0           0           0           0           0           0           1           0
 AtZEff=  -0.0000000  -0.0000000  -0.0000000  -0.0000000  -0.0000000  -0.0000000  -0.0000000  -0.0000000  -0.0000000  -0.0000000
 NQMom=    0.0000000   0.0000000   0.0000000   0.0000000   0.0000000   0.0000000   0.0000000   0.0000000   0.0000000   0.0000000
 NMagM=    0.0000000   0.0000000   0.0000000   0.0000000   0.0000000   0.0000000   0.0000000   0.0000000   2.7928460   0.0000000
 AtZNuc=   6.0000000   6.0000000  16.0000000   6.0000000   6.0000000   6.0000000   6.0000000   6.0000000   1.0000000   6.0000000

  Atom        11          12          13          14          15          16          17          18          19          20
 IAtWgt=          12          12          12           1           1           1          12           1           1           1
 AtmWgt=  12.0000000  12.0000000  12.0000000   1.0078250   1.0078250   1.0078250  12.0000000   1.0078250   1.0078250   1.0078250
 NucSpn=           0           0           0           1           1           1           0           1           1           1
 AtZEff=  -0.0000000  -0.0000000  -0.0000000  -0.0000000  -0.0000000  -0.0000000  -0.0000000  -0.0000000  -0.0000000  -0.0000000
 NQMom=    0.0000000   0.0000000   0.0000000   0.0000000   0.0000000   0.0000000   0.0000000   0.0000000   0.0000000   0.0000000
 NMagM=    0.0000000   0.0000000   0.0000000   2.7928460   2.7928460   2.7928460   0.0000000   2.7928460   2.7928460   2.7928460
 AtZNuc=   6.0000000   6.0000000   6.0000000   1.0000000   1.0000000   1.0000000   6.0000000   1.0000000   1.0000000   1.0000000

  Atom        21          22          23          24          25          26          27          28          29          30
 IAtWgt=           1          32          14          12          12          12          12          12          12           1
 AtmWgt=   1.0078250  31.9720718  14.0030740  12.0000000  12.0000000  12.0000000  12.0000000  12.0000000  12.0000000   1.0078250
 NucSpn=           1           0           2           0           0           0           0           0           0           1
 AtZEff=  -0.0000000  -0.0000000  -0.0000000  -0.0000000  -0.0000000  -0.0000000  -0.0000000  -0.0000000  -0.0000000  -0.0000000
 NQMom=    0.0000000   0.0000000   2.0440000   0.0000000   0.0000000   0.0000000   0.0000000   0.0000000   0.0000000   0.0000000
 NMagM=    2.7928460   0.0000000   0.4037610   0.0000000   0.0000000   0.0000000   0.0000000   0.0000000   0.0000000   2.7928460
 AtZNuc=   1.0000000  16.0000000   7.0000000   6.0000000   6.0000000   6.0000000   6.0000000   6.0000000   6.0000000   1.0000000

  Atom        31          32          33          34          35          36          37          38          39          40
 IAtWgt=           1           1           1           1          12          12          12          12          12          12
 AtmWgt=   1.0078250   1.0078250   1.0078250   1.0078250  12.0000000  12.0000000  12.0000000  12.0000000  12.0000000  12.0000000
 NucSpn=           1           1           1           1           0           0           0           0           0           0
 AtZEff=  -0.0000000  -0.0000000  -0.0000000  -0.0000000  -0.0000000  -0.0000000  -0.0000000  -0.0000000  -0.0000000  -0.0000000
 NQMom=    0.0000000   0.0000000   0.0000000   0.0000000   0.0000000   0.0000000   0.0000000   0.0000000   0.0000000   0.0000000
 NMagM=    2.7928460   2.7928460   2.7928460   2.7928460   0.0000000   0.0000000   0.0000000   0.0000000   0.0000000   0.0000000
 AtZNuc=   1.0000000   1.0000000   1.0000000   1.0000000   6.0000000   6.0000000   6.0000000   6.0000000   6.0000000   6.0000000

  Atom        41          42          43          44          45          46          47          48          49          50
 IAtWgt=           1           1           1           1           1          14          12          12          12          12
 AtmWgt=   1.0078250   1.0078250   1.0078250   1.0078250   1.0078250  14.0030740  12.0000000  12.0000000  12.0000000  12.0000000
 NucSpn=           1           1           1           1           1           2           0           0           0           0
 AtZEff=  -0.0000000  -0.0000000  -0.0000000  -0.0000000  -0.0000000  -0.0000000  -0.0000000  -0.0000000  -0.0000000  -0.0000000
 NQMom=    0.0000000   0.0000000   0.0000000   0.0000000   0.0000000   2.0440000   0.0000000   0.0000000   0.0000000   0.0000000
 NMagM=    2.7928460   2.7928460   2.7928460   2.7928460   2.7928460   0.4037610   0.0000000   0.0000000   0.0000000   0.0000000
 AtZNuc=   1.0000000   1.0000000   1.0000000   1.0000000   1.0000000   7.0000000   6.0000000   6.0000000   6.0000000   6.0000000

  Atom        51          52          53          54          55          56          57          58          59          60
 IAtWgt=          12          12           1           1           1           1           1          12          12          12
 AtmWgt=  12.0000000  12.0000000   1.0078250   1.0078250   1.0078250   1.0078250   1.0078250  12.0000000  12.0000000  12.0000000
 NucSpn=           0           0           1           1           1           1           1           0           0           0
 AtZEff=  -0.0000000  -0.0000000  -0.0000000  -0.0000000  -0.0000000  -0.0000000  -0.0000000  -0.0000000  -0.0000000  -0.0000000
 NQMom=    0.0000000   0.0000000   0.0000000   0.0000000   0.0000000   0.0000000   0.0000000   0.0000000   0.0000000   0.0000000
 NMagM=    0.0000000   0.0000000   2.7928460   2.7928460   2.7928460   2.7928460   2.7928460   0.0000000   0.0000000   0.0000000
 AtZNuc=   6.0000000   6.0000000   1.0000000   1.0000000   1.0000000   1.0000000   1.0000000   6.0000000   6.0000000   6.0000000

  Atom        61          62          63          64          65          66          67          68
 IAtWgt=          12          12          12           1           1           1           1           1
 AtmWgt=  12.0000000  12.0000000  12.0000000   1.0078250   1.0078250   1.0078250   1.0078250   1.0078250
 NucSpn=           0           0           0           1           1           1           1           1
 AtZEff=  -0.0000000  -0.0000000  -0.0000000  -0.0000000  -0.0000000  -0.0000000  -0.0000000  -0.0000000
 NQMom=    0.0000000   0.0000000   0.0000000   0.0000000   0.0000000   0.0000000   0.0000000   0.0000000
 NMagM=    0.0000000   0.0000000   0.0000000   2.7928460   2.7928460   2.7928460   2.7928460   2.7928460
 AtZNuc=   6.0000000   6.0000000   6.0000000   1.0000000   1.0000000   1.0000000   1.0000000   1.0000000
 Leave Link  101 at Thu Jan 28 03:43:37 2021, MaxMem=  4026531840 cpu:               0.8 elap:               0.1
 (Enter /opt/ohpc/pub/libs/gaussian/g16-A.03/sandybridge/g16/l202.exe)
 Stoichiometry    C36H28N2S2(1+,2)
 Framework group  C1[X(C36H28N2S2)]
 Deg. of freedom   198
 Full point group                 C1      NOp   1
 Largest Abelian subgroup         C1      NOp   1
 Largest concise Abelian subgroup C1      NOp   1
                         Standard orientation:                         
 ---------------------------------------------------------------------
 Center     Atomic      Atomic             Coordinates (Angstroms)
 Number     Number       Type             X           Y           Z
 ---------------------------------------------------------------------
      1          6           0       -2.604951   -0.985352    0.477595
      2          6           0       -1.595468   -1.227646    1.396897
      3         16           0       -0.459746   -2.557842    1.073663
      4          6           0       -1.509976   -0.467226    2.564163
      5          6           0        1.043777   -0.455726    0.021717
      6          6           0        1.038330   -1.682104    0.668307
      7          6           0       -3.557585    0.001751    0.697168
      8          6           0       -2.447111    0.539154    2.764444
      9          1           0       -0.596318    0.142670    4.605045
     10          6           0        2.238728    0.147647   -0.319798
     11          6           0        2.246539   -2.297832    0.961919
     12          6           0        3.442101   -1.694718    0.621166
     13          6           0        3.453096   -0.462920   -0.023837
     14          1           0        2.234263    1.106243   -0.827797
     15          1           0        2.253931   -3.248348    1.486346
     16          1           0        4.381679   -2.178238    0.866461
     17          6           0       -3.461673    0.764082    1.856276
     18          1           0       -2.646669   -1.585519   -0.424718
     19          1           0        0.106936    0.032641   -0.224382
     20          1           0       -2.404245    1.146243    3.663282
     21          1           0       -4.192893    1.542008    2.047877
     22         16           0       -0.233558   -0.817463    3.737465
     23          7           0        4.673686    0.159547   -0.368747
     24          6           0        5.732508   -0.612661   -0.896564
     25          6           0        7.045695   -0.377960   -0.499452
     26          6           0        5.475865   -1.622329   -1.819567
     27          6           0        8.078745   -1.133154   -1.024558
     28          6           0        6.512871   -2.384632   -2.326214
     29          6           0        7.820306   -2.143178   -1.936900
     30          1           0        7.251646    0.403669    0.224060
     31          1           0        4.454830   -1.807304   -2.136118
     32          1           0        9.097402   -0.936530   -0.704866
     33          1           0        6.295127   -3.169013   -3.044416
     34          1           0        8.632202   -2.738403   -2.341339
     35          6           0        4.837054    1.548147   -0.168533
     36          6           0        5.516065    2.321618   -1.105787
     37          6           0        4.319017    2.163542    0.967486
     38          6           0        5.679987    3.679833   -0.902534
     39          6           0        4.472338    3.525567    1.154010
     40          6           0        5.156657    4.292005    0.224805
     41          1           0        5.917204    1.848815   -1.995947
     42          1           0        3.791670    1.566068    1.703651
     43          1           0        6.213214    4.268058   -1.642948
     44          1           0        4.061647    3.989730    2.045325
     45          1           0        5.281223    5.358830    0.377899
     46          7           0       -4.591369    0.225236   -0.235572
     47          6           0       -4.996809    1.544618   -0.539366
     48          6           0       -6.345932    1.849462   -0.693639
     49          6           0       -4.053605    2.557013   -0.688173
     50          6           0       -6.738551    3.140118   -0.998819
     51          6           0       -4.455920    3.848924   -0.975713
     52          6           0       -5.798707    4.148587   -1.137139
     53          1           0       -7.085839    1.064984   -0.575406
     54          1           0       -2.999778    2.324624   -0.576668
     55          1           0       -7.794748    3.361033   -1.117399
     56          1           0       -3.707423    4.627077   -1.088273
     57          1           0       -6.110711    5.161215   -1.369943
     58          6           0       -5.228462   -0.872905   -0.859345
     59          6           0       -5.548183   -0.824769   -2.212595
     60          6           0       -5.541916   -2.014931   -0.129127
     61          6           0       -6.178047   -1.897088   -2.818017
     62          6           0       -6.155123   -3.090236   -0.746513
     63          6           0       -6.481192   -3.037227   -2.091754
     64          1           0       -5.300925    0.061617   -2.787177
     65          1           0       -5.299559   -2.056134    0.927579
     66          1           0       -6.421719   -1.844307   -3.874525
     67          1           0       -6.390696   -3.975287   -0.163884
     68          1           0       -6.967632   -3.879890   -2.571608
 ---------------------------------------------------------------------
 Rotational constants (GHZ):           0.1314912           0.0372042           0.0344004
 Leave Link  202 at Thu Jan 28 03:43:37 2021, MaxMem=  4026531840 cpu:               0.1 elap:               0.0
 (Enter /opt/ohpc/pub/libs/gaussian/g16-A.03/sandybridge/g16/l301.exe)
 Standard basis: TZVP (5D, 7F)
 Ernie: Thresh=  0.10000D-02 Tol=  0.10000D-05 Strict=F.
 There are   974 symmetry adapted cartesian basis functions of A   symmetry.
 There are   934 symmetry adapted basis functions of A   symmetry.
   934 basis functions,  1648 primitive gaussians,   974 cartesian basis functions
   145 alpha electrons      144 beta electrons
       nuclear repulsion energy      4395.1421619507 Hartrees.
 IExCor=33909 DFT=T Ex+Corr=LC-wHPBE ExCW=0 ScaHFX=  1.000000
 ScaDFX=  1.000000  1.000000  1.000000  1.000000 ScalE2=  1.000000  1.000000
 IRadAn=      5 IRanWt=     -1 IRanGd=            0 ICorTp=0 IEmpDi=  4
 HFx  wShort=  0.000000 wLong=  0.237400 cFull=  0.000000 cShort=  0.000000 cLong=  1.000000
 DFx  wShort=  0.000000 wLong=  0.237400 cFull=  0.000000 cShort=  1.000000 cLong=  0.000000
 NAtoms=   68 NActive=   68 NUniq=   68 SFac= 1.00D+00 NAtFMM=   60 NAOKFM=T Big=T
 Integral buffers will be    131072 words long.
 Raffenetti 2 integral format.
 Two-electron integral symmetry is turned on.
 Leave Link  301 at Thu Jan 28 03:43:38 2021, MaxMem=  4026531840 cpu:               0.4 elap:               0.1
 (Enter /opt/ohpc/pub/libs/gaussian/g16-A.03/sandybridge/g16/l302.exe)
 NPDir=0 NMtPBC=     1 NCelOv=     1 NCel=       1 NClECP=     1 NCelD=      1
         NCelK=      1 NCelE2=     1 NClLst=     1 CellRange=     0.0.
 One-electron integrals computed using PRISM.
 One-electron integral symmetry used in STVInt
 NBasis=   934 RedAO= T EigKep=  5.84D-06  NBF=   934
 NBsUse=   934 1.00D-06 EigRej= -1.00D+00 NBFU=   934
 Precomputing XC quadrature grid using
 IXCGrd= 4 IRadAn=           5 IRanWt=          -1 IRanGd=           0 AccXCQ= 0.00D+00.
 Generated NRdTot=       0 NPtTot=           0 NUsed=           0 NTot=          32
 NSgBfM=   919   919   919   919   919 MxSgAt=    68 MxSgA2=    68.
 Leave Link  302 at Thu Jan 28 03:43:41 2021, MaxMem=  4026531840 cpu:              25.5 elap:               3.2
 (Enter /opt/ohpc/pub/libs/gaussian/g16-A.03/sandybridge/g16/l303.exe)
 DipDrv:  MaxL=1.
 Leave Link  303 at Thu Jan 28 03:43:41 2021, MaxMem=  4026531840 cpu:               1.8 elap:               0.3
 (Enter /opt/ohpc/pub/libs/gaussian/g16-A.03/sandybridge/g16/l401.exe)
 ExpMin= 9.52D-02 ExpMax= 6.07D+04 ExpMxC= 2.07D+03 IAcc=3 IRadAn=         5 AccDes= 0.00D+00
 Harris functional with IExCor=33909 and IRadAn=       5 diagonalized for initial guess.
 HarFok:  IExCor=33909 AccDes= 0.00D+00 IRadAn=         5 IDoV= 1 UseB2=F ITyADJ=14
 ICtDFT=  3500011 ScaDFX=  1.000000  1.000000  1.000000  1.000000
 FoFCou: FMM=F IPFlag=           0 FMFlag=      100000 FMFlg1=        2001
         NFxFlg=           0 DoJE=T BraDBF=F KetDBF=T FulRan=T
         wScrn=  0.000000 ICntrl=       500 IOpCl=  0 I1Cent=   200000004 NGrid=           0
         NMat0=    1 NMatS0=      1 NMatT0=    0 NMatD0=    1 NMtDS0=    0 NMtDT0=    0
 Petite list used in FoFCou.
 Harris En= -2257.01041786303    
 JPrj=0 DoOrth=F DoCkMO=F.
 Initial guess <Sx>= 0.0000 <Sy>= 0.0000 <Sz>= 0.5000 <S**2>= 0.7500 S= 0.5000
 Leave Link  401 at Thu Jan 28 03:43:57 2021, MaxMem=  4026531840 cpu:             124.2 elap:              15.7
 (Enter /opt/ohpc/pub/libs/gaussian/g16-A.03/sandybridge/g16/l502.exe)
 Integral symmetry usage will be decided dynamically.
 UHF open shell SCF:
 Using DIIS extrapolation, IDIIS=    10.
 NGot=  4026531840 LenX=  4024617300 LenY=  4023667650
 Requested convergence on RMS density matrix=1.00D-06 within  32 cycles.
 Requested convergence on MAX density matrix=1.00D-04.
 Requested convergence on             energy=1.00D-04.
 Virtual orbitals will be shifted by   0.500 hartree.
 No special actions if energy rises.
 Dynamic level shift is on during FON iterations.

 Cycle   1  Pass 1  IDiag  1:
 FoFJK:  IHMeth= 1 ICntrl=       0 DoSepK=T KAlg= 0 I1Cent=           0 FoldK=F
 IRaf=         1 NMat=       1 IRICut=       1 DoRegI=T DoRafI=F ISym2E= 0 IDoP0=0 IntGTp=1.
 FoFCou: FMM=T IPFlag=           0 FMFlag=      100000 FMFlg1=        2001
         NFxFlg=           0 DoJE=T BraDBF=F KetDBF=F FulRan=T
         wScrn=  0.000000 ICntrl=       500 IOpCl=  0 I1Cent=           0 NGrid=           0
         NMat0=    1 NMatS0=      1 NMatT0=    0 NMatD0=    1 NMtDS0=    0 NMtDT0=    0
 Symmetry not used in FoFCou.
 FMM levels:  10  Number of levels for PrismC:   9
 E= -2292.44363188595    
 DIIS: error= 2.93D-02 at cycle   1 NSaved=   1.
 NSaved= 1 IEnMin= 1 EnMin= -2292.44363188595     IErMin= 1 ErrMin= 2.93D-02
 ErrMax= 2.93D-02  0.00D+00 EMaxC= 1.00D+00 BMatC= 2.89D+00 BMatP= 2.89D+00
 IDIUse=1 WtCom= 1.00D+00 WtEn= 0.00D+00
 Coeff-Com:  0.100D+01
 Coeff:      0.100D+01
 Gap=     0.502 Goal=   None    Shift=    0.500
 T= 1482. Gap= 0.607 NK=0 IS=  146 IE=  934 IFin=  145
          NO(<0.9)=   0  NV(>0.1)=   0    145.00e < EF      0.00e >EF  Err=0.0D+00
 Gap=     0.122 Goal=   None    Shift=    0.500
 T= 1482. Gap= 0.436 NK=0 IS=  145 IE=  934 IFin=  144
          NO(<0.9)=   0  NV(>0.1)=   0    144.00e < EF      0.00e >EF  Err=0.0D+00
 GapD=    0.122 DampG=1.000 DampE=0.500 DampFc=0.5000 IDamp=-1.
 Damping current iteration by 5.00D-01
 RMSDP=2.61D-03 MaxDP=2.23D-01              OVMax= 9.20D-02

 Cycle   2  Pass 1  IDiag  1:
 E= -2292.89389959075     Delta-E=       -0.450267704800 Rises=F Damp=T
 DIIS: error= 1.31D-02 at cycle   2 NSaved=   2.
 NSaved= 2 IEnMin= 2 EnMin= -2292.89389959075     IErMin= 2 ErrMin= 1.31D-02
 ErrMax= 1.31D-02  0.00D+00 EMaxC= 1.00D+00 BMatC= 4.66D-01 BMatP= 2.89D+00
 IDIUse=1 WtCom= 1.00D+00 WtEn= 0.00D+00
 Coeff-Com: -0.544D+00 0.154D+01
 Coeff:     -0.544D+00 0.154D+01
 Gap=     0.255 Goal=   None    Shift=    0.500
 T= 1360. Gap= 0.705 NK=0 IS=  146 IE=  934 IFin=  145
          NO(<0.9)=   0  NV(>0.1)=   0    145.00e < EF      0.00e >EF  Err=0.0D+00
 Gap=     0.070 Goal=   None    Shift=    0.500
 T= 1360. Gap= 0.550 NK=0 IS=  145 IE=  934 IFin=  144
          NO(<0.9)=   0  NV(>0.1)=   0    144.00e < EF      0.00e >EF  Err=0.0D+00
 GapD=    0.070 DampG=0.500 DampE=0.500 DampFc=0.2500 IDamp=-1.
 Damping current iteration by 2.50D-01
 RMSDP=1.68D-03 MaxDP=1.66D-01 DE=-4.50D-01 OVMax= 4.54D-02

 Cycle   3  Pass 1  IDiag  1:
 E= -2292.97476493658     Delta-E=       -0.080865345828 Rises=F Damp=T
 DIIS: error= 9.38D-03 at cycle   3 NSaved=   3.
 NSaved= 3 IEnMin= 3 EnMin= -2292.97476493658     IErMin= 3 ErrMin= 9.38D-03
 ErrMax= 9.38D-03  0.00D+00 EMaxC= 1.00D+00 BMatC= 2.37D-01 BMatP= 4.66D-01
 IDIUse=1 WtCom= 1.00D+00 WtEn= 0.00D+00
 Coeff-Com:  0.747D-01-0.279D+01 0.372D+01
 Coeff:      0.747D-01-0.279D+01 0.372D+01
 Gap=     0.241 Goal=   None    Shift=    0.500
 T= 1165. Gap= 0.739 NK=0 IS=  146 IE=  934 IFin=  145
          NO(<0.9)=   0  NV(>0.1)=   0    145.00e < EF      0.00e >EF  Err=0.0D+00
 Gap=     0.079 Goal=   None    Shift=    0.500
 T= 1165. Gap= 0.577 NK=0 IS=  145 IE=  934 IFin=  144
          NO(<0.9)=   0  NV(>0.1)=   0    144.00e < EF      0.00e >EF  Err=0.0D+00
 GapD=    0.079 DampG=0.500 DampE=1.000 DampFc=0.5000 IDamp=-1.
 Damping current iteration by 5.00D-01
 RMSDP=1.50D-03 MaxDP=1.49D-01 DE=-8.09D-02 OVMax= 2.25D-02

 Cycle   4  Pass 1  IDiag  1:
 E= -2293.08201656174     Delta-E=       -0.107251625169 Rises=F Damp=T
 DIIS: error= 6.61D-03 at cycle   4 NSaved=   4.
 NSaved= 4 IEnMin= 4 EnMin= -2293.08201656174     IErMin= 4 ErrMin= 6.61D-03
 ErrMax= 6.61D-03  0.00D+00 EMaxC= 1.00D+00 BMatC= 5.46D-02 BMatP= 2.37D-01
 IDIUse=1 WtCom= 1.00D+00 WtEn= 0.00D+00
 Coeff-Com:  0.787D-01-0.225D+00-0.894D+00 0.204D+01
 Coeff:      0.787D-01-0.225D+00-0.894D+00 0.204D+01
 Gap=     0.241 Goal=   None    Shift=    0.500
 T=  818. Gap= 0.741 NK=0 IS=  146 IE=  934 IFin=  145
          NO(<0.9)=   0  NV(>0.1)=   0    145.00e < EF      0.00e >EF  Err=0.0D+00
 Gap=     0.078 Goal=   None    Shift=    0.500
 T=  818. Gap= 0.578 NK=0 IS=  145 IE=  934 IFin=  144
          NO(<0.9)=   0  NV(>0.1)=   0    144.00e < EF      0.00e >EF  Err=0.0D+00
 GapD=    0.078 DampG=0.500 DampE=1.000 DampFc=0.5000 IDamp=-1.
 Damping current iteration by 5.00D-01
 RMSDP=8.58D-04 MaxDP=8.81D-02 DE=-1.07D-01 OVMax= 2.37D-02

 Cycle   5  Pass 1  IDiag  1:
 E= -2293.13185179777     Delta-E=       -0.049835236026 Rises=F Damp=T
 DIIS: error= 5.03D-03 at cycle   5 NSaved=   5.
 NSaved= 5 IEnMin= 5 EnMin= -2293.13185179777     IErMin= 5 ErrMin= 5.03D-03
 ErrMax= 5.03D-03  0.00D+00 EMaxC= 1.00D+00 BMatC= 1.42D-02 BMatP= 5.46D-02
 IDIUse=1 WtCom= 1.00D+00 WtEn= 0.00D+00
 Coeff-Com: -0.817D-02 0.498D+00-0.452D+00-0.180D+01 0.277D+01
 Coeff:     -0.817D-02 0.498D+00-0.452D+00-0.180D+01 0.277D+01
 Gap=     0.245 Goal=   None    Shift=    0.500
 T=  624. Gap= 0.745 NK=0 IS=  146 IE=  934 IFin=  145
          NO(<0.9)=   0  NV(>0.1)=   0    145.00e < EF      0.00e >EF  Err=0.0D+00
 Gap=     0.080 Goal=   None    Shift=    0.500
 T=  624. Gap= 0.580 NK=0 IS=  145 IE=  934 IFin=  144
          NO(<0.9)=   0  NV(>0.1)=   0    144.00e < EF      0.00e >EF  Err=0.0D+00
 GapD=    0.080 DampG=0.500 DampE=1.000 DampFc=0.5000 IDamp=-1.
 Damping current iteration by 5.00D-01
 RMSDP=4.94D-04 MaxDP=5.65D-02 DE=-4.98D-02 OVMax= 2.24D-02

 Cycle   6  Pass 1  IDiag  1:
 E= -2293.15675253976     Delta-E=       -0.024900741993 Rises=F Damp=T
 DIIS: error= 4.15D-03 at cycle   6 NSaved=   6.
 NSaved= 6 IEnMin= 6 EnMin= -2293.15675253976     IErMin= 6 ErrMin= 4.15D-03
 ErrMax= 4.15D-03  0.00D+00 EMaxC= 1.00D+00 BMatC= 4.42D-03 BMatP= 1.42D-02
 IDIUse=1 WtCom= 1.00D+00 WtEn= 0.00D+00
 Coeff-Com: -0.264D-01 0.157D+00 0.135D+00-0.648D-01-0.288D+01 0.368D+01
 Coeff:     -0.264D-01 0.157D+00 0.135D+00-0.648D-01-0.288D+01 0.368D+01
 Gap=     0.249 Goal=   None    Shift=    0.500
 T=  452. Gap= 0.749 NK=0 IS=  146 IE=  934 IFin=  145
          NO(<0.9)=   0  NV(>0.1)=   0    145.00e < EF      0.00e >EF  Err=0.0D+00
 Gap=     0.080 Goal=   None    Shift=    0.500
 T=  452. Gap= 0.581 NK=0 IS=  145 IE=  934 IFin=  144
          NO(<0.9)=   0  NV(>0.1)=   0    144.00e < EF      0.00e >EF  Err=0.0D+00
 GapD=    0.080 DampG=0.500 DampE=1.000 DampFc=0.5000 IDamp=-1.
 Damping current iteration by 5.00D-01
 RMSDP=3.06D-04 MaxDP=3.92D-02 DE=-2.49D-02 OVMax= 2.28D-02

 Cycle   7  Pass 1  IDiag  1:
 E= -2293.16975414419     Delta-E=       -0.013001604430 Rises=F Damp=T
 DIIS: error= 3.62D-03 at cycle   7 NSaved=   7.
 NSaved= 7 IEnMin= 7 EnMin= -2293.16975414419     IErMin= 7 ErrMin= 3.62D-03
 ErrMax= 3.62D-03  0.00D+00 EMaxC= 1.00D+00 BMatC= 1.74D-03 BMatP= 4.42D-03
 IDIUse=1 WtCom= 1.00D+00 WtEn= 0.00D+00
 Coeff-Com: -0.529D-02-0.149D+00 0.234D+00 0.743D+00-0.161D+01-0.173D+01
 Coeff-Com:  0.352D+01
 Coeff:     -0.529D-02-0.149D+00 0.234D+00 0.743D+00-0.161D+01-0.173D+01
 Coeff:      0.352D+01
 Gap=     0.250 Goal=   None    Shift=    0.500
 T=  326. Gap= 0.750 NK=0 IS=  146 IE=  934 IFin=  145
          NO(<0.9)=   0  NV(>0.1)=   0    145.00e < EF      0.00e >EF  Err=0.0D+00
 Gap=     0.080 Goal=   None    Shift=    0.500
 T=  326. Gap= 0.581 NK=0 IS=  145 IE=  934 IFin=  144
          NO(<0.9)=   0  NV(>0.1)=   0    144.00e < EF      0.00e >EF  Err=0.0D+00
 GapD=    0.080 DampG=0.500 DampE=1.000 DampFc=0.5000 IDamp=-1.
 Damping current iteration by 5.00D-01
 RMSDP=2.21D-04 MaxDP=2.68D-02 DE=-1.30D-02 OVMax= 2.27D-02

 Cycle   8  Pass 1  IDiag  1:
 E= -2293.17679927987     Delta-E=       -0.007045135681 Rises=F Damp=T
 DIIS: error= 3.24D-03 at cycle   8 NSaved=   8.
 NSaved= 8 IEnMin= 8 EnMin= -2293.17679927987     IErMin= 8 ErrMin= 3.24D-03
 ErrMax= 3.24D-03  0.00D+00 EMaxC= 1.00D+00 BMatC= 8.66D-04 BMatP= 1.74D-03
 IDIUse=1 WtCom= 1.00D+00 WtEn= 0.00D+00
 Coeff-Com:  0.839D-02-0.700D-01-0.459D-01-0.492D-01 0.180D+01-0.175D+01
 Coeff-Com: -0.400D+01 0.510D+01
 Coeff:      0.839D-02-0.700D-01-0.459D-01-0.492D-01 0.180D+01-0.175D+01
 Coeff:     -0.400D+01 0.510D+01
 Gap=     0.251 Goal=   None    Shift=    0.500
 T=  235. Gap= 0.751 NK=0 IS=  146 IE=  934 IFin=  145
          NO(<0.9)=   0  NV(>0.1)=   0    145.00e < EF      0.00e >EF  Err=0.0D+00
 Gap=     0.080 Goal=   None    Shift=    0.500
 T=  235. Gap= 0.580 NK=0 IS=  145 IE=  934 IFin=  144
          NO(<0.9)=   0  NV(>0.1)=   0    144.00e < EF      0.00e >EF  Err=0.0D+00
 GapD=    0.080 DampG=0.500 DampE=1.000 DampFc=0.5000 IDamp=-1.
 Damping current iteration by 5.00D-01
 RMSDP=1.84D-04 MaxDP=1.85D-02 DE=-7.05D-03 OVMax= 2.31D-02

 Cycle   9  Pass 1  IDiag  1:
 E= -2293.18078088731     Delta-E=       -0.003981607438 Rises=F Damp=T
 DIIS: error= 2.94D-03 at cycle   9 NSaved=   9.
 NSaved= 9 IEnMin= 9 EnMin= -2293.18078088731     IErMin= 9 ErrMin= 2.94D-03
 ErrMax= 2.94D-03  0.00D+00 EMaxC= 1.00D+00 BMatC= 5.28D-04 BMatP= 8.66D-04
 IDIUse=1 WtCom= 1.00D+00 WtEn= 0.00D+00
 Coeff-Com:  0.397D-02 0.356D-01-0.572D-01-0.749D+00 0.226D+01-0.280D-01
 Coeff-Com: -0.385D+01-0.206D+00 0.359D+01
 Coeff:      0.397D-02 0.356D-01-0.572D-01-0.749D+00 0.226D+01-0.280D-01
 Coeff:     -0.385D+01-0.206D+00 0.359D+01
 Gap=     0.252 Goal=   None    Shift=    0.500
 T=  165. Gap= 0.752 NK=0 IS=  146 IE=  934 IFin=  145
          NO(<0.9)=   0  NV(>0.1)=   0    145.00e < EF      0.00e >EF  Err=0.0D+00
 Gap=     0.079 Goal=   None    Shift=    0.500
 T=  165. Gap= 0.580 NK=0 IS=  145 IE=  934 IFin=  144
          NO(<0.9)=   0  NV(>0.1)=   0    144.00e < EF      0.00e >EF  Err=0.0D+00
 GapD=    0.079 DampG=0.500 DampE=1.000 DampFc=0.5000 IDamp=-1.
 Damping current iteration by 5.00D-01
 RMSDP=1.54D-04 MaxDP=1.56D-02 DE=-3.98D-03 OVMax= 2.19D-02

 Cycle  10  Pass 1  IDiag  1:
 E= -2293.18314652895     Delta-E=       -0.002365641637 Rises=F Damp=T
 DIIS: error= 2.69D-03 at cycle  10 NSaved=  10.
 NSaved=10 IEnMin=10 EnMin= -2293.18314652895     IErMin=10 ErrMin= 2.69D-03
 ErrMax= 2.69D-03  0.00D+00 EMaxC= 1.00D+00 BMatC= 3.67D-04 BMatP= 5.28D-04
 IDIUse=1 WtCom= 1.00D+00 WtEn= 0.00D+00
 Coeff-Com: -0.693D-02-0.591D-02 0.250D+00-0.582D+00-0.707D+00 0.204D+01
 Coeff-Com:  0.192D+01-0.377D+01-0.448D+01 0.635D+01
 Coeff:     -0.693D-02-0.591D-02 0.250D+00-0.582D+00-0.707D+00 0.204D+01
 Coeff:      0.192D+01-0.377D+01-0.448D+01 0.635D+01
 Gap=     0.254 Goal=   None    Shift=    0.500
 T=  106. Gap= 0.754 NK=0 IS=  146 IE=  934 IFin=  145
          NO(<0.9)=   0  NV(>0.1)=   0    145.00e < EF      0.00e >EF  Err=0.0D+00
 Gap=     0.078 Goal=   None    Shift=    0.500
 T=  106. Gap= 0.579 NK=0 IS=  145 IE=  934 IFin=  144
          NO(<0.9)=   0  NV(>0.1)=   0    144.00e < EF      0.00e >EF  Err=0.0D+00
 GapD=    0.078 DampG=0.500 DampE=1.000 DampFc=0.5000 IDamp=-1.
 Damping current iteration by 5.00D-01
 RMSDP=1.44D-04 MaxDP=1.44D-02 DE=-2.37D-03 OVMax= 2.32D-02

 Cycle  11  Pass 1  IDiag  1:
 E= -2293.18463533956     Delta-E=       -0.001488810609 Rises=F Damp=T
 DIIS: error= 2.48D-03 at cycle  11 NSaved=  11.
 NSaved=11 IEnMin=11 EnMin= -2293.18463533956     IErMin=11 ErrMin= 2.48D-03
 ErrMax= 2.48D-03  0.00D+00 EMaxC= 1.00D+00 BMatC= 2.90D-04 BMatP= 3.67D-04
 IDIUse=1 WtCom= 1.00D+00 WtEn= 0.00D+00
 Coeff-Com: -0.600D-02-0.959D-01 0.402D+00-0.463D+00-0.121D+01 0.183D+01
 Coeff-Com:  0.242D+01-0.211D+01-0.507D+01 0.270D+01 0.260D+01
 Coeff:     -0.600D-02-0.959D-01 0.402D+00-0.463D+00-0.121D+01 0.183D+01
 Coeff:      0.242D+01-0.211D+01-0.507D+01 0.270D+01 0.260D+01
 Gap=     0.254 Goal=   None    Shift=    0.500
 Gap=     0.078 Goal=   None    Shift=    0.500
 GapD=    0.078 DampG=0.500 DampE=1.000 DampFc=0.5000 IDamp=-1.
 Damping current iteration by 5.00D-01
 RMSDP=1.20D-04 MaxDP=1.19D-02 DE=-1.49D-03 OVMax= 2.03D-02

 Cycle  12  Pass 1  IDiag  1:
 E= -2293.18563890300     Delta-E=       -0.001003563448 Rises=F Damp=T
 DIIS: error= 2.25D-03 at cycle  12 NSaved=  12.
 NSaved=12 IEnMin=12 EnMin= -2293.18563890300     IErMin=12 ErrMin= 2.25D-03
 ErrMax= 2.25D-03  0.00D+00 EMaxC= 1.00D+00 BMatC= 2.36D-04 BMatP= 2.90D-04
 IDIUse=1 WtCom= 1.00D+00 WtEn= 0.00D+00
 Large coefficients: NSaved= 12 BigCof=   10.65 CofMax=   10.00 Det=-3.15D-07
 Inversion failed.  Reducing to 11 matrices.
 Large coefficients: NSaved= 11 BigCof=   10.44 CofMax=   10.00 Det=-3.30D-07
 Inversion failed.  Reducing to 10 matrices.
 Large coefficients: NSaved= 10 BigCof=   11.39 CofMax=   10.00 Det=-3.60D-07
 Inversion failed.  Reducing to  9 matrices.
 Large coefficients: NSaved=  9 BigCof=   12.19 CofMax=   10.00 Det=-5.00D-07
 Inversion failed.  Reducing to  8 matrices.
 Large coefficients: NSaved=  8 BigCof=   12.31 CofMax=   10.00 Det=-5.05D-07
 Inversion failed.  Reducing to  7 matrices.
 Large coefficients: NSaved=  7 BigCof=   11.94 CofMax=   10.00 Det=-5.32D-07
 Inversion failed.  Reducing to  6 matrices.
 Large coefficients: NSaved=  6 BigCof=   11.73 CofMax=   10.00 Det=-5.52D-07
 Inversion failed.  Reducing to  5 matrices.
 Large coefficients: NSaved=  5 BigCof=   11.37 CofMax=   10.00 Det=-5.54D-07
 Inversion failed.  Reducing to  4 matrices.
 Large coefficients: NSaved=  4 BigCof=   11.33 CofMax=   10.00 Det=-5.77D-07
 Inversion failed.  Reducing to  3 matrices.
 Large coefficients: NSaved=  3 BigCof=   11.39 CofMax=   10.00 Det=-5.78D-07
 Inversion failed.  Reducing to  2 matrices.
 Coeff-Com: -0.271D+01 0.371D+01
 Coeff:     -0.271D+01 0.371D+01
 Gap=     0.254 Goal=   None    Shift=    0.500
 Gap=     0.078 Goal=   None    Shift=    0.500
 GapD=    0.078 DampG=0.500 DampE=1.000 DampFc=0.5000 IDamp=-1.
 Damping current iteration by 5.00D-01
 RMSDP=9.55D-05 MaxDP=9.04D-03 DE=-1.00D-03 OVMax= 1.79D-02

 Cycle  13  Pass 1  IDiag  1:
 E= -2293.18635157629     Delta-E=       -0.000712673287 Rises=F Damp=T
 DIIS: error= 2.00D-03 at cycle  13 NSaved=   3.
 NSaved= 3 IEnMin= 3 EnMin= -2293.18635157629     IErMin= 3 ErrMin= 2.00D-03
 ErrMax= 2.00D-03  0.00D+00 EMaxC= 1.00D+00 BMatC= 1.74D-04 BMatP= 2.36D-04
 IDIUse=1 WtCom= 1.00D+00 WtEn= 0.00D+00
 Coeff-Com: -0.154D+01 0.175D+00 0.236D+01
 Coeff:     -0.154D+01 0.175D+00 0.236D+01
 Gap=     0.256 Goal=   None    Shift=    0.500
 Gap=     0.078 Goal=   None    Shift=    0.500
 GapD=    0.078 DampG=0.500 DampE=1.000 DampFc=0.5000 IDamp=-1.
 Damping current iteration by 5.00D-01
 RMSDP=8.97D-05 MaxDP=8.48D-03 DE=-7.13D-04 OVMax= 1.67D-02

 Cycle  14  Pass 1  IDiag  1:
 E= -2293.18685946298     Delta-E=       -0.000507886685 Rises=F Damp=T
 DIIS: error= 1.80D-03 at cycle  14 NSaved=   4.
 NSaved= 4 IEnMin= 4 EnMin= -2293.18685946298     IErMin= 4 ErrMin= 1.80D-03
 ErrMax= 1.80D-03  0.00D+00 EMaxC= 1.00D+00 BMatC= 1.48D-04 BMatP= 1.74D-04
 IDIUse=1 WtCom= 1.00D+00 WtEn= 0.00D+00
 Coeff-Com:  0.434D+01-0.712D+01-0.394D+01 0.772D+01
 Coeff:      0.434D+01-0.712D+01-0.394D+01 0.772D+01
 Gap=     0.257 Goal=   None    Shift=    0.500
 Gap=     0.075 Goal=   None    Shift=    0.500
 GapD=    0.075 DampG=0.500 DampE=1.000 DampFc=0.5000 IDamp=-1.
 Damping current iteration by 5.00D-01
 RMSDP=1.01D-04 MaxDP=9.15D-03 DE=-5.08D-04 OVMax= 2.06D-02

 Cycle  15  Pass 1  IDiag  1:
 E= -2293.18724306896     Delta-E=       -0.000383605985 Rises=F Damp=T
 DIIS: error= 1.64D-03 at cycle  15 NSaved=   5.
 NSaved= 5 IEnMin= 5 EnMin= -2293.18724306896     IErMin= 5 ErrMin= 1.64D-03
 ErrMax= 1.64D-03  0.00D+00 EMaxC= 1.00D+00 BMatC= 1.51D-04 BMatP= 1.48D-04
 IDIUse=1 WtCom= 1.00D+00 WtEn= 0.00D+00
 Coeff-Com:  0.449D+01-0.747D+01-0.338D+01 0.692D+01 0.435D+00
 Coeff:      0.449D+01-0.747D+01-0.338D+01 0.692D+01 0.435D+00
 Gap=     0.257 Goal=   None    Shift=    0.500
 Gap=     0.076 Goal=   None    Shift=    0.500
 GapD=    0.076 DampG=0.500 DampE=1.000 DampFc=0.5000 IDamp=-1.
 Damping current iteration by 5.00D-01
 RMSDP=8.32D-05 MaxDP=7.15D-03 DE=-3.84D-04 OVMax= 1.63D-02

 Cycle  16  Pass 1  IDiag  1:
 E= -2293.18755924614     Delta-E=       -0.000316177182 Rises=F Damp=T
 DIIS: error= 1.49D-03 at cycle  16 NSaved=   6.
 NSaved= 6 IEnMin= 6 EnMin= -2293.18755924614     IErMin= 6 ErrMin= 1.49D-03
 ErrMax= 1.49D-03  0.00D+00 EMaxC= 1.00D+00 BMatC= 1.43D-04 BMatP= 1.48D-04
 IDIUse=1 WtCom= 1.00D+00 WtEn= 0.00D+00
 Coeff-Com:  0.409D+01-0.663D+01-0.167D+01 0.729D+01-0.852D+01 0.643D+01
 Coeff:      0.409D+01-0.663D+01-0.167D+01 0.729D+01-0.852D+01 0.643D+01
 Gap=     0.257 Goal=   None    Shift=    0.500
 Gap=     0.074 Goal=   None    Shift=    0.500
 GapD=    0.074 DampG=0.500 DampE=1.000 DampFc=0.5000 IDamp=-1.
 Damping current iteration by 5.00D-01
 RMSDP=8.22D-05 MaxDP=7.33D-03 DE=-3.16D-04 OVMax= 1.71D-02

 Cycle  17  Pass 1  IDiag  1:
 E= -2293.18780715309     Delta-E=       -0.000247906944 Rises=F Damp=T
 DIIS: error= 1.37D-03 at cycle  17 NSaved=   7.
 NSaved= 7 IEnMin= 7 EnMin= -2293.18780715309     IErMin= 7 ErrMin= 1.37D-03
 ErrMax= 1.37D-03  0.00D+00 EMaxC= 1.00D+00 BMatC= 1.46D-04 BMatP= 1.43D-04
 IDIUse=1 WtCom= 1.00D+00 WtEn= 0.00D+00
 Large coefficients: NSaved=  7 BigCof=   13.71 CofMax=   10.00 Det=-1.63D-07
 Inversion failed.  Reducing to  6 matrices.
 Large coefficients: NSaved=  6 BigCof=   15.08 CofMax=   10.00 Det=-2.64D-07
 Inversion failed.  Reducing to  5 matrices.
 Large coefficients: NSaved=  5 BigCof=   16.46 CofMax=   10.00 Det=-3.52D-07
 Inversion failed.  Reducing to  4 matrices.
 Large coefficients: NSaved=  4 BigCof=   16.66 CofMax=   10.00 Det=-3.90D-07
 Inversion failed.  Reducing to  3 matrices.
 Coeff-Com: -0.404D+00 0.124D+01 0.166D+00
 Coeff:     -0.404D+00 0.124D+01 0.166D+00
 Gap=     0.254 Goal=   None    Shift=    0.500
 Gap=     0.077 Goal=   None    Shift=    0.500
 GapD=    0.077 DampG=0.500 DampE=1.000 DampFc=0.5000 IDamp=-1.
 Damping current iteration by 5.00D-01
 RMSDP=3.43D-05 MaxDP=2.52D-03 DE=-2.48D-04 OVMax= 2.89D-03

 Cycle  18  Pass 1  IDiag  1:
 E= -2293.18802239717     Delta-E=       -0.000215244085 Rises=F Damp=T
 DIIS: error= 1.09D-03 at cycle  18 NSaved=   4.
 NSaved= 4 IEnMin= 4 EnMin= -2293.18802239717     IErMin= 4 ErrMin= 1.09D-03
 ErrMax= 1.09D-03  0.00D+00 EMaxC= 1.00D+00 BMatC= 4.99D-05 BMatP= 1.43D-04
 IDIUse=1 WtCom= 1.00D+00 WtEn= 0.00D+00
 Coeff-Com: -0.192D+01 0.874D+00 0.509D+00 0.154D+01
 Coeff:     -0.192D+01 0.874D+00 0.509D+00 0.154D+01
 Gap=     0.257 Goal=   None    Shift=    0.500
 Gap=     0.075 Goal=   None    Shift=    0.500
 GapD=    0.075 DampG=0.500 DampE=1.000 DampFc=0.5000 IDamp=-1.
 Damping current iteration by 5.00D-01
 RMSDP=5.48D-05 MaxDP=5.17D-03 DE=-2.15D-04 OVMax= 1.37D-02

 Cycle  19  Pass 1  IDiag  1:
 E= -2293.18816278770     Delta-E=       -0.000140390525 Rises=F Damp=T
 DIIS: error= 1.01D-03 at cycle  19 NSaved=   5.
 NSaved= 5 IEnMin= 5 EnMin= -2293.18816278770     IErMin= 5 ErrMin= 1.01D-03
 ErrMax= 1.01D-03  0.00D+00 EMaxC= 1.00D+00 BMatC= 4.69D-05 BMatP= 4.99D-05
 IDIUse=1 WtCom= 1.00D+00 WtEn= 0.00D+00
 Coeff-Com: -0.180D+01 0.166D+01-0.634D+00-0.553D+00 0.233D+01
 Coeff:     -0.180D+01 0.166D+01-0.634D+00-0.553D+00 0.233D+01
 Gap=     0.257 Goal=   None    Shift=    0.500
 Gap=     0.074 Goal=   None    Shift=    0.500
 GapD=    0.074 DampG=0.500 DampE=1.000 DampFc=0.5000 IDamp=-1.
 Damping current iteration by 5.00D-01
 RMSDP=6.47D-05 MaxDP=6.41D-03 DE=-1.40D-04 OVMax= 1.25D-02

 Cycle  20  Pass 1  IDiag  1:
 E= -2293.18826700113     Delta-E=       -0.000104213434 Rises=F Damp=T
 DIIS: error= 9.51D-04 at cycle  20 NSaved=   6.
 NSaved= 6 IEnMin= 6 EnMin= -2293.18826700113     IErMin= 6 ErrMin= 9.51D-04
 ErrMax= 9.51D-04  0.00D+00 EMaxC= 1.00D+00 BMatC= 6.18D-05 BMatP= 4.69D-05
 IDIUse=1 WtCom= 1.00D+00 WtEn= 0.00D+00
 Coeff-Com: -0.857D+00 0.187D+01-0.260D+01 0.910D+00-0.191D+01 0.359D+01
 Coeff:     -0.857D+00 0.187D+01-0.260D+01 0.910D+00-0.191D+01 0.359D+01
 Gap=     0.257 Goal=   None    Shift=    0.500
 Gap=     0.074 Goal=   None    Shift=    0.500
 RMSDP=5.79D-05 MaxDP=5.65D-03 DE=-1.04D-04 OVMax= 1.11D-02

 Cycle  21  Pass 1  IDiag  1:
 E= -2293.18850830738     Delta-E=       -0.000241306250 Rises=F Damp=F
 DIIS: error= 8.02D-04 at cycle  21 NSaved=   7.
 NSaved= 7 IEnMin= 7 EnMin= -2293.18850830738     IErMin= 7 ErrMin= 8.02D-04
 ErrMax= 8.02D-04  0.00D+00 EMaxC= 1.00D+00 BMatC= 9.72D-05 BMatP= 4.69D-05
 IDIUse=1 WtCom= 1.00D+00 WtEn= 0.00D+00
 Coeff-Com:  0.646D+00 0.124D+01-0.374D+01 0.815D+00 0.436D+00-0.130D+01
 Coeff-Com:  0.290D+01
 Coeff:      0.646D+00 0.124D+01-0.374D+01 0.815D+00 0.436D+00-0.130D+01
 Coeff:      0.290D+01
 Gap=     0.257 Goal=   None    Shift=    0.500
 Gap=     0.073 Goal=   None    Shift=    0.500
 RMSDP=2.34D-05 MaxDP=2.34D-03 DE=-2.41D-04 OVMax= 1.04D-02

 Cycle  22  Pass 1  IDiag  1:
 E= -2293.18856970029     Delta-E=       -0.000061392909 Rises=F Damp=F
 DIIS: error= 6.95D-04 at cycle  22 NSaved=   8.
 NSaved= 8 IEnMin= 8 EnMin= -2293.18856970029     IErMin= 8 ErrMin= 6.95D-04
 ErrMax= 6.95D-04  0.00D+00 EMaxC= 1.00D+00 BMatC= 7.86D-05 BMatP= 4.69D-05
 IDIUse=1 WtCom= 1.00D+00 WtEn= 0.00D+00
 Coeff-Com:  0.277D+00 0.152D+01-0.315D+01-0.324D+00 0.251D+01-0.260D+01
 Coeff-Com:  0.174D+01 0.104D+01
 Coeff:      0.277D+00 0.152D+01-0.315D+01-0.324D+00 0.251D+01-0.260D+01
 Coeff:      0.174D+01 0.104D+01
 Gap=     0.257 Goal=   None    Shift=    0.500
 Gap=     0.073 Goal=   None    Shift=    0.500
 RMSDP=1.50D-05 MaxDP=1.22D-03 DE=-6.14D-05 OVMax= 8.11D-03

 Cycle  23  Pass 1  IDiag  1:
 E= -2293.18861456789     Delta-E=       -0.000044867603 Rises=F Damp=F
 DIIS: error= 5.88D-04 at cycle  23 NSaved=   9.
 NSaved= 9 IEnMin= 9 EnMin= -2293.18861456789     IErMin= 9 ErrMin= 5.88D-04
 ErrMax= 5.88D-04  0.00D+00 EMaxC= 1.00D+00 BMatC= 5.41D-05 BMatP= 4.69D-05
 IDIUse=1 WtCom= 1.00D+00 WtEn= 0.00D+00
 Coeff-Com: -0.177D-01 0.930D+00-0.145D+01-0.603D+00 0.170D+01-0.111D+01
 Coeff-Com:  0.559D+00-0.192D+01 0.291D+01
 Coeff:     -0.177D-01 0.930D+00-0.145D+01-0.603D+00 0.170D+01-0.111D+01
 Coeff:      0.559D+00-0.192D+01 0.291D+01
 Gap=     0.256 Goal=   None    Shift=    0.500
 Gap=     0.073 Goal=   None    Shift=    0.500
 RMSDP=1.34D-05 MaxDP=1.27D-03 DE=-4.49D-05 OVMax= 6.75D-03

 Cycle  24  Pass 1  IDiag  1:
 E= -2293.18864768731     Delta-E=       -0.000033119411 Rises=F Damp=F
 DIIS: error= 5.01D-04 at cycle  24 NSaved=  10.
 NSaved=10 IEnMin=10 EnMin= -2293.18864768731     IErMin=10 ErrMin= 5.01D-04
 ErrMax= 5.01D-04  0.00D+00 EMaxC= 1.00D+00 BMatC= 3.79D-05 BMatP= 4.69D-05
 IDIUse=1 WtCom= 1.00D+00 WtEn= 0.00D+00
 Coeff-Com: -0.354D+00 0.633D+00-0.406D+00-0.192D+00-0.560D-01 0.856D+00
 Coeff-Com:  0.102D+00-0.342D+01 0.247D+01 0.137D+01
 Coeff:     -0.354D+00 0.633D+00-0.406D+00-0.192D+00-0.560D-01 0.856D+00
 Coeff:      0.102D+00-0.342D+01 0.247D+01 0.137D+01
 Gap=     0.256 Goal=   None    Shift=    0.500
 Gap=     0.073 Goal=   None    Shift=    0.500
 RMSDP=1.02D-05 MaxDP=1.01D-03 DE=-3.31D-05 OVMax= 5.41D-03

 Cycle  25  Pass 1  IDiag  1:
 E= -2293.18867190659     Delta-E=       -0.000024219280 Rises=F Damp=F
 DIIS: error= 4.31D-04 at cycle  25 NSaved=  11.
 NSaved=11 IEnMin=11 EnMin= -2293.18867190659     IErMin=11 ErrMin= 4.31D-04
 ErrMax= 4.31D-04  0.00D+00 EMaxC= 1.00D+00 BMatC= 2.67D-05 BMatP= 3.79D-05
 IDIUse=1 WtCom= 1.00D+00 WtEn= 0.00D+00
 Coeff-Com: -0.319D+00 0.715D+00-0.610D+00-0.135D-01-0.292D-01 0.425D+00
 Coeff-Com:  0.374D+00-0.179D+01 0.123D+01-0.138D+01 0.240D+01
 Coeff:     -0.319D+00 0.715D+00-0.610D+00-0.135D-01-0.292D-01 0.425D+00
 Coeff:      0.374D+00-0.179D+01 0.123D+01-0.138D+01 0.240D+01
 Gap=     0.256 Goal=   None    Shift=    0.500
 Gap=     0.073 Goal=   None    Shift=    0.500
 RMSDP=8.30D-06 MaxDP=8.99D-04 DE=-2.42D-05 OVMax= 4.35D-03

 Cycle  26  Pass 1  IDiag  1:
 E= -2293.18869054915     Delta-E=       -0.000018642562 Rises=F Damp=F
 DIIS: error= 4.38D-04 at cycle  26 NSaved=  12.
 NSaved=12 IEnMin=12 EnMin= -2293.18869054915     IErMin=11 ErrMin= 4.31D-04
 ErrMax= 4.38D-04  0.00D+00 EMaxC= 1.00D+00 BMatC= 1.83D-05 BMatP= 2.67D-05
 IDIUse=1 WtCom= 1.00D+00 WtEn= 0.00D+00
 Coeff-Com: -0.157D+00 0.646D+00-0.776D+00-0.150D+00 0.629D+00-0.452D+00
 Coeff-Com:  0.495D+00-0.206D-01 0.289D+00-0.186D+01-0.291D-01 0.238D+01
 Coeff:     -0.157D+00 0.646D+00-0.776D+00-0.150D+00 0.629D+00-0.452D+00
 Coeff:      0.495D+00-0.206D-01 0.289D+00-0.186D+01-0.291D-01 0.238D+01
 Gap=     0.255 Goal=   None    Shift=    0.500
 Gap=     0.073 Goal=   None    Shift=    0.500
 RMSDP=7.64D-06 MaxDP=8.23D-04 DE=-1.86D-05 OVMax= 3.58D-03

 Cycle  27  Pass 1  IDiag  1:
 E= -2293.18870559041     Delta-E=       -0.000015041263 Rises=F Damp=F
 DIIS: error= 4.52D-04 at cycle  27 NSaved=  13.
 NSaved=13 IEnMin=13 EnMin= -2293.18870559041     IErMin=11 ErrMin= 4.31D-04
 ErrMax= 4.52D-04  0.00D+00 EMaxC= 1.00D+00 BMatC= 1.32D-05 BMatP= 1.83D-05
 IDIUse=1 WtCom= 1.00D+00 WtEn= 0.00D+00
 Coeff-Com: -0.118D+00 0.414D+00-0.478D+00-0.233D+00 0.689D+00-0.442D+00
 Coeff-Com:  0.374D+00-0.673D+00 0.768D+00 0.461D+00-0.214D+01 0.373D+00
 Coeff-Com:  0.200D+01
 Coeff:     -0.118D+00 0.414D+00-0.478D+00-0.233D+00 0.689D+00-0.442D+00
 Coeff:      0.374D+00-0.673D+00 0.768D+00 0.461D+00-0.214D+01 0.373D+00
 Coeff:      0.200D+01
 Gap=     0.255 Goal=   None    Shift=    0.500
 Gap=     0.073 Goal=   None    Shift=    0.500
 RMSDP=6.56D-06 MaxDP=6.95D-04 DE=-1.50D-05 OVMax= 2.93D-03

 Cycle  28  Pass 1  IDiag  1:
 E= -2293.18871809329     Delta-E=       -0.000012502880 Rises=F Damp=F
 DIIS: error= 4.56D-04 at cycle  28 NSaved=  14.
 NSaved=14 IEnMin=14 EnMin= -2293.18871809329     IErMin=11 ErrMin= 4.31D-04
 ErrMax= 4.56D-04  0.00D+00 EMaxC= 1.00D+00 BMatC= 9.58D-06 BMatP= 1.32D-05
 IDIUse=1 WtCom= 1.00D+00 WtEn= 0.00D+00
 Coeff-Com: -0.125D+00 0.251D+00-0.220D+00-0.144D+00 0.429D+00-0.218D+00
 Coeff-Com:  0.204D+00-0.838D+00 0.790D+00 0.492D+00-0.113D+01 0.689D-01
 Coeff-Com: -0.284D+00 0.173D+01
 Coeff:     -0.125D+00 0.251D+00-0.220D+00-0.144D+00 0.429D+00-0.218D+00
 Coeff:      0.204D+00-0.838D+00 0.790D+00 0.492D+00-0.113D+01 0.689D-01
 Coeff:     -0.284D+00 0.173D+01
 Gap=     0.255 Goal=   None    Shift=    0.500
 Gap=     0.073 Goal=   None    Shift=    0.500
 RMSDP=5.86D-06 MaxDP=6.32D-04 DE=-1.25D-05 OVMax= 2.69D-03

 Cycle  29  Pass 1  IDiag  1:
 E= -2293.18872886892     Delta-E=       -0.000010775630 Rises=F Damp=F
 DIIS: error= 4.58D-04 at cycle  29 NSaved=  15.
 NSaved=15 IEnMin=15 EnMin= -2293.18872886892     IErMin=11 ErrMin= 4.31D-04
 ErrMax= 4.58D-04  0.00D+00 EMaxC= 1.00D+00 BMatC= 7.24D-06 BMatP= 9.58D-06
 IDIUse=1 WtCom= 1.00D+00 WtEn= 0.00D+00
 Coeff-Com: -0.120D+00 0.240D+00-0.214D+00-0.133D+00 0.405D+00-0.203D+00
 Coeff-Com:  0.185D+00-0.766D+00 0.727D+00 0.392D+00-0.959D+00 0.100D+00
 Coeff-Com: -0.271D+00 0.127D+01 0.345D+00
 Coeff:     -0.120D+00 0.240D+00-0.214D+00-0.133D+00 0.405D+00-0.203D+00
 Coeff:      0.185D+00-0.766D+00 0.727D+00 0.392D+00-0.959D+00 0.100D+00
 Coeff:     -0.271D+00 0.127D+01 0.345D+00
 Gap=     0.255 Goal=   None    Shift=    0.500
 Gap=     0.073 Goal=   None    Shift=    0.500
 RMSDP=4.22D-06 MaxDP=4.28D-04 DE=-1.08D-05 OVMax= 2.39D-03

 Cycle  30  Pass 1  IDiag  1:
 E= -2293.18873777384     Delta-E=       -0.000008904919 Rises=F Damp=F
 DIIS: error= 4.44D-04 at cycle  30 NSaved=  16.
 NSaved=16 IEnMin=16 EnMin= -2293.18873777384     IErMin=11 ErrMin= 4.31D-04
 ErrMax= 4.44D-04  0.00D+00 EMaxC= 1.00D+00 BMatC= 5.39D-06 BMatP= 7.24D-06
 IDIUse=1 WtCom= 1.00D+00 WtEn= 0.00D+00
 Coeff-Com: -0.767D-01 0.195D+00-0.234D+00-0.128D+00 0.434D+00-0.258D+00
 Coeff-Com:  0.199D+00-0.601D+00 0.609D+00 0.477D+00-0.126D+01 0.198D-02
 Coeff-Com:  0.416D+00 0.128D+01-0.550D+00 0.493D+00
 Coeff:     -0.767D-01 0.195D+00-0.234D+00-0.128D+00 0.434D+00-0.258D+00
 Coeff:      0.199D+00-0.601D+00 0.609D+00 0.477D+00-0.126D+01 0.198D-02
 Coeff:      0.416D+00 0.128D+01-0.550D+00 0.493D+00
 Gap=     0.255 Goal=   None    Shift=    0.500
 Gap=     0.073 Goal=   None    Shift=    0.500
 RMSDP=3.13D-06 MaxDP=2.83D-04 DE=-8.90D-06 OVMax= 2.05D-03

 Cycle  31  Pass 1  IDiag  1:
 E= -2293.18874476035     Delta-E=       -0.000006986512 Rises=F Damp=F
 DIIS: error= 4.21D-04 at cycle  31 NSaved=  17.
 NSaved=17 IEnMin=17 EnMin= -2293.18874476035     IErMin=17 ErrMin= 4.21D-04
 ErrMax= 4.21D-04  0.00D+00 EMaxC= 1.00D+00 BMatC= 4.83D-06 BMatP= 5.39D-06
 IDIUse=1 WtCom= 1.00D+00 WtEn= 0.00D+00
 Coeff-Com: -0.554D-01 0.145D+00-0.208D+00-0.107D+00 0.395D+00-0.231D+00
 Coeff-Com:  0.172D+00-0.621D+00 0.639D+00 0.618D+00-0.129D+01-0.273D+00
 Coeff-Com:  0.309D+00 0.110D+01 0.292D+01-0.486D+01 0.234D+01
 Coeff:     -0.554D-01 0.145D+00-0.208D+00-0.107D+00 0.395D+00-0.231D+00
 Coeff:      0.172D+00-0.621D+00 0.639D+00 0.618D+00-0.129D+01-0.273D+00
 Coeff:      0.309D+00 0.110D+01 0.292D+01-0.486D+01 0.234D+01
 Gap=     0.255 Goal=   None    Shift=    0.500
 Gap=     0.073 Goal=   None    Shift=    0.500
 RMSDP=2.43D-06 MaxDP=1.65D-04 DE=-6.99D-06 OVMax= 1.73D-03

 Cycle  32  Pass 1  IDiag  1:
 E= -2293.18875001140     Delta-E=       -0.000005251044 Rises=F Damp=F
 DIIS: error= 3.95D-04 at cycle  32 NSaved=  18.
 NSaved=18 IEnMin=18 EnMin= -2293.18875001140     IErMin=18 ErrMin= 3.95D-04
 ErrMax= 3.95D-04  0.00D+00 EMaxC= 1.00D+00 BMatC= 5.73D-06 BMatP= 4.83D-06
 IDIUse=1 WtCom= 1.00D+00 WtEn= 0.00D+00
 Coeff-Com: -0.718D-01 0.160D+00-0.202D+00-0.109D+00 0.396D+00-0.223D+00
 Coeff-Com:  0.166D+00-0.663D+00 0.676D+00 0.572D+00-0.121D+01-0.248D+00
 Coeff-Com:  0.114D+00 0.997D+00 0.373D+01-0.502D+01 0.124D+01 0.697D+00
 Coeff:     -0.718D-01 0.160D+00-0.202D+00-0.109D+00 0.396D+00-0.223D+00
 Coeff:      0.166D+00-0.663D+00 0.676D+00 0.572D+00-0.121D+01-0.248D+00
 Coeff:      0.114D+00 0.997D+00 0.373D+01-0.502D+01 0.124D+01 0.697D+00
 Gap=     0.255 Goal=   None    Shift=    0.500
 Gap=     0.073 Goal=   None    Shift=    0.500
 RMSDP=2.01D-06 MaxDP=1.18D-04 DE=-5.25D-06 OVMax= 1.49D-03

 >>>>>>>>>> Convergence criterion not met.
 SCF Done:  E(ULC-wHPBE) =  -2293.18875001     A.U. after   33 cycles
            NFock= 32  Conv=0.20D-05     -V/T= 2.0039
 <Sx>= 0.0000 <Sy>= 0.0000 <Sz>= 0.5000 <S**2>= 0.7697 S= 0.5098
 <L.S>= 0.000000000000E+00
 KE= 2.284175191918D+03 PE=-1.413008196175D+04 EE= 5.157575857871D+03
 Annihilation of the first spin contaminant:
 S**2 before annihilation     0.7697,   after     0.7503
 Leave Link  502 at Thu Jan 28 05:02:04 2021, MaxMem=  4026531840 cpu:           37163.2 elap:            4687.0
 (Enter /opt/ohpc/pub/libs/gaussian/g16-A.03/sandybridge/g16/l508.exe)
 Integral symmetry usage will be decided dynamically.
 Tight linear equation convergence will be used.
 ULC-wHPBE wavefunction.
 Quadratic Convergence SCF Method.
 Line search only if initial step raises energy.
 FoFJK:  IHMeth= 1 ICntrl=       0 DoSepK=T KAlg= 0 I1Cent=           0 FoldK=F
 IRaf=         1 NMat=       1 IRICut=       1 DoRegI=T DoRafI=F ISym2E= 1 IDoP0=0 IntGTp=1.
 FoFCou: FMM=T IPFlag=           0 FMFlag=      100000 FMFlg1=        2001
         NFxFlg=           0 DoJE=T BraDBF=F KetDBF=F FulRan=T
         wScrn=  0.000000 ICntrl=       500 IOpCl=  0 I1Cent=           0 NGrid=           0
         NMat0=    1 NMatS0=      1 NMatT0=    0 NMatD0=    1 NMtDS0=    0 NMtDT0=    0
 Petite list used in FoFCou.
 FMM levels:  10  Number of levels for PrismC:   9
 Iteration   1 EE= -2293.18875403041                                    Grad=1.956D-03 Max rot=    0.0586 deg.
 QCNR:  CnvC1=1.96D-08 CnvC2=1.96D-07
 LinEq1:  Iter=  0 NonCon=     1 RMS=3.06D-05 Max=1.40D-02 NDo=     1
 AX will form     1 AO Fock derivatives at one time.
 LinEq1:  Iter=  1 NonCon=     1 RMS=5.29D-06 Max=8.69D-04 NDo=     1
 LinEq1:  Iter=  2 NonCon=     1 RMS=4.68D-06 Max=9.68D-04 NDo=     1
 LinEq1:  Iter=  3 NonCon=     1 RMS=3.01D-06 Max=3.00D-04 NDo=     1
 LinEq1:  Iter=  4 NonCon=     1 RMS=2.54D-06 Max=6.22D-04 NDo=     1
 LinEq1:  Iter=  5 NonCon=     1 RMS=1.88D-06 Max=2.03D-04 NDo=     1
 LinEq1:  Iter=  6 NonCon=     1 RMS=1.07D-06 Max=1.26D-04 NDo=     1
 LinEq1:  Iter=  7 NonCon=     1 RMS=5.92D-07 Max=6.85D-05 NDo=     1
 LinEq1:  Iter=  8 NonCon=     1 RMS=3.24D-07 Max=2.35D-05 NDo=     1
 LinEq1:  Iter=  9 NonCon=     1 RMS=1.46D-07 Max=1.05D-05 NDo=     1
 LinEq1:  Iter= 10 NonCon=     1 RMS=8.99D-08 Max=1.00D-05 NDo=     1
 LinEq1:  Iter= 11 NonCon=     1 RMS=4.95D-08 Max=4.94D-06 NDo=     1
 LinEq1:  Iter= 12 NonCon=     1 RMS=2.73D-08 Max=2.07D-06 NDo=     1
 LinEq1:  Iter= 13 NonCon=     1 RMS=1.62D-08 Max=1.42D-06 NDo=     1
 LinEq1:  Iter= 14 NonCon=     1 RMS=8.97D-09 Max=8.55D-07 NDo=     1
 LinEq1:  Iter= 15 NonCon=     1 RMS=4.94D-09 Max=4.16D-07 NDo=     1
 LinEq1:  Iter= 16 NonCon=     0 RMS=2.73D-09 Max=1.79D-07 NDo=     1
 Linear equations converged to 1.956D-08 1.956D-07 after    16 iterations.
 Angle between quadratic step and gradient= 133.46 degrees.
 Incorrect curvature in search direction -- initial direction reversed.
     ILin= 1 X=0.000D+00 Y=-2.293188754030D+03 DE= 0.00D+00 F= -2.94D-04
     ILin= 2 X=1.000D+00 Y=-2.293189175243D+03 DE=-4.21D-04 F= -5.24D-04
     ILin= 3 X=1.600D+00 Y=-2.293189509328D+03 DE=-7.55D-04 F= -5.75D-04
     ILin= 4 X=2.500D+00 Y=-2.293189994832D+03 DE=-1.24D-03 F= -4.58D-04
     Reject lnstep minimum 3.757D+00 FVal=-2.293190466867D+03 Lims=  1.60D+00  2.50D+00
     ILin= 5 X=3.900D+00 Y=-2.293190138035D+03 DE=-1.38D-03 F=  4.25D-04
     Accept linear search using points  4 and  5.
     An  expanding polynomial of degree  5 produced  3.4911
 Iteration   2 EE= -2293.19023319279     Delta-E=       -0.001479162381 Grad=1.969D-02 Max rot=    0.1769 deg.
 Gradient too large for Newton-Raphson -- use scaled steepest descent instead.
     ILin= 1 X=0.000D+00 Y=-2.293190233193D+03 DE= 0.00D+00 F= -6.10D-04
     ILin= 2 X=3.000D-01 Y=-2.293190382876D+03 DE=-1.50D-04 F= -3.88D-04
     ILin= 3 X=6.000D-01 Y=-2.293190466072D+03 DE=-2.33D-04 F= -1.67D-04
     ILin= 4 X=1.200D+00 Y=-2.293190433130D+03 DE=-2.00D-04 F=  2.76D-04
     An  expanding polynomial of degree  4 produced  0.8256
 Iteration   3 EE= -2293.19048485627     Delta-E=       -0.000251663483 Grad=7.320D-03 Max rot=    0.1395 deg.
 QCNR:  CnvC1=7.32D-08 CnvC2=7.32D-07
 LinEq1:  Iter=  0 NonCon=     1 RMS=5.34D-05 Max=1.68D-02 NDo=     1
 LinEq1:  Iter=  1 NonCon=     1 RMS=2.25D-05 Max=3.62D-03 NDo=     1
 LinEq1:  Iter=  2 NonCon=     1 RMS=1.80D-05 Max=1.45D-03 NDo=     1
 LinEq1:  Iter=  3 NonCon=     1 RMS=1.21D-05 Max=2.60D-03 NDo=     1
 LinEq1:  Iter=  4 NonCon=     1 RMS=6.79D-06 Max=1.00D-03 NDo=     1
 LinEq1:  Iter=  5 NonCon=     1 RMS=3.98D-06 Max=2.95D-04 NDo=     1
 LinEq1:  Iter=  6 NonCon=     1 RMS=2.45D-06 Max=1.79D-04 NDo=     1
 LinEq1:  Iter=  7 NonCon=     1 RMS=1.67D-06 Max=1.23D-04 NDo=     1
 LinEq1:  Iter=  8 NonCon=     1 RMS=1.03D-06 Max=1.14D-04 NDo=     1
 LinEq1:  Iter=  9 NonCon=     1 RMS=5.19D-07 Max=3.26D-05 NDo=     1
 LinEq1:  Iter= 10 NonCon=     1 RMS=3.34D-07 Max=3.07D-05 NDo=     1
 LinEq1:  Iter= 11 NonCon=     1 RMS=1.69D-07 Max=1.99D-05 NDo=     1
 LinEq1:  Iter= 12 NonCon=     1 RMS=9.91D-08 Max=1.54D-05 NDo=     1
 LinEq1:  Iter= 13 NonCon=     1 RMS=5.12D-08 Max=4.72D-06 NDo=     1
 LinEq1:  Iter= 14 NonCon=     1 RMS=3.01D-08 Max=2.76D-06 NDo=     1
 LinEq1:  Iter= 15 NonCon=     1 RMS=1.74D-08 Max=2.01D-06 NDo=     1
 LinEq1:  Iter= 16 NonCon=     1 RMS=1.00D-08 Max=1.37D-06 NDo=     1
 LinEq1:  Iter= 17 NonCon=     0 RMS=5.08D-09 Max=3.39D-07 NDo=     1
 Linear equations converged to 7.320D-08 7.320D-07 after    17 iterations.
 Angle between quadratic step and gradient=  67.93 degrees.
     ILin= 1 X=0.000D+00 Y=-2.293190484856D+03 DE= 0.00D+00 F= -1.11D-03
     ILin= 2 X=1.000D+00 Y=-2.293190867057D+03 DE=-3.82D-04
 Iteration   4 EE= -2293.19086705703     Delta-E=       -0.000382200763 Grad=1.048D-02 Max rot=    0.0548 deg.
 Gradient too large for Newton-Raphson -- use scaled steepest descent instead.
     ILin= 1 X=0.000D+00 Y=-2.293190867057D+03 DE= 0.00D+00 F= -1.64D-04
     ILin= 2 X=5.000D-01 Y=-2.293190924134D+03 DE=-5.71D-05 F= -6.44D-05
     ILin= 3 X=1.000D+00 Y=-2.293190931500D+03 DE=-6.44D-05 F=  3.50D-05
     Accept linear search using points  2 and  3.
     An  expanding polynomial of degree  3 produced  0.7692
 Iteration   5 EE= -2293.19093427611     Delta-E=       -0.000067219074 Grad=3.164D-03 Max rot=    0.0289 deg.
 QCNR:  CnvC1=3.16D-08 CnvC2=3.16D-07
 LinEq1:  Iter=  0 NonCon=     1 RMS=1.68D-05 Max=5.76D-03 NDo=     1
 LinEq1:  Iter=  1 NonCon=     1 RMS=8.72D-06 Max=1.68D-03 NDo=     1
 LinEq1:  Iter=  2 NonCon=     1 RMS=7.46D-06 Max=1.01D-03 NDo=     1
 LinEq1:  Iter=  3 NonCon=     1 RMS=3.82D-06 Max=3.56D-04 NDo=     1
 LinEq1:  Iter=  4 NonCon=     1 RMS=2.15D-06 Max=2.60D-04 NDo=     1
 LinEq1:  Iter=  5 NonCon=     1 RMS=1.29D-06 Max=1.02D-04 NDo=     1
 LinEq1:  Iter=  6 NonCon=     1 RMS=6.77D-07 Max=6.14D-05 NDo=     1
 LinEq1:  Iter=  7 NonCon=     1 RMS=4.92D-07 Max=3.88D-05 NDo=     1
 LinEq1:  Iter=  8 NonCon=     1 RMS=3.01D-07 Max=2.95D-05 NDo=     1
 LinEq1:  Iter=  9 NonCon=     1 RMS=1.61D-07 Max=1.39D-05 NDo=     1
 LinEq1:  Iter= 10 NonCon=     1 RMS=1.01D-07 Max=9.70D-06 NDo=     1
 LinEq1:  Iter= 11 NonCon=     1 RMS=5.23D-08 Max=4.19D-06 NDo=     1
 LinEq1:  Iter= 12 NonCon=     1 RMS=3.33D-08 Max=3.33D-06 NDo=     1
 LinEq1:  Iter= 13 NonCon=     1 RMS=1.58D-08 Max=9.43D-07 NDo=     1
 LinEq1:  Iter= 14 NonCon=     1 RMS=9.35D-09 Max=8.48D-07 NDo=     1
 LinEq1:  Iter= 15 NonCon=     1 RMS=5.25D-09 Max=4.72D-07 NDo=     1
 LinEq1:  Iter= 16 NonCon=     0 RMS=2.88D-09 Max=1.78D-07 NDo=     1
 Linear equations converged to 3.164D-08 3.164D-07 after    16 iterations.
 Angle between quadratic step and gradient=  70.42 degrees.
     ILin= 1 X=0.000D+00 Y=-2.293190934276D+03 DE= 0.00D+00 F= -7.78D-05
     ILin= 2 X=1.000D+00 Y=-2.293190974593D+03 DE=-4.03D-05
 Iteration   6 EE= -2293.19097459251     Delta-E=       -0.000040316402 Grad=3.780D-04 Max rot=    0.0020 deg.
 Rotation gradient small -- convergence achieved.
 SCF Done:  E(ULC-wHPBE) =  -2293.19097459     a.u. after    6 cycles
            Convg  =    0.3780D-03                    64 Fock formations.
              S**2 =  0.7782                  -V/T =  2.0039
 <Sx>= 0.0000 <Sy>= 0.0000 <Sz>= 0.5000 <S**2>= 0.7782 S= 0.5140
 <L.S>= 0.000000000000E+00
 Annihilation of the first spin contaminant:
 S**2 before annihilation     0.7782,   after     0.7507
 Leave Link  508 at Thu Jan 28 07:13:21 2021, MaxMem=  4026531840 cpu:           62222.1 elap:            7876.8
 (Enter /opt/ohpc/pub/libs/gaussian/g16-A.03/sandybridge/g16/l601.exe)
 Copying SCF densities to generalized density rwf, IOpCl= 1 IROHF=0.

 **********************************************************************

            Population analysis using the SCF density.

 **********************************************************************

 Orbital symmetries:
 Alpha Orbitals:
       Occupied  (A) (A) (A) (A) (A) (A) (A) (A) (A) (A) (A) (A)
                 (A) (A) (A) (A) (A) (A) (A) (A) (A) (A) (A) (A)
                 (A) (A) (A) (A) (A) (A) (A) (A) (A) (A) (A) (A)
                 (A) (A) (A) (A) (A) (A) (A) (A) (A) (A) (A) (A)
                 (A) (A) (A) (A) (A) (A) (A) (A) (A) (A) (A) (A)
                 (A) (A) (A) (A) (A) (A) (A) (A) (A) (A) (A) (A)
                 (A) (A) (A) (A) (A) (A) (A) (A) (A) (A) (A) (A)
                 (A) (A) (A) (A) (A) (A) (A) (A) (A) (A) (A) (A)
                 (A) (A) (A) (A) (A) (A) (A) (A) (A) (A) (A) (A)
                 (A) (A) (A) (A) (A) (A) (A) (A) (A) (A) (A) (A)
                 (A) (A) (A) (A) (A) (A) (A) (A) (A) (A) (A) (A)
                 (A) (A) (A) (A) (A) (A) (A) (A) (A) (A) (A) (A)
                 (A)
       Virtual   (A) (A) (A) (A) (A) (A) (A) (A) (A) (A) (A) (A)
                 (A) (A) (A) (A) (A) (A) (A) (A) (A) (A) (A) (A)
                 (A) (A) (A) (A) (A) (A) (A) (A) (A) (A) (A) (A)
                 (A) (A) (A) (A) (A) (A) (A) (A) (A) (A) (A) (A)
                 (A) (A) (A) (A) (A) (A) (A) (A) (A) (A) (A) (A)
                 (A) (A) (A) (A) (A) (A) (A) (A) (A) (A) (A) (A)
                 (A) (A) (A) (A) (A) (A) (A) (A) (A) (A) (A) (A)
                 (A) (A) (A) (A) (A) (A) (A) (A) (A) (A) (A) (A)
                 (A) (A) (A) (A) (A) (A) (A) (A) (A) (A) (A) (A)
                 (A) (A) (A) (A) (A) (A) (A) (A) (A) (A) (A) (A)
                 (A) (A) (A) (A) (A) (A) (A) (A) (A) (A) (A) (A)
                 (A) (A) (A) (A) (A) (A) (A) (A) (A) (A) (A) (A)
                 (A) (A) (A) (A) (A) (A) (A) (A) (A) (A) (A) (A)
                 (A) (A) (A) (A) (A) (A) (A) (A) (A) (A) (A) (A)
                 (A) (A) (A) (A) (A) (A) (A) (A) (A) (A) (A) (A)
                 (A) (A) (A) (A) (A) (A) (A) (A) (A) (A) (A) (A)
                 (A) (A) (A) (A) (A) (A) (A) (A) (A) (A) (A) (A)
                 (A) (A) (A) (A) (A) (A) (A) (A) (A) (A) (A) (A)
                 (A) (A) (A) (A) (A) (A) (A) (A) (A) (A) (A) (A)
                 (A) (A) (A) (A) (A) (A) (A) (A) (A) (A) (A) (A)
                 (A) (A) (A) (A) (A) (A) (A) (A) (A) (A) (A) (A)
                 (A) (A) (A) (A) (A) (A) (A) (A) (A) (A) (A) (A)
                 (A) (A) (A) (A) (A) (A) (A) (A) (A) (A) (A) (A)
                 (A) (A) (A) (A) (A) (A) (A) (A) (A) (A) (A) (A)
                 (A) (A) (A) (A) (A) (A) (A) (A) (A) (A) (A) (A)
                 (A) (A) (A) (A) (A) (A) (A) (A) (A) (A) (A) (A)
                 (A) (A) (A) (A) (A) (A) (A) (A) (A) (A) (A) (A)
                 (A) (A) (A) (A) (A) (A) (A) (A) (A) (A) (A) (A)
                 (A) (A) (A) (A) (A) (A) (A) (A) (A) (A) (A) (A)
                 (A) (A) (A) (A) (A) (A) (A) (A) (A) (A) (A) (A)
                 (A) (A) (A) (A) (A) (A) (A) (A) (A) (A) (A) (A)
                 (A) (A) (A) (A) (A) (A) (A) (A) (A) (A) (A) (A)
                 (A) (A) (A) (A) (A) (A) (A) (A) (A) (A) (A) (A)
                 (A) (A) (A) (A) (A) (A) (A) (A) (A) (A) (A) (A)
                 (A) (A) (A) (A) (A) (A) (A) (A) (A) (A) (A) (A)
                 (A) (A) (A) (A) (A) (A) (A) (A) (A) (A) (A) (A)
                 (A) (A) (A) (A) (A) (A) (A) (A) (A) (A) (A) (A)
                 (A) (A) (A) (A) (A) (A) (A) (A) (A) (A) (A) (A)
                 (A) (A) (A) (A) (A) (A) (A) (A) (A) (A) (A) (A)
                 (A) (A) (A) (A) (A) (A) (A) (A) (A) (A) (A) (A)
                 (A) (A) (A) (A) (A) (A) (A) (A) (A) (A) (A) (A)
                 (A) (A) (A) (A) (A) (A) (A) (A) (A) (A) (A) (A)
                 (A) (A) (A) (A) (A) (A) (A) (A) (A) (A) (A) (A)
                 (A) (A) (A) (A) (A) (A) (A) (A) (A) (A) (A) (A)
                 (A) (A) (A) (A) (A) (A) (A) (A) (A) (A) (A) (A)
                 (A) (A) (A) (A) (A) (A) (A) (A) (A) (A) (A) (A)
                 (A) (A) (A) (A) (A) (A) (A) (A) (A) (A) (A) (A)
                 (A) (A) (A) (A) (A) (A) (A) (A) (A) (A) (A) (A)
                 (A) (A) (A) (A) (A) (A) (A) (A) (A) (A) (A) (A)
                 (A) (A) (A) (A) (A) (A) (A) (A) (A) (A) (A) (A)
                 (A) (A) (A) (A) (A) (A) (A) (A) (A) (A) (A) (A)
                 (A) (A) (A) (A) (A) (A) (A) (A) (A) (A) (A) (A)
                 (A) (A) (A) (A) (A) (A) (A) (A) (A) (A) (A) (A)
                 (A) (A) (A) (A) (A) (A) (A) (A) (A) (A) (A) (A)
                 (A) (A) (A) (A) (A) (A) (A) (A) (A) (A) (A) (A)
                 (A) (A) (A) (A) (A) (A) (A) (A) (A) (A) (A) (A)
                 (A) (A) (A) (A) (A) (A) (A) (A) (A) (A) (A) (A)
                 (A) (A) (A) (A) (A) (A) (A) (A) (A) (A) (A) (A)
                 (A) (A) (A) (A) (A) (A) (A) (A) (A) (A) (A) (A)
                 (A) (A) (A) (A) (A) (A) (A) (A) (A) (A) (A) (A)
                 (A) (A) (A) (A) (A) (A) (A) (A) (A) (A) (A) (A)
                 (A) (A) (A) (A) (A) (A) (A) (A) (A) (A) (A) (A)
                 (A) (A) (A) (A) (A) (A) (A) (A) (A) (A) (A) (A)
                 (A) (A) (A) (A) (A) (A) (A) (A) (A) (A) (A) (A)
                 (A) (A) (A) (A) (A) (A) (A) (A) (A) (A) (A) (A)
                 (A) (A) (A) (A) (A) (A) (A) (A) (A)
 Beta  Orbitals:
       Occupied  (A) (A) (A) (A) (A) (A) (A) (A) (A) (A) (A) (A)
                 (A) (A) (A) (A) (A) (A) (A) (A) (A) (A) (A) (A)
                 (A) (A) (A) (A) (A) (A) (A) (A) (A) (A) (A) (A)
                 (A) (A) (A) (A) (A) (A) (A) (A) (A) (A) (A) (A)
                 (A) (A) (A) (A) (A) (A) (A) (A) (A) (A) (A) (A)
                 (A) (A) (A) (A) (A) (A) (A) (A) (A) (A) (A) (A)
                 (A) (A) (A) (A) (A) (A) (A) (A) (A) (A) (A) (A)
                 (A) (A) (A) (A) (A) (A) (A) (A) (A) (A) (A) (A)
                 (A) (A) (A) (A) (A) (A) (A) (A) (A) (A) (A) (A)
                 (A) (A) (A) (A) (A) (A) (A) (A) (A) (A) (A) (A)
                 (A) (A) (A) (A) (A) (A) (A) (A) (A) (A) (A) (A)
                 (A) (A) (A) (A) (A) (A) (A) (A) (A) (A) (A) (A)
       Virtual   (A) (A) (A) (A) (A) (A) (A) (A) (A) (A) (A) (A)
                 (A) (A) (A) (A) (A) (A) (A) (A) (A) (A) (A) (A)
                 (A) (A) (A) (A) (A) (A) (A) (A) (A) (A) (A) (A)
                 (A) (A) (A) (A) (A) (A) (A) (A) (A) (A) (A) (A)
                 (A) (A) (A) (A) (A) (A) (A) (A) (A) (A) (A) (A)
                 (A) (A) (A) (A) (A) (A) (A) (A) (A) (A) (A) (A)
                 (A) (A) (A) (A) (A) (A) (A) (A) (A) (A) (A) (A)
                 (A) (A) (A) (A) (A) (A) (A) (A) (A) (A) (A) (A)
                 (A) (A) (A) (A) (A) (A) (A) (A) (A) (A) (A) (A)
                 (A) (A) (A) (A) (A) (A) (A) (A) (A) (A) (A) (A)
                 (A) (A) (A) (A) (A) (A) (A) (A) (A) (A) (A) (A)
                 (A) (A) (A) (A) (A) (A) (A) (A) (A) (A) (A) (A)
                 (A) (A) (A) (A) (A) (A) (A) (A) (A) (A) (A) (A)
                 (A) (A) (A) (A) (A) (A) (A) (A) (A) (A) (A) (A)
                 (A) (A) (A) (A) (A) (A) (A) (A) (A) (A) (A) (A)
                 (A) (A) (A) (A) (A) (A) (A) (A) (A) (A) (A) (A)
                 (A) (A) (A) (A) (A) (A) (A) (A) (A) (A) (A) (A)
                 (A) (A) (A) (A) (A) (A) (A) (A) (A) (A) (A) (A)
                 (A) (A) (A) (A) (A) (A) (A) (A) (A) (A) (A) (A)
                 (A) (A) (A) (A) (A) (A) (A) (A) (A) (A) (A) (A)
                 (A) (A) (A) (A) (A) (A) (A) (A) (A) (A) (A) (A)
                 (A) (A) (A) (A) (A) (A) (A) (A) (A) (A) (A) (A)
                 (A) (A) (A) (A) (A) (A) (A) (A) (A) (A) (A) (A)
                 (A) (A) (A) (A) (A) (A) (A) (A) (A) (A) (A) (A)
                 (A) (A) (A) (A) (A) (A) (A) (A) (A) (A) (A) (A)
                 (A) (A) (A) (A) (A) (A) (A) (A) (A) (A) (A) (A)
                 (A) (A) (A) (A) (A) (A) (A) (A) (A) (A) (A) (A)
                 (A) (A) (A) (A) (A) (A) (A) (A) (A) (A) (A) (A)
                 (A) (A) (A) (A) (A) (A) (A) (A) (A) (A) (A) (A)
                 (A) (A) (A) (A) (A) (A) (A) (A) (A) (A) (A) (A)
                 (A) (A) (A) (A) (A) (A) (A) (A) (A) (A) (A) (A)
                 (A) (A) (A) (A) (A) (A) (A) (A) (A) (A) (A) (A)
                 (A) (A) (A) (A) (A) (A) (A) (A) (A) (A) (A) (A)
                 (A) (A) (A) (A) (A) (A) (A) (A) (A) (A) (A) (A)
                 (A) (A) (A) (A) (A) (A) (A) (A) (A) (A) (A) (A)
                 (A) (A) (A) (A) (A) (A) (A) (A) (A) (A) (A) (A)
                 (A) (A) (A) (A) (A) (A) (A) (A) (A) (A) (A) (A)
                 (A) (A) (A) (A) (A) (A) (A) (A) (A) (A) (A) (A)
                 (A) (A) (A) (A) (A) (A) (A) (A) (A) (A) (A) (A)
                 (A) (A) (A) (A) (A) (A) (A) (A) (A) (A) (A) (A)
                 (A) (A) (A) (A) (A) (A) (A) (A) (A) (A) (A) (A)
                 (A) (A) (A) (A) (A) (A) (A) (A) (A) (A) (A) (A)
                 (A) (A) (A) (A) (A) (A) (A) (A) (A) (A) (A) (A)
                 (A) (A) (A) (A) (A) (A) (A) (A) (A) (A) (A) (A)
                 (A) (A) (A) (A) (A) (A) (A) (A) (A) (A) (A) (A)
                 (A) (A) (A) (A) (A) (A) (A) (A) (A) (A) (A) (A)
                 (A) (A) (A) (A) (A) (A) (A) (A) (A) (A) (A) (A)
                 (A) (A) (A) (A) (A) (A) (A) (A) (A) (A) (A) (A)
                 (A) (A) (A) (A) (A) (A) (A) (A) (A) (A) (A) (A)
                 (A) (A) (A) (A) (A) (A) (A) (A) (A) (A) (A) (A)
                 (A) (A) (A) (A) (A) (A) (A) (A) (A) (A) (A) (A)
                 (A) (A) (A) (A) (A) (A) (A) (A) (A) (A) (A) (A)
                 (A) (A) (A) (A) (A) (A) (A) (A) (A) (A) (A) (A)
                 (A) (A) (A) (A) (A) (A) (A) (A) (A) (A) (A) (A)
                 (A) (A) (A) (A) (A) (A) (A) (A) (A) (A) (A) (A)
                 (A) (A) (A) (A) (A) (A) (A) (A) (A) (A) (A) (A)
                 (A) (A) (A) (A) (A) (A) (A) (A) (A) (A) (A) (A)
                 (A) (A) (A) (A) (A) (A) (A) (A) (A) (A) (A) (A)
                 (A) (A) (A) (A) (A) (A) (A) (A) (A) (A) (A) (A)
                 (A) (A) (A) (A) (A) (A) (A) (A) (A) (A) (A) (A)
                 (A) (A) (A) (A) (A) (A) (A) (A) (A) (A) (A) (A)
                 (A) (A) (A) (A) (A) (A) (A) (A) (A) (A) (A) (A)
                 (A) (A) (A) (A) (A) (A) (A) (A) (A) (A) (A) (A)
                 (A) (A) (A) (A) (A) (A) (A) (A) (A) (A) (A) (A)
                 (A) (A) (A) (A) (A) (A) (A) (A) (A) (A) (A) (A)
                 (A) (A) (A) (A) (A) (A) (A) (A) (A) (A)
 The electronic state is 2-A.
 Alpha  occ. eigenvalues --  -88.35147 -88.32685 -14.35517 -14.21537 -10.21300
 Alpha  occ. eigenvalues --  -10.20566 -10.20458 -10.20423 -10.18619 -10.17117
 Alpha  occ. eigenvalues --  -10.16898 -10.16284 -10.16070 -10.15950 -10.15916
 Alpha  occ. eigenvalues --  -10.15845 -10.15103 -10.14966 -10.14890 -10.14854
 Alpha  occ. eigenvalues --  -10.14722 -10.14715 -10.13755 -10.13748 -10.12173
 Alpha  occ. eigenvalues --  -10.11851 -10.10852 -10.10494 -10.09877 -10.09644
 Alpha  occ. eigenvalues --  -10.07969 -10.07842 -10.07782 -10.07607 -10.07489
 Alpha  occ. eigenvalues --  -10.07445 -10.07384 -10.07349 -10.07295 -10.06914
 Alpha  occ. eigenvalues --   -7.94364  -7.91899  -5.96485  -5.95973  -5.95379
 Alpha  occ. eigenvalues --   -5.94096  -5.93561  -5.92758  -1.20498  -1.09597
 Alpha  occ. eigenvalues --   -1.08413  -1.06548  -1.05081  -1.01774  -1.00088
 Alpha  occ. eigenvalues --   -0.98469  -0.98274  -0.97025  -0.96562  -0.95373
 Alpha  occ. eigenvalues --   -0.94788  -0.93891  -0.92923  -0.90318  -0.90181
 Alpha  occ. eigenvalues --   -0.88385  -0.88206  -0.87161  -0.86884  -0.84593
 Alpha  occ. eigenvalues --   -0.83791  -0.83506  -0.81811  -0.81051  -0.80303
 Alpha  occ. eigenvalues --   -0.78067  -0.77376  -0.76370  -0.75401  -0.74981
 Alpha  occ. eigenvalues --   -0.74337  -0.73328  -0.73114  -0.71108  -0.71035
 Alpha  occ. eigenvalues --   -0.70550  -0.69095  -0.68416  -0.68262  -0.67483
 Alpha  occ. eigenvalues --   -0.66990  -0.65919  -0.64795  -0.64366  -0.64107
 Alpha  occ. eigenvalues --   -0.63882  -0.63341  -0.62880  -0.62527  -0.62489
 Alpha  occ. eigenvalues --   -0.61472  -0.60900  -0.60848  -0.60384  -0.59749
 Alpha  occ. eigenvalues --   -0.59657  -0.59079  -0.58449  -0.57860  -0.57696
 Alpha  occ. eigenvalues --   -0.57009  -0.56651  -0.56555  -0.56228  -0.55772
 Alpha  occ. eigenvalues --   -0.55704  -0.55216  -0.54903  -0.54539  -0.54420
 Alpha  occ. eigenvalues --   -0.54111  -0.52615  -0.52239  -0.51782  -0.51560
 Alpha  occ. eigenvalues --   -0.50937  -0.50403  -0.49214  -0.48481  -0.48050
 Alpha  occ. eigenvalues --   -0.47790  -0.47565  -0.47047  -0.46809  -0.46479
 Alpha  occ. eigenvalues --   -0.46172  -0.44320  -0.43605  -0.41991  -0.40748
 Alpha  occ. eigenvalues --   -0.40050  -0.39504  -0.39211  -0.38610  -0.32112
 Alpha virt. eigenvalues --   -0.10494  -0.10095  -0.09466  -0.07829  -0.06915
 Alpha virt. eigenvalues --   -0.05398  -0.04703  -0.03467  -0.02965  -0.01708
 Alpha virt. eigenvalues --   -0.00649  -0.00452   0.00192   0.00537   0.01273
 Alpha virt. eigenvalues --    0.02217   0.02358   0.02764   0.02831   0.03482
 Alpha virt. eigenvalues --    0.03812   0.04496   0.05436   0.05681   0.05955
 Alpha virt. eigenvalues --    0.06416   0.06715   0.07022   0.07169   0.07400
 Alpha virt. eigenvalues --    0.07589   0.07652   0.07985   0.08393   0.08619
 Alpha virt. eigenvalues --    0.09115   0.09493   0.09637   0.10062   0.10320
 Alpha virt. eigenvalues --    0.10965   0.11118   0.11660   0.12180   0.12415
 Alpha virt. eigenvalues --    0.12750   0.12978   0.13493   0.13612   0.13888
 Alpha virt. eigenvalues --    0.14110   0.14473   0.14797   0.14882   0.14969
 Alpha virt. eigenvalues --    0.15375   0.15711   0.15792   0.16434   0.16750
 Alpha virt. eigenvalues --    0.17045   0.17179   0.17420   0.17658   0.17933
 Alpha virt. eigenvalues --    0.18337   0.18626   0.19014   0.19227   0.19587
 Alpha virt. eigenvalues --    0.19590   0.19824   0.19911   0.20415   0.20547
 Alpha virt. eigenvalues --    0.20840   0.21036   0.21334   0.21436   0.21698
 Alpha virt. eigenvalues --    0.21910   0.22167   0.22489   0.22678   0.22823
 Alpha virt. eigenvalues --    0.23386   0.23430   0.23590   0.23895   0.24104
 Alpha virt. eigenvalues --    0.24223   0.24510   0.24726   0.25151   0.25288
 Alpha virt. eigenvalues --    0.25696   0.25705   0.25914   0.26044   0.26396
 Alpha virt. eigenvalues --    0.26616   0.26990   0.27327   0.27385   0.27639
 Alpha virt. eigenvalues --    0.27692   0.27944   0.28333   0.28586   0.28730
 Alpha virt. eigenvalues --    0.29281   0.29350   0.29776   0.30126   0.30688
 Alpha virt. eigenvalues --    0.30933   0.31065   0.31324   0.31409   0.31901
 Alpha virt. eigenvalues --    0.32053   0.32365   0.32508   0.32695   0.32853
 Alpha virt. eigenvalues --    0.33336   0.33600   0.33806   0.34220   0.34380
 Alpha virt. eigenvalues --    0.34525   0.34754   0.34888   0.34892   0.35259
 Alpha virt. eigenvalues --    0.35532   0.35680   0.36367   0.36566   0.36795
 Alpha virt. eigenvalues --    0.37095   0.37228   0.37572   0.37680   0.38132
 Alpha virt. eigenvalues --    0.38351   0.38549   0.38707   0.38838   0.39235
 Alpha virt. eigenvalues --    0.39375   0.39586   0.39860   0.40245   0.40385
 Alpha virt. eigenvalues --    0.40725   0.40798   0.41078   0.41188   0.41228
 Alpha virt. eigenvalues --    0.41465   0.41654   0.41860   0.42457   0.42613
 Alpha virt. eigenvalues --    0.42836   0.43230   0.43639   0.43662   0.43960
 Alpha virt. eigenvalues --    0.44026   0.44343   0.44461   0.44633   0.44742
 Alpha virt. eigenvalues --    0.45106   0.45329   0.45592   0.45604   0.45792
 Alpha virt. eigenvalues --    0.46157   0.46420   0.46993   0.47135   0.47403
 Alpha virt. eigenvalues --    0.47467   0.47892   0.48068   0.48449   0.48797
 Alpha virt. eigenvalues --    0.49591   0.49689   0.49936   0.50219   0.50431
[...]
 
              Baa    -0.0141    -0.576    -0.206    -0.192  0.1906  0.8385  0.5105
     3 S(33)  Bbb    -0.0117    -0.481    -0.172    -0.160  0.7854  0.1817 -0.5917
              Bcc     0.0258     1.058     0.377     0.353  0.5889 -0.5137  0.6240
 
              Baa    -0.0868   -11.647    -4.156    -3.885 -0.3425  0.7511  0.5644
     4 C(13)  Bbb    -0.0792   -10.621    -3.790    -3.543  0.7091 -0.1875  0.6797
              Bcc     0.1659    22.268     7.946     7.428  0.6164  0.6331 -0.4683
 
              Baa    -0.0013    -0.173    -0.062    -0.058 -0.1658  0.9564 -0.2402
     5 C(13)  Bbb     0.0002     0.025     0.009     0.008  0.2630  0.2777  0.9240
              Bcc     0.0011     0.148     0.053     0.049  0.9504  0.0900 -0.2976
 
              Baa    -0.0038    -0.509    -0.182    -0.170  0.7849  0.5883 -0.1945
     6 C(13)  Bbb     0.0014     0.191     0.068     0.064  0.5744 -0.5731  0.5845
              Bcc     0.0024     0.318     0.114     0.106 -0.2324  0.5705  0.7877
 
              Baa    -0.0249    -3.347    -1.194    -1.116  0.0251  0.9823  0.1855
     7 C(13)  Bbb     0.0022     0.297     0.106     0.099  0.7189 -0.1467  0.6794
              Bcc     0.0227     3.050     1.088     1.017 -0.6946 -0.1163  0.7099
 
              Baa    -0.0432    -5.802    -2.070    -1.935  0.5246  0.6402 -0.5612
     8 C(13)  Bbb     0.0190     2.545     0.908     0.849 -0.1917  0.7311  0.6548
              Bcc     0.0243     3.257     1.162     1.086  0.8295 -0.2359  0.5062
 
              Baa    -0.0030    -1.612    -0.575    -0.538  0.7426 -0.3686  0.5591
     9 H(1)   Bbb    -0.0008    -0.418    -0.149    -0.140  0.6397  0.6375 -0.4293
              Bcc     0.0038     2.030     0.724     0.677 -0.1982  0.6765  0.7093
 
              Baa    -0.0007    -0.098    -0.035    -0.033  0.1014  0.7365  0.6688
    10 C(13)  Bbb    -0.0002    -0.032    -0.011    -0.011  0.2152 -0.6726  0.7080
              Bcc     0.0010     0.130     0.046     0.043  0.9713  0.0722 -0.2267
 
              Baa    -0.0007    -0.091    -0.033    -0.030  0.5203  0.3550  0.7767
    11 C(13)  Bbb    -0.0003    -0.039    -0.014    -0.013  0.1476  0.8585 -0.4912
              Bcc     0.0010     0.130     0.046     0.043  0.8412 -0.3702 -0.3942
 
              Baa    -0.0009    -0.121    -0.043    -0.040  0.2729  0.8373 -0.4738
    12 C(13)  Bbb    -0.0002    -0.033    -0.012    -0.011  0.9127 -0.0695  0.4028
              Bcc     0.0011     0.154     0.055     0.051 -0.3043  0.5424  0.7831
 
              Baa    -0.0005    -0.069    -0.025    -0.023 -0.0533  0.9382 -0.3421
    13 C(13)  Bbb    -0.0000    -0.002    -0.001    -0.001  0.6456  0.2937  0.7050
              Bcc     0.0005     0.071     0.025     0.024  0.7618 -0.1833 -0.6213
 
              Baa    -0.0005    -0.271    -0.097    -0.090 -0.0732  0.9433  0.3237
    14 H(1)   Bbb    -0.0003    -0.155    -0.055    -0.052  0.3433 -0.2809  0.8963
              Bcc     0.0008     0.426     0.152     0.142  0.9364  0.1768 -0.3032
 
              Baa    -0.0005    -0.272    -0.097    -0.091  0.3706  0.7426 -0.5578
    15 H(1)   Bbb    -0.0003    -0.165    -0.059    -0.055  0.4352  0.3917  0.8106
              Bcc     0.0008     0.436     0.156     0.145  0.8205 -0.5432 -0.1780
 
              Baa    -0.0003    -0.157    -0.056    -0.052  0.3119  0.9392 -0.1433
    16 H(1)   Bbb    -0.0002    -0.106    -0.038    -0.035  0.1576  0.0976  0.9827
              Bcc     0.0005     0.263     0.094     0.088  0.9369 -0.3291 -0.1176
 
              Baa    -0.0620    -8.326    -2.971    -2.777  0.8316 -0.5282  0.1714
    17 C(13)  Bbb    -0.0555    -7.443    -2.656    -2.483 -0.0071  0.2984  0.9544
              Bcc     0.1175    15.769     5.627     5.260  0.5553  0.7949 -0.2444
 
              Baa    -0.0048    -2.544    -0.908    -0.849  0.8938  0.4358 -0.1060
    18 H(1)   Bbb    -0.0031    -1.642    -0.586    -0.548  0.3719 -0.5880  0.7183
              Bcc     0.0078     4.186     1.494     1.396 -0.2507  0.6814  0.6876
 
              Baa    -0.0016    -0.860    -0.307    -0.287  0.0268  0.9989  0.0396
    19 H(1)   Bbb    -0.0004    -0.223    -0.080    -0.075  0.2873 -0.0456  0.9568
              Bcc     0.0020     1.084     0.387     0.361  0.9575 -0.0142 -0.2882
 
              Baa    -0.0030    -1.620    -0.578    -0.540  0.5573  0.7115 -0.4280
    20 H(1)   Bbb     0.0003     0.137     0.049     0.046  0.2465  0.3504  0.9036
              Bcc     0.0028     1.483     0.529     0.495  0.7929 -0.6090  0.0199
 
              Baa    -0.0049    -2.601    -0.928    -0.867  0.0297 -0.4733  0.8804
    21 H(1)   Bbb    -0.0036    -1.901    -0.678    -0.634  0.8754  0.4375  0.2056
              Bcc     0.0084     4.502     1.606     1.502 -0.4825  0.7646  0.4273
 
              Baa    -0.2263    -9.278    -3.311    -3.095  0.7790 -0.4009  0.4821
    22 S(33)  Bbb    -0.2056    -8.428    -3.007    -2.811 -0.1347  0.6439  0.7531
              Bcc     0.4319    17.707     6.318     5.906  0.6123  0.6516 -0.4477
 
              Baa    -0.0012    -0.046    -0.017    -0.015 -0.0168  0.9897  0.1422
    23 N(14)  Bbb    -0.0006    -0.022    -0.008    -0.008  0.9423  0.0632 -0.3286
              Bcc     0.0018     0.069     0.025     0.023  0.3342 -0.1285  0.9337
 
              Baa    -0.0002    -0.030    -0.011    -0.010 -0.0280  0.8997 -0.4356
    24 C(13)  Bbb    -0.0001    -0.015    -0.005    -0.005  0.3006  0.4232  0.8547
              Bcc     0.0003     0.045     0.016     0.015  0.9533 -0.1071 -0.2823
 
              Baa    -0.0002    -0.027    -0.010    -0.009  0.1321  0.6726  0.7281
    25 C(13)  Bbb    -0.0000    -0.003    -0.001    -0.001 -0.5470  0.6621 -0.5123
              Bcc     0.0002     0.030     0.011     0.010  0.8267  0.3306 -0.4553
 
              Baa    -0.0002    -0.032    -0.012    -0.011  0.3641  0.4215  0.8305
    26 C(13)  Bbb     0.0000     0.000     0.000     0.000 -0.4528  0.8594 -0.2377
              Bcc     0.0002     0.032     0.012     0.011  0.8139  0.2895 -0.5037
 
              Baa    -0.0001    -0.017    -0.006    -0.006  0.0415 -0.7055  0.7075
    27 C(13)  Bbb    -0.0001    -0.007    -0.003    -0.002  0.2140  0.6979  0.6834
              Bcc     0.0002     0.025     0.009     0.008  0.9759 -0.1231 -0.1800
 
              Baa    -0.0002    -0.023    -0.008    -0.008  0.0027  0.7307 -0.6827
    28 C(13)  Bbb    -0.0001    -0.008    -0.003    -0.003  0.3780  0.6313  0.6772
              Bcc     0.0002     0.032     0.011     0.011  0.9258 -0.2599 -0.2745
 
              Baa    -0.0002    -0.025    -0.009    -0.009  0.3117  0.7435  0.5916
    29 C(13)  Bbb     0.0000     0.005     0.002     0.002  0.9167 -0.3991  0.0186
              Bcc     0.0002     0.021     0.007     0.007 -0.2500 -0.5365  0.8060
 
              Baa    -0.0001    -0.059    -0.021    -0.020 -0.0922  0.9656 -0.2433
    30 H(1)   Bbb    -0.0001    -0.051    -0.018    -0.017  0.0747  0.2504  0.9653
              Bcc     0.0002     0.110     0.039     0.037  0.9929  0.0708 -0.0952
 
              Baa    -0.0002    -0.105    -0.037    -0.035  0.1466  0.9735 -0.1756
    31 H(1)   Bbb    -0.0001    -0.074    -0.026    -0.025  0.3769  0.1091  0.9198
              Bcc     0.0003     0.179     0.064     0.060  0.9146 -0.2010 -0.3510
 
              Baa    -0.0001    -0.036    -0.013    -0.012  0.0171  0.9339 -0.3572
    32 H(1)   Bbb    -0.0001    -0.032    -0.012    -0.011  0.1613  0.3500  0.9227
              Bcc     0.0001     0.068     0.024     0.023  0.9868 -0.0734 -0.1447
 
              Baa    -0.0001    -0.053    -0.019    -0.018  0.1835  0.9354 -0.3022
    33 H(1)   Bbb    -0.0001    -0.046    -0.016    -0.015  0.4179  0.2041  0.8853
              Bcc     0.0002     0.099     0.035     0.033  0.8898 -0.2887 -0.3534
 
              Baa    -0.0001    -0.038    -0.014    -0.013  0.3703  0.7814  0.5023
    34 H(1)   Bbb    -0.0001    -0.033    -0.012    -0.011  0.0958 -0.5700  0.8160
              Bcc     0.0001     0.071     0.025     0.024  0.9240 -0.2541 -0.2859
 
              Baa    -0.0002    -0.027    -0.010    -0.009  0.3778 -0.6517  0.6576
    35 C(13)  Bbb    -0.0001    -0.020    -0.007    -0.007 -0.0427  0.6973  0.7156
              Bcc     0.0003     0.046     0.016     0.015  0.9249  0.2985 -0.2356
 
              Baa    -0.0002    -0.033    -0.012    -0.011 -0.1095  0.8377  0.5350
    36 C(13)  Bbb    -0.0001    -0.019    -0.007    -0.006  0.0696 -0.5304  0.8449
              Bcc     0.0004     0.052     0.018     0.017  0.9915  0.1298 -0.0002
 
              Baa    -0.0003    -0.044    -0.016    -0.015 -0.1107  0.6225  0.7748
    37 C(13)  Bbb    -0.0002    -0.023    -0.008    -0.008 -0.0934  0.7696 -0.6316
              Bcc     0.0005     0.067     0.024     0.022  0.9895  0.1423  0.0270
 
              Baa    -0.0001    -0.019    -0.007    -0.006  0.4744 -0.4574  0.7521
    38 C(13)  Bbb    -0.0001    -0.012    -0.004    -0.004 -0.2020  0.7750  0.5988
              Bcc     0.0002     0.031     0.011     0.010  0.8568  0.4360 -0.2753
 
              Baa    -0.0002    -0.024    -0.008    -0.008  0.1559 -0.0873  0.9839
    39 C(13)  Bbb    -0.0002    -0.022    -0.008    -0.007 -0.4854  0.8607  0.1533
              Bcc     0.0003     0.046     0.016     0.015  0.8603  0.5015 -0.0918
 
              Baa    -0.0002    -0.033    -0.012    -0.011 -0.2894  0.6685  0.6851
    40 C(13)  Bbb    -0.0001    -0.012    -0.004    -0.004  0.0001  0.7157 -0.6984
              Bcc     0.0003     0.045     0.016     0.015  0.9572  0.2021  0.2072
 
              Baa    -0.0001    -0.069    -0.025    -0.023 -0.1179  0.9699  0.2130
    41 H(1)   Bbb    -0.0001    -0.057    -0.020    -0.019  0.3468 -0.1608  0.9241
              Bcc     0.0002     0.126     0.045     0.042  0.9305  0.1828 -0.3174
 
              Baa    -0.0004    -0.189    -0.068    -0.063 -0.2292  0.8415  0.4893
    42 H(1)   Bbb    -0.0002    -0.132    -0.047    -0.044  0.2156 -0.4463  0.8685
              Bcc     0.0006     0.322     0.115     0.107  0.9492  0.3046 -0.0792
 
              Baa    -0.0001    -0.052    -0.018    -0.017 -0.1751  0.7609  0.6248
    43 H(1)   Bbb    -0.0001    -0.047    -0.017    -0.016  0.4201 -0.5162  0.7464
              Bcc     0.0002     0.099     0.035     0.033  0.8904  0.3932 -0.2293
 
              Baa    -0.0002    -0.112    -0.040    -0.037 -0.4146  0.5769  0.7038
    44 H(1)   Bbb    -0.0002    -0.084    -0.030    -0.028  0.3298 -0.6256  0.7070
              Bcc     0.0004     0.196     0.070     0.065  0.8481  0.5253  0.0691
 
              Baa    -0.0001    -0.066    -0.024    -0.022 -0.2116  0.3818  0.8997
    45 H(1)   Bbb    -0.0001    -0.051    -0.018    -0.017 -0.5059  0.7449 -0.4351
              Bcc     0.0002     0.118     0.042     0.039  0.8363  0.5472 -0.0356
 
              Baa    -0.5175   -19.958    -7.121    -6.657  0.0074  0.9980  0.0626
    46 N(14)  Bbb    -0.5168   -19.930    -7.112    -6.648  0.7383 -0.0477  0.6728
              Bcc     1.0342    39.888    14.233    13.305 -0.6744 -0.0413  0.7372
 
              Baa    -0.0393    -5.280    -1.884    -1.761  0.1368  0.3197  0.9376
    47 C(13)  Bbb     0.0146     1.960     0.699     0.654  0.9803  0.0925 -0.1746
              Bcc     0.0247     3.320     1.185     1.107 -0.1425  0.9430 -0.3008
 
              Baa    -0.0586    -7.866    -2.807    -2.624  0.4223  0.8772 -0.2285
    48 C(13)  Bbb    -0.0512    -6.872    -2.452    -2.292  0.8860 -0.4527 -0.1005
              Bcc     0.1098    14.738     5.259     4.916  0.1916  0.1600  0.9683
 
              Baa    -0.0604    -8.102    -2.891    -2.703  0.8316 -0.5495  0.0806
    49 C(13)  Bbb    -0.0530    -7.116    -2.539    -2.374  0.5337  0.7506 -0.3896
              Bcc     0.1134    15.218     5.430     5.076  0.1536  0.3670  0.9175
 
              Baa    -0.0504    -6.769    -2.415    -2.258 -0.1007  0.2360  0.9665
    50 C(13)  Bbb     0.0227     3.050     1.088     1.017  0.9722  0.2297  0.0452
              Bcc     0.0277     3.719     1.327     1.241 -0.2114  0.9442 -0.2526
 
              Baa    -0.0522    -7.011    -2.502    -2.339 -0.0755  0.1649  0.9834
    51 C(13)  Bbb     0.0235     3.158     1.127     1.053  0.9229  0.3850  0.0063
              Bcc     0.0287     3.853     1.375     1.285 -0.3776  0.9081 -0.1813
 
              Baa    -0.0674    -9.039    -3.225    -3.015  0.9462  0.3169  0.0660
    52 C(13)  Bbb    -0.0606    -8.133    -2.902    -2.713 -0.2961  0.9298 -0.2188
              Bcc     0.1280    17.171     6.127     5.728 -0.1307  0.1874  0.9735
 
              Baa    -0.0043    -2.271    -0.810    -0.758 -0.3221  0.6314  0.7055
    53 H(1)   Bbb    -0.0027    -1.436    -0.512    -0.479  0.3459 -0.6152  0.7085
              Bcc     0.0069     3.707     1.323     1.237  0.8813  0.4722 -0.0203
 
              Baa    -0.0042    -2.225    -0.794    -0.742 -0.0206 -0.1580  0.9872
    54 H(1)   Bbb    -0.0027    -1.424    -0.508    -0.475 -0.0637  0.9856  0.1564
              Bcc     0.0068     3.649     1.302     1.217  0.9978  0.0596  0.0304
 
              Baa    -0.0023    -1.207    -0.431    -0.403  0.0199  0.2238  0.9744
    55 H(1)   Bbb    -0.0004    -0.193    -0.069    -0.064  0.9943 -0.1066  0.0041
              Bcc     0.0026     1.400     0.499     0.467  0.1048  0.9688 -0.2247
 
              Baa    -0.0023    -1.235    -0.441    -0.412  0.0330  0.2639  0.9640
    56 H(1)   Bbb    -0.0005    -0.279    -0.100    -0.093  0.7869  0.5877 -0.1878
              Bcc     0.0028     1.514     0.540     0.505 -0.6161  0.7648 -0.1883
 
              Baa    -0.0085    -4.561    -1.627    -1.521  0.9529  0.3011  0.0363
    57 H(1)   Bbb    -0.0007    -0.399    -0.143    -0.133 -0.0993  0.1965  0.9755
              Bcc     0.0093     4.960     1.770     1.654 -0.2866  0.9331 -0.2171
 
              Baa    -0.0376    -5.041    -1.799    -1.682  0.8256 -0.5634 -0.0307
    58 C(13)  Bbb     0.0138     1.854     0.662     0.619 -0.0926 -0.1890  0.9776
              Bcc     0.0237     3.187     1.137     1.063  0.5566  0.8043  0.2082
 
              Baa    -0.0585    -7.846    -2.800    -2.617  0.3960  0.8792 -0.2651
    59 C(13)  Bbb    -0.0511    -6.852    -2.445    -2.286  0.0758  0.2564  0.9636
              Bcc     0.1095    14.698     5.244     4.903  0.9151 -0.4016  0.0349
 
              Baa    -0.0603    -8.091    -2.887    -2.699  0.2764  0.3209  0.9059
    60 C(13)  Bbb    -0.0528    -7.087    -2.529    -2.364  0.5169  0.7450 -0.4216
              Bcc     0.1131    15.178     5.416     5.063  0.8102 -0.5848 -0.0400
 
              Baa    -0.0502    -6.731    -2.402    -2.245  0.8728 -0.4095 -0.2654
    61 C(13)  Bbb     0.0226     3.036     1.083     1.013  0.0596 -0.4503  0.8909
              Bcc     0.0275     3.695     1.319     1.233  0.4844  0.7934  0.3687
 
              Baa    -0.0522    -6.999    -2.497    -2.335  0.9099 -0.3465 -0.2283
    62 C(13)  Bbb     0.0235     3.148     1.123     1.050 -0.0092 -0.5669  0.8237
              Bcc     0.0287     3.851     1.374     1.285  0.4148  0.7474  0.5190
 
              Baa    -0.0677    -9.089    -3.243    -3.032  0.0582 -0.5281  0.8472
    63 C(13)  Bbb    -0.0610    -8.181    -2.919    -2.729  0.4525  0.7704  0.4491
              Bcc     0.1287    17.270     6.162     5.761  0.8899 -0.3572 -0.2838
 
              Baa    -0.0043    -2.274    -0.811    -0.758 -0.5104  0.6793  0.5273
    64 H(1)   Bbb    -0.0027    -1.458    -0.520    -0.486  0.8579  0.3598  0.3668
              Bcc     0.0070     3.731     1.331     1.245 -0.0594 -0.6396  0.7664
 
              Baa    -0.0042    -2.255    -0.805    -0.752  0.9920 -0.0494 -0.1165
    65 H(1)   Bbb    -0.0027    -1.419    -0.506    -0.473  0.0811  0.9548  0.2860
              Bcc     0.0069     3.674     1.311     1.226  0.0971 -0.2931  0.9511
 
              Baa    -0.0023    -1.209    -0.431    -0.403  0.8927 -0.4267 -0.1450
    66 H(1)   Bbb    -0.0003    -0.173    -0.062    -0.058  0.1038 -0.1183  0.9875
              Bcc     0.0026     1.381     0.493     0.461  0.4386  0.8966  0.0613
 
              Baa    -0.0023    -1.239    -0.442    -0.413  0.8744 -0.4649 -0.1386
    67 H(1)   Bbb    -0.0005    -0.261    -0.093    -0.087  0.2669  0.6996 -0.6629
              Bcc     0.0028     1.500     0.535     0.500  0.4051  0.5426  0.7358
 
              Baa    -0.0086    -4.583    -1.635    -1.529  0.0333 -0.5084  0.8605
    68 H(1)   Bbb    -0.0008    -0.407    -0.145    -0.136  0.8922 -0.3728 -0.2548
              Bcc     0.0094     4.990     1.781     1.664  0.4504  0.7762  0.4411
 

 ---------------------------------------------------------------------------------

 No NMR shielding tensors so no spin-rotation constants.
 Leave Link  601 at Thu Jan 28 07:13:23 2021, MaxMem=  4026531840 cpu:              18.5 elap:               2.6
 (Enter /opt/ohpc/pub/libs/gaussian/g16-A.03/sandybridge/g16/l9999.exe)

 Test job not archived.
 1\1\GINC-CNODE210\SP\ULC-wHPBE\TZVP\C36H28N2S2(1+,2)\RDU230\28-Jan-202
 1\0\\#P LC-wHPBE/TZVP iop(3/107=0237400000, 3/108=0237400000) scf=(con
 ver=6,fermi,ndamp=35,noincfock,novaracc,vshift=500,xqc)\\H28 C36 S2 N2
 \\1,2\C,0,-2.604951,0.985352,-0.477595\C,0,-1.595468,1.227646,-1.39689
 7\S,0,-0.459746,2.557842,-1.073663\C,0,-1.509976,0.467226,-2.564163\C,
 0,1.043777,0.455726,-0.021717\C,0,1.03833,1.682104,-0.668307\C,0,-3.55
 7585,-0.001751,-0.697168\C,0,-2.447111,-0.539154,-2.764444\H,0,-0.5963
 18,-0.14267,-4.605045\C,0,2.238728,-0.147647,0.319798\C,0,2.246539,2.2
 97832,-0.961919\C,0,3.442101,1.694718,-0.621166\C,0,3.453096,0.46292,0
 .023837\H,0,2.234263,-1.106243,0.827797\H,0,2.253931,3.248348,-1.48634
 6\H,0,4.381679,2.178238,-0.866461\C,0,-3.461673,-0.764082,-1.856276\H,
 0,-2.646669,1.585519,0.424718\H,0,0.106936,-0.032641,0.224382\H,0,-2.4
 04245,-1.146243,-3.663282\H,0,-4.192893,-1.542008,-2.047877\S,0,-0.233
 558,0.817463,-3.737465\N,0,4.673686,-0.159547,0.368747\C,0,5.732508,0.
 612661,0.896564\C,0,7.045695,0.37796,0.499452\C,0,5.475865,1.622329,1.
 819567\C,0,8.078745,1.133154,1.024558\C,0,6.512871,2.384632,2.326214\C
 ,0,7.820306,2.143178,1.9369\H,0,7.251646,-0.403669,-0.22406\H,0,4.4548
 3,1.807304,2.136118\H,0,9.097402,0.93653,0.704866\H,0,6.295127,3.16901
 3,3.044416\H,0,8.632202,2.738403,2.341339\C,0,4.837054,-1.548147,0.168
 533\C,0,5.516065,-2.321618,1.105787\C,0,4.319017,-2.163542,-0.967486\C
 ,0,5.679987,-3.679833,0.902534\C,0,4.472338,-3.525567,-1.15401\C,0,5.1
 56657,-4.292005,-0.224805\H,0,5.917204,-1.848815,1.995947\H,0,3.79167,
 -1.566068,-1.703651\H,0,6.213214,-4.268058,1.642948\H,0,4.061647,-3.98
 973,-2.045325\H,0,5.281223,-5.35883,-0.377899\N,0,-4.591369,-0.225236,
 0.235572\C,0,-4.996809,-1.544618,0.539366\C,0,-6.345932,-1.849462,0.69
 3639\C,0,-4.053605,-2.557013,0.688173\C,0,-6.738551,-3.140118,0.998819
 \C,0,-4.45592,-3.848924,0.975713\C,0,-5.798707,-4.148587,1.137139\H,0,
 -7.085839,-1.064984,0.575406\H,0,-2.999778,-2.324624,0.576668\H,0,-7.7
 94748,-3.361033,1.117399\H,0,-3.707423,-4.627077,1.088273\H,0,-6.11071
 1,-5.161215,1.369943\C,0,-5.228462,0.872905,0.859345\C,0,-5.548183,0.8
 24769,2.212595\C,0,-5.541916,2.014931,0.129127\C,0,-6.178047,1.897088,
 2.818017\C,0,-6.155123,3.090236,0.746513\C,0,-6.481192,3.037227,2.0917
 54\H,0,-5.300925,-0.061617,2.787177\H,0,-5.299559,2.056134,-0.927579\H
 ,0,-6.421719,1.844307,3.874525\H,0,-6.390696,3.975287,0.163884\H,0,-6.
 967632,3.87989,2.571608\\Version=EM64L-G16RevA.03\State=2-A\HF=-2293.1
 909746\S2=0.778192\S2-1=0.\S2A=0.7507\RMSD=7.913e-07\Dipole=-6.6827056
 ,-0.9945791,-0.0412348\Quadrupole=51.8511636,-21.2752862,-30.5758774,5
 .4000881,-10.3383212,4.5019361\PG=C01 [X(C36H28N2S2)]\\@


 DESK:  A WASTEBASKET WITH DRAWERS.
 Job cpu time:       1 days  3 hours 39 minutes 19.5 seconds.
 Elapsed time:       0 days  3 hours 29 minutes 46.4 seconds.
 File lengths (MBytes):  RWF=    464 Int=      0 D2E=      0 Chk=     68 Scr=      8
 Normal termination of Gaussian 16 at Thu Jan 28 07:13:24 2021.
