 Entering Gaussian System, Link 0=g16
 Input=mol_ta_pa_whol_tune_n4.gjf
 Output=mol_ta_pa_whol_tune_n4.log
 Initial command:
 /opt/ohpc/pub/libs/gaussian/g16-A.03/sandybridge/g16/l1.exe "/mnt/gpfs2_4m/scratch/rdu230/ondemand/projects/init_structures/gaussian/wtuning/mol_ta_pa_whol/tuning_mol_ta_pa_whol_ocycle0/Gau-59256.inp" -scrdir="/mnt/gpfs2_4m/scratch/rdu230/ondemand/projects/init_structures/gaussian/wtuning/mol_ta_pa_whol/tuning_mol_ta_pa_whol_ocycle0/"
 Entering Link 1 = /opt/ohpc/pub/libs/gaussian/g16-A.03/sandybridge/g16/l1.exe PID=     59257.
  
 Copyright (c) 1988,1990,1992,1993,1995,1998,2003,2009,2016,
            Gaussian, Inc.  All Rights Reserved.
  
 This is part of the Gaussian(R) 16 program.  It is based on
 the Gaussian(R) 09 system (copyright 2009, Gaussian, Inc.),
 the Gaussian(R) 03 system (copyright 2003, Gaussian, Inc.),
 the Gaussian(R) 98 system (copyright 1998, Gaussian, Inc.),
 the Gaussian(R) 94 system (copyright 1995, Gaussian, Inc.),
 the Gaussian 92(TM) system (copyright 1992, Gaussian, Inc.),
 the Gaussian 90(TM) system (copyright 1990, Gaussian, Inc.),
 the Gaussian 88(TM) system (copyright 1988, Gaussian, Inc.),
 the Gaussian 86(TM) system (copyright 1986, Carnegie Mellon
 University), and the Gaussian 82(TM) system (copyright 1983,
 Carnegie Mellon University). Gaussian is a federally registered
 trademark of Gaussian, Inc.
  
 This software contains proprietary and confidential information,
 including trade secrets, belonging to Gaussian, Inc.
  
 This software is provided under written license and may be
 used, copied, transmitted, or stored only in accord with that
 written license.
  
 The following legend is applicable only to US Government
 contracts under FAR:
  
                    RESTRICTED RIGHTS LEGEND
  
 Use, reproduction and disclosure by the US Government is
 subject to restrictions as set forth in subparagraphs (a)
 and (c) of the Commercial Computer Software - Restricted
 Rights clause in FAR 52.227-19.
  
 Gaussian, Inc.
 340 Quinnipiac St., Bldg. 40, Wallingford CT 06492
  
  
 ---------------------------------------------------------------
 Warning -- This program may not be used in any manner that
 competes with the business of Gaussian, Inc. or will provide
 assistance to any competitor of Gaussian, Inc.  The licensee
 of this program is prohibited from giving any competitor of
 Gaussian, Inc. access to this program.  By using this program,
 the user acknowledges that Gaussian, Inc. is engaged in the
 business of creating and licensing software in the field of
 computational chemistry and represents and warrants to the
 licensee that it is not a competitor of Gaussian, Inc. and that
 it will not use this program in any manner prohibited above.
 ---------------------------------------------------------------
  

 Cite this work as:
 Gaussian 16, Revision A.03,
 M. J. Frisch, G. W. Trucks, H. B. Schlegel, G. E. Scuseria, 
 M. A. Robb, J. R. Cheeseman, G. Scalmani, V. Barone, 
 G. A. Petersson, H. Nakatsuji, X. Li, M. Caricato, A. V. Marenich, 
 J. Bloino, B. G. Janesko, R. Gomperts, B. Mennucci, H. P. Hratchian, 
 J. V. Ortiz, A. F. Izmaylov, J. L. Sonnenberg, D. Williams-Young, 
 F. Ding, F. Lipparini, F. Egidi, J. Goings, B. Peng, A. Petrone, 
 T. Henderson, D. Ranasinghe, V. G. Zakrzewski, J. Gao, N. Rega, 
 G. Zheng, W. Liang, M. Hada, M. Ehara, K. Toyota, R. Fukuda, 
 J. Hasegawa, M. Ishida, T. Nakajima, Y. Honda, O. Kitao, H. Nakai, 
 T. Vreven, K. Throssell, J. A. Montgomery, Jr., J. E. Peralta, 
 F. Ogliaro, M. J. Bearpark, J. J. Heyd, E. N. Brothers, K. N. Kudin, 
 V. N. Staroverov, T. A. Keith, R. Kobayashi, J. Normand, 
 K. Raghavachari, A. P. Rendell, J. C. Burant, S. S. Iyengar, 
 J. Tomasi, M. Cossi, J. M. Millam, M. Klene, C. Adamo, R. Cammi, 
 J. W. Ochterski, R. L. Martin, K. Morokuma, O. Farkas, 
 J. B. Foresman, and D. J. Fox, Gaussian, Inc., Wallingford CT, 2016.
 
 ******************************************
 Gaussian 16:  EM64L-G16RevA.03 25-Dec-2016
                27-Jan-2021 
 ******************************************
 %mem=30GB
 %nproc=8
 Will use up to    8 processors via shared memory.
 ----------------------------------------------------------------------
 #P LC-wHPBE/TZVP iop(3/107=0262500000, 3/108=0262500000) scf=(conver=6
 ,fermi,ndamp=35,noincfock,novaracc,vshift=500,xqc)
 ----------------------------------------------------------------------
 1/38=1,172=1/1;
 2/12=2,17=6,18=5,40=1/2;
 3/5=19,7=101,11=2,25=1,30=1,74=-71,107=262500000,108=262500000/1,2,3;
 4//1;
 5/5=100002,6=6,8=3,10=500,13=1,18=-1,22=13,38=1,93=35/2,8;
 6/7=2,8=2,9=2,10=2,28=1/1;
 99/5=1,9=1/99;
 Leave Link    1 at Wed Jan 27 23:27:04 2021, MaxMem=  4026531840 cpu:               1.6 elap:               0.2
 (Enter /opt/ohpc/pub/libs/gaussian/g16-A.03/sandybridge/g16/l101.exe)
 -------------
 H28 C36 S2 N2
 -------------
 Symbolic Z-matrix:
 Charge =  0 Multiplicity = 1
 C                    -2.60495   0.98535  -0.4776 
 C                    -1.59547   1.22765  -1.3969 
 S                    -0.45975   2.55784  -1.07366 
 C                    -1.50998   0.46723  -2.56416 
 C                     1.04378   0.45573  -0.02172 
 C                     1.03833   1.6821   -0.66831 
 C                    -3.55759  -0.00175  -0.69717 
 C                    -2.44711  -0.53915  -2.76444 
 H                    -0.59632  -0.14267  -4.60505 
 C                     2.23873  -0.14765   0.3198 
 C                     2.24654   2.29783  -0.96192 
 C                     3.4421    1.69472  -0.62117 
 C                     3.4531    0.46292   0.02384 
 H                     2.23426  -1.10624   0.8278 
 H                     2.25393   3.24835  -1.48635 
 H                     4.38168   2.17824  -0.86646 
 C                    -3.46167  -0.76408  -1.85628 
 H                    -2.64667   1.58552   0.42472 
 H                     0.10694  -0.03264   0.22438 
 H                    -2.40424  -1.14624  -3.66328 
 H                    -4.19289  -1.54201  -2.04788 
 S                    -0.23356   0.81746  -3.73747 
 N                     4.67369  -0.15955   0.36875 
 C                     5.73251   0.61266   0.89656 
 C                     7.0457    0.37796   0.49945 
 C                     5.47587   1.62233   1.81957 
 C                     8.07874   1.13315   1.02456 
 C                     6.51287   2.38463   2.32621 
 C                     7.82031   2.14318   1.9369 
 H                     7.25165  -0.40367  -0.22406 
 H                     4.45483   1.8073    2.13612 
 H                     9.0974    0.93653   0.70487 
 H                     6.29513   3.16901   3.04442 
 H                     8.6322    2.7384    2.34134 
 C                     4.83705  -1.54815   0.16853 
 C                     5.51607  -2.32162   1.10579 
 C                     4.31902  -2.16354  -0.96749 
 C                     5.67999  -3.67983   0.90253 
 C                     4.47234  -3.52557  -1.15401 
 C                     5.15666  -4.29201  -0.22481 
 H                     5.9172   -1.84882   1.99595 
 H                     3.79167  -1.56607  -1.70365 
 H                     6.21321  -4.26806   1.64295 
 H                     4.06165  -3.98973  -2.04533 
 H                     5.28122  -5.35883  -0.3779 
 N                    -4.59137  -0.22524   0.23557 
 C                    -4.99681  -1.54462   0.53937 
 C                    -6.34593  -1.84946   0.69364 
 C                    -4.05361  -2.55701   0.68817 
 C                    -6.73855  -3.14012   0.99882 
 C                    -4.45592  -3.84892   0.97571 
 C                    -5.79871  -4.14859   1.13714 
 H                    -7.08584  -1.06498   0.57541 
 H                    -2.99978  -2.32462   0.57667 
 H                    -7.79475  -3.36103   1.1174 
 H                    -3.70742  -4.62708   1.08827 
 H                    -6.11071  -5.16122   1.36994 
 C                    -5.22846   0.87291   0.85935 
 C                    -5.54818   0.82477   2.2126 
 C                    -5.54192   2.01493   0.12913 
 C                    -6.17805   1.89709   2.81802 
 C                    -6.15512   3.09024   0.74651 
 C                    -6.48119   3.03723   2.09175 
 H                    -5.30093  -0.06162   2.78718 
 H                    -5.29956   2.05613  -0.92758 
 H                    -6.42172   1.84431   3.87453 
 H                    -6.3907    3.97529   0.16388 
 H                    -6.96763   3.87989   2.57161 
 
 ITRead=  0  0  0  0  0  0  0  0  0  0  0  0  0  0  0  0  0  0  0  0
 ITRead=  0  0  0  0  0  0  0  0  0  0  0  0  0  0  0  0  0  0  0  0
 ITRead=  0  0  0  0  0  0  0  0  0  0  0  0  0  0  0  0  0  0  0  0
 ITRead=  0  0  0  0  0  0  0  0
 MicOpt= -1 -1 -1 -1 -1 -1 -1 -1 -1 -1 -1 -1 -1 -1 -1 -1 -1 -1 -1 -1
 MicOpt= -1 -1 -1 -1 -1 -1 -1 -1 -1 -1 -1 -1 -1 -1 -1 -1 -1 -1 -1 -1
 MicOpt= -1 -1 -1 -1 -1 -1 -1 -1 -1 -1 -1 -1 -1 -1 -1 -1 -1 -1 -1 -1
 MicOpt= -1 -1 -1 -1 -1 -1 -1 -1
 NAtoms=     68 NQM=       68 NQMF=       0 NMMI=      0 NMMIF=      0
                NMic=       0 NMicF=      0.
                    Isotopes and Nuclear Properties:
 (Nuclear quadrupole moments (NQMom) in fm**2, nuclear magnetic moments (NMagM)
  in nuclear magnetons)

  Atom         1           2           3           4           5           6           7           8           9          10
 IAtWgt=          12          12          32          12          12          12          12          12           1          12
 AtmWgt=  12.0000000  12.0000000  31.9720718  12.0000000  12.0000000  12.0000000  12.0000000  12.0000000   1.0078250  12.0000000
 NucSpn=           0           0           0           0           0           0           0           0           1           0
 AtZEff=  -0.0000000  -0.0000000  -0.0000000  -0.0000000  -0.0000000  -0.0000000  -0.0000000  -0.0000000  -0.0000000  -0.0000000
 NQMom=    0.0000000   0.0000000   0.0000000   0.0000000   0.0000000   0.0000000   0.0000000   0.0000000   0.0000000   0.0000000
 NMagM=    0.0000000   0.0000000   0.0000000   0.0000000   0.0000000   0.0000000   0.0000000   0.0000000   2.7928460   0.0000000
 AtZNuc=   6.0000000   6.0000000  16.0000000   6.0000000   6.0000000   6.0000000   6.0000000   6.0000000   1.0000000   6.0000000

  Atom        11          12          13          14          15          16          17          18          19          20
 IAtWgt=          12          12          12           1           1           1          12           1           1           1
 AtmWgt=  12.0000000  12.0000000  12.0000000   1.0078250   1.0078250   1.0078250  12.0000000   1.0078250   1.0078250   1.0078250
 NucSpn=           0           0           0           1           1           1           0           1           1           1
 AtZEff=  -0.0000000  -0.0000000  -0.0000000  -0.0000000  -0.0000000  -0.0000000  -0.0000000  -0.0000000  -0.0000000  -0.0000000
 NQMom=    0.0000000   0.0000000   0.0000000   0.0000000   0.0000000   0.0000000   0.0000000   0.0000000   0.0000000   0.0000000
 NMagM=    0.0000000   0.0000000   0.0000000   2.7928460   2.7928460   2.7928460   0.0000000   2.7928460   2.7928460   2.7928460
 AtZNuc=   6.0000000   6.0000000   6.0000000   1.0000000   1.0000000   1.0000000   6.0000000   1.0000000   1.0000000   1.0000000

  Atom        21          22          23          24          25          26          27          28          29          30
 IAtWgt=           1          32          14          12          12          12          12          12          12           1
 AtmWgt=   1.0078250  31.9720718  14.0030740  12.0000000  12.0000000  12.0000000  12.0000000  12.0000000  12.0000000   1.0078250
 NucSpn=           1           0           2           0           0           0           0           0           0           1
 AtZEff=  -0.0000000  -0.0000000  -0.0000000  -0.0000000  -0.0000000  -0.0000000  -0.0000000  -0.0000000  -0.0000000  -0.0000000
 NQMom=    0.0000000   0.0000000   2.0440000   0.0000000   0.0000000   0.0000000   0.0000000   0.0000000   0.0000000   0.0000000
 NMagM=    2.7928460   0.0000000   0.4037610   0.0000000   0.0000000   0.0000000   0.0000000   0.0000000   0.0000000   2.7928460
 AtZNuc=   1.0000000  16.0000000   7.0000000   6.0000000   6.0000000   6.0000000   6.0000000   6.0000000   6.0000000   1.0000000

  Atom        31          32          33          34          35          36          37          38          39          40
 IAtWgt=           1           1           1           1          12          12          12          12          12          12
 AtmWgt=   1.0078250   1.0078250   1.0078250   1.0078250  12.0000000  12.0000000  12.0000000  12.0000000  12.0000000  12.0000000
 NucSpn=           1           1           1           1           0           0           0           0           0           0
 AtZEff=  -0.0000000  -0.0000000  -0.0000000  -0.0000000  -0.0000000  -0.0000000  -0.0000000  -0.0000000  -0.0000000  -0.0000000
 NQMom=    0.0000000   0.0000000   0.0000000   0.0000000   0.0000000   0.0000000   0.0000000   0.0000000   0.0000000   0.0000000
 NMagM=    2.7928460   2.7928460   2.7928460   2.7928460   0.0000000   0.0000000   0.0000000   0.0000000   0.0000000   0.0000000
 AtZNuc=   1.0000000   1.0000000   1.0000000   1.0000000   6.0000000   6.0000000   6.0000000   6.0000000   6.0000000   6.0000000

  Atom        41          42          43          44          45          46          47          48          49          50
 IAtWgt=           1           1           1           1           1          14          12          12          12          12
 AtmWgt=   1.0078250   1.0078250   1.0078250   1.0078250   1.0078250  14.0030740  12.0000000  12.0000000  12.0000000  12.0000000
 NucSpn=           1           1           1           1           1           2           0           0           0           0
 AtZEff=  -0.0000000  -0.0000000  -0.0000000  -0.0000000  -0.0000000  -0.0000000  -0.0000000  -0.0000000  -0.0000000  -0.0000000
 NQMom=    0.0000000   0.0000000   0.0000000   0.0000000   0.0000000   2.0440000   0.0000000   0.0000000   0.0000000   0.0000000
 NMagM=    2.7928460   2.7928460   2.7928460   2.7928460   2.7928460   0.4037610   0.0000000   0.0000000   0.0000000   0.0000000
 AtZNuc=   1.0000000   1.0000000   1.0000000   1.0000000   1.0000000   7.0000000   6.0000000   6.0000000   6.0000000   6.0000000

  Atom        51          52          53          54          55          56          57          58          59          60
 IAtWgt=          12          12           1           1           1           1           1          12          12          12
 AtmWgt=  12.0000000  12.0000000   1.0078250   1.0078250   1.0078250   1.0078250   1.0078250  12.0000000  12.0000000  12.0000000
 NucSpn=           0           0           1           1           1           1           1           0           0           0
 AtZEff=  -0.0000000  -0.0000000  -0.0000000  -0.0000000  -0.0000000  -0.0000000  -0.0000000  -0.0000000  -0.0000000  -0.0000000
 NQMom=    0.0000000   0.0000000   0.0000000   0.0000000   0.0000000   0.0000000   0.0000000   0.0000000   0.0000000   0.0000000
 NMagM=    0.0000000   0.0000000   2.7928460   2.7928460   2.7928460   2.7928460   2.7928460   0.0000000   0.0000000   0.0000000
 AtZNuc=   6.0000000   6.0000000   1.0000000   1.0000000   1.0000000   1.0000000   1.0000000   6.0000000   6.0000000   6.0000000

  Atom        61          62          63          64          65          66          67          68
 IAtWgt=          12          12          12           1           1           1           1           1
 AtmWgt=  12.0000000  12.0000000  12.0000000   1.0078250   1.0078250   1.0078250   1.0078250   1.0078250
 NucSpn=           0           0           0           1           1           1           1           1
 AtZEff=  -0.0000000  -0.0000000  -0.0000000  -0.0000000  -0.0000000  -0.0000000  -0.0000000  -0.0000000
 NQMom=    0.0000000   0.0000000   0.0000000   0.0000000   0.0000000   0.0000000   0.0000000   0.0000000
 NMagM=    0.0000000   0.0000000   0.0000000   2.7928460   2.7928460   2.7928460   2.7928460   2.7928460
 AtZNuc=   6.0000000   6.0000000   6.0000000   1.0000000   1.0000000   1.0000000   1.0000000   1.0000000
 Leave Link  101 at Wed Jan 27 23:27:04 2021, MaxMem=  4026531840 cpu:               0.8 elap:               0.1
 (Enter /opt/ohpc/pub/libs/gaussian/g16-A.03/sandybridge/g16/l202.exe)
 Stoichiometry    C36H28N2S2
 Framework group  C1[X(C36H28N2S2)]
 Deg. of freedom   198
 Full point group                 C1      NOp   1
 Largest Abelian subgroup         C1      NOp   1
 Largest concise Abelian subgroup C1      NOp   1
                         Standard orientation:                         
 ---------------------------------------------------------------------
 Center     Atomic      Atomic             Coordinates (Angstroms)
 Number     Number       Type             X           Y           Z
 ---------------------------------------------------------------------
      1          6           0       -2.604951   -0.985352    0.477595
      2          6           0       -1.595468   -1.227646    1.396897
      3         16           0       -0.459746   -2.557842    1.073663
      4          6           0       -1.509976   -0.467226    2.564163
      5          6           0        1.043777   -0.455726    0.021717
      6          6           0        1.038330   -1.682104    0.668307
      7          6           0       -3.557585    0.001751    0.697168
      8          6           0       -2.447111    0.539154    2.764444
      9          1           0       -0.596318    0.142670    4.605045
     10          6           0        2.238728    0.147647   -0.319798
     11          6           0        2.246539   -2.297832    0.961919
     12          6           0        3.442101   -1.694718    0.621166
     13          6           0        3.453096   -0.462920   -0.023837
     14          1           0        2.234263    1.106243   -0.827797
     15          1           0        2.253931   -3.248348    1.486346
     16          1           0        4.381679   -2.178238    0.866461
     17          6           0       -3.461673    0.764082    1.856276
     18          1           0       -2.646669   -1.585519   -0.424718
     19          1           0        0.106936    0.032641   -0.224382
     20          1           0       -2.404245    1.146243    3.663282
     21          1           0       -4.192893    1.542008    2.047877
     22         16           0       -0.233558   -0.817463    3.737465
     23          7           0        4.673686    0.159547   -0.368747
     24          6           0        5.732508   -0.612661   -0.896564
     25          6           0        7.045695   -0.377960   -0.499452
     26          6           0        5.475865   -1.622329   -1.819567
     27          6           0        8.078745   -1.133154   -1.024558
     28          6           0        6.512871   -2.384632   -2.326214
     29          6           0        7.820306   -2.143178   -1.936900
     30          1           0        7.251646    0.403669    0.224060
     31          1           0        4.454830   -1.807304   -2.136118
     32          1           0        9.097402   -0.936530   -0.704866
     33          1           0        6.295127   -3.169013   -3.044416
     34          1           0        8.632202   -2.738403   -2.341339
     35          6           0        4.837054    1.548147   -0.168533
     36          6           0        5.516065    2.321618   -1.105787
     37          6           0        4.319017    2.163542    0.967486
     38          6           0        5.679987    3.679833   -0.902534
     39          6           0        4.472338    3.525567    1.154010
     40          6           0        5.156657    4.292005    0.224805
     41          1           0        5.917204    1.848815   -1.995947
     42          1           0        3.791670    1.566068    1.703651
     43          1           0        6.213214    4.268058   -1.642948
     44          1           0        4.061647    3.989730    2.045325
     45          1           0        5.281223    5.358830    0.377899
     46          7           0       -4.591369    0.225236   -0.235572
     47          6           0       -4.996809    1.544618   -0.539366
     48          6           0       -6.345932    1.849462   -0.693639
     49          6           0       -4.053605    2.557013   -0.688173
     50          6           0       -6.738551    3.140118   -0.998819
     51          6           0       -4.455920    3.848924   -0.975713
     52          6           0       -5.798707    4.148587   -1.137139
     53          1           0       -7.085839    1.064984   -0.575406
     54          1           0       -2.999778    2.324624   -0.576668
     55          1           0       -7.794748    3.361033   -1.117399
     56          1           0       -3.707423    4.627077   -1.088273
     57          1           0       -6.110711    5.161215   -1.369943
     58          6           0       -5.228462   -0.872905   -0.859345
     59          6           0       -5.548183   -0.824769   -2.212595
     60          6           0       -5.541916   -2.014931   -0.129127
     61          6           0       -6.178047   -1.897088   -2.818017
     62          6           0       -6.155123   -3.090236   -0.746513
     63          6           0       -6.481192   -3.037227   -2.091754
     64          1           0       -5.300925    0.061617   -2.787177
     65          1           0       -5.299559   -2.056134    0.927579
     66          1           0       -6.421719   -1.844307   -3.874525
     67          1           0       -6.390696   -3.975287   -0.163884
     68          1           0       -6.967632   -3.879890   -2.571608
 ---------------------------------------------------------------------
 Rotational constants (GHZ):           0.1314912           0.0372042           0.0344004
 Leave Link  202 at Wed Jan 27 23:27:04 2021, MaxMem=  4026531840 cpu:               0.3 elap:               0.0
 (Enter /opt/ohpc/pub/libs/gaussian/g16-A.03/sandybridge/g16/l301.exe)
 Standard basis: TZVP (5D, 7F)
 Ernie: Thresh=  0.10000D-02 Tol=  0.10000D-05 Strict=F.
 There are   974 symmetry adapted cartesian basis functions of A   symmetry.
 There are   934 symmetry adapted basis functions of A   symmetry.
   934 basis functions,  1648 primitive gaussians,   974 cartesian basis functions
   145 alpha electrons      145 beta electrons
       nuclear repulsion energy      4395.1421619507 Hartrees.
 IExCor=33909 DFT=T Ex+Corr=LC-wHPBE ExCW=0 ScaHFX=  1.000000
 ScaDFX=  1.000000  1.000000  1.000000  1.000000 ScalE2=  1.000000  1.000000
 IRadAn=      5 IRanWt=     -1 IRanGd=            0 ICorTp=0 IEmpDi=  4
 HFx  wShort=  0.000000 wLong=  0.262500 cFull=  0.000000 cShort=  0.000000 cLong=  1.000000
 DFx  wShort=  0.000000 wLong=  0.262500 cFull=  0.000000 cShort=  1.000000 cLong=  0.000000
 NAtoms=   68 NActive=   68 NUniq=   68 SFac= 1.00D+00 NAtFMM=   60 NAOKFM=T Big=T
 Integral buffers will be    131072 words long.
 Raffenetti 2 integral format.
 Two-electron integral symmetry is turned on.
 Leave Link  301 at Wed Jan 27 23:27:04 2021, MaxMem=  4026531840 cpu:               0.4 elap:               0.1
 (Enter /opt/ohpc/pub/libs/gaussian/g16-A.03/sandybridge/g16/l302.exe)
 NPDir=0 NMtPBC=     1 NCelOv=     1 NCel=       1 NClECP=     1 NCelD=      1
         NCelK=      1 NCelE2=     1 NClLst=     1 CellRange=     0.0.
 One-electron integrals computed using PRISM.
 One-electron integral symmetry used in STVInt
 NBasis=   934 RedAO= T EigKep=  5.84D-06  NBF=   934
 NBsUse=   934 1.00D-06 EigRej= -1.00D+00 NBFU=   934
 Precomputing XC quadrature grid using
 IXCGrd= 4 IRadAn=           5 IRanWt=          -1 IRanGd=           0 AccXCQ= 0.00D+00.
 Generated NRdTot=       0 NPtTot=           0 NUsed=           0 NTot=          32
 NSgBfM=   919   919   919   919   919 MxSgAt=    68 MxSgA2=    68.
 Leave Link  302 at Wed Jan 27 23:27:07 2021, MaxMem=  4026531840 cpu:              25.5 elap:               3.2
 (Enter /opt/ohpc/pub/libs/gaussian/g16-A.03/sandybridge/g16/l303.exe)
 DipDrv:  MaxL=1.
 Leave Link  303 at Wed Jan 27 23:27:07 2021, MaxMem=  4026531840 cpu:               1.8 elap:               0.3
 (Enter /opt/ohpc/pub/libs/gaussian/g16-A.03/sandybridge/g16/l401.exe)
 ExpMin= 9.52D-02 ExpMax= 6.07D+04 ExpMxC= 2.07D+03 IAcc=3 IRadAn=         5 AccDes= 0.00D+00
 Harris functional with IExCor=33909 and IRadAn=       5 diagonalized for initial guess.
 HarFok:  IExCor=33909 AccDes= 0.00D+00 IRadAn=         5 IDoV= 1 UseB2=F ITyADJ=14
 ICtDFT=  3500011 ScaDFX=  1.000000  1.000000  1.000000  1.000000
 FoFCou: FMM=F IPFlag=           0 FMFlag=      100000 FMFlg1=        2001
         NFxFlg=           0 DoJE=T BraDBF=F KetDBF=T FulRan=T
         wScrn=  0.000000 ICntrl=       500 IOpCl=  0 I1Cent=   200000004 NGrid=           0
         NMat0=    1 NMatS0=      1 NMatT0=    0 NMatD0=    1 NMtDS0=    0 NMtDT0=    0
 Petite list used in FoFCou.
 Harris En= -2253.69309892196    
 JPrj=0 DoOrth=F DoCkMO=F.
 Leave Link  401 at Wed Jan 27 23:27:23 2021, MaxMem=  4026531840 cpu:             121.7 elap:              15.5
 (Enter /opt/ohpc/pub/libs/gaussian/g16-A.03/sandybridge/g16/l502.exe)
 Integral symmetry usage will be decided dynamically.
 Closed shell SCF:
 Using DIIS extrapolation, IDIIS=    10.
 NGot=  4026531840 LenX=  4024617300 LenY=  4023667650
 Requested convergence on RMS density matrix=1.00D-06 within  32 cycles.
 Requested convergence on MAX density matrix=1.00D-04.
 Requested convergence on             energy=1.00D-04.
 Virtual orbitals will be shifted by   0.500 hartree.
 No special actions if energy rises.
 Dynamic level shift is on during FON iterations.

 Cycle   1  Pass 1  IDiag  1:
 FoFJK:  IHMeth= 1 ICntrl=       0 DoSepK=T KAlg= 0 I1Cent=           0 FoldK=F
 IRaf=         1 NMat=       1 IRICut=       1 DoRegI=T DoRafI=F ISym2E= 0 IDoP0=0 IntGTp=1.
 FoFCou: FMM=T IPFlag=           0 FMFlag=      100000 FMFlg1=        2001
         NFxFlg=           0 DoJE=T BraDBF=F KetDBF=F FulRan=T
         wScrn=  0.000000 ICntrl=       500 IOpCl=  0 I1Cent=           0 NGrid=           0
         NMat0=    1 NMatS0=      1 NMatT0=    0 NMatD0=    1 NMtDS0=    0 NMtDT0=    0
 Symmetry not used in FoFCou.
 FMM levels:  10  Number of levels for PrismC:   9
 E= -2292.82739546576    
 DIIS: error= 2.91D-02 at cycle   1 NSaved=   1.
 NSaved= 1 IEnMin= 1 EnMin= -2292.82739546576     IErMin= 1 ErrMin= 2.91D-02
 ErrMax= 2.91D-02  0.00D+00 EMaxC= 1.00D+00 BMatC= 6.73D-01 BMatP= 6.73D-01
 IDIUse=1 WtCom= 1.00D+00 WtEn= 0.00D+00
 Coeff-Com:  0.100D+01
 Coeff:      0.100D+01
 Gap=     0.422 Goal=   None    Shift=    0.500
 T= 1478. Gap= 0.731 NK=0 IS=  146 IE=  934 IFin=  145
          NO(<0.9)=   0  NV(>0.1)=   0    145.00e < EF      0.00e >EF  Err=0.0D+00
 GapD=    0.422 DampG=2.000 DampE=0.500 DampFc=1.0000 IDamp=-1.
 RMSDP=2.49D-03 MaxDP=2.46D-01              OVMax= 7.97D-02

 Cycle   2  Pass 1  IDiag  1:
 E= -2293.42684496841     Delta-E=       -0.599449502641 Rises=F Damp=F
 DIIS: error= 6.93D-03 at cycle   2 NSaved=   2.
 NSaved= 2 IEnMin= 2 EnMin= -2293.42684496841     IErMin= 2 ErrMin= 6.93D-03
 ErrMax= 6.93D-03  0.00D+00 EMaxC= 1.00D+00 BMatC= 7.29D-02 BMatP= 6.73D-01
 IDIUse=1 WtCom= 1.00D+00 WtEn= 0.00D+00
 Coeff-Com:  0.209D+00 0.791D+00
 Coeff:      0.209D+00 0.791D+00
 Gap=     0.320 Goal=   None    Shift=    0.500
 T= 1302. Gap= 0.763 NK=0 IS=  146 IE=  934 IFin=  145
          NO(<0.9)=   0  NV(>0.1)=   0    145.00e < EF      0.00e >EF  Err=0.0D+00
 GapD=    0.320 DampG=1.000 DampE=1.000 DampFc=1.0000 IDamp=-1.
 RMSDP=8.88D-04 MaxDP=1.03D-01 DE=-5.99D-01 OVMax= 1.96D-02

 Cycle   3  Pass 1  IDiag  1:
 E= -2293.47810725763     Delta-E=       -0.051262289221 Rises=F Damp=F
 DIIS: error= 2.23D-03 at cycle   3 NSaved=   3.
 NSaved= 3 IEnMin= 3 EnMin= -2293.47810725763     IErMin= 3 ErrMin= 2.23D-03
 ErrMax= 2.23D-03  0.00D+00 EMaxC= 1.00D+00 BMatC= 5.11D-03 BMatP= 7.29D-02
 IDIUse=1 WtCom= 1.00D+00 WtEn= 0.00D+00
 Coeff-Com:  0.596D-01 0.610D-02 0.934D+00
 Coeff:      0.596D-01 0.610D-02 0.934D+00
 Gap=     0.285 Goal=   None    Shift=    0.500
 T=  983. Gap= 0.782 NK=0 IS=  146 IE=  934 IFin=  145
          NO(<0.9)=   0  NV(>0.1)=   0    145.00e < EF      0.00e >EF  Err=0.0D+00
 GapD=    0.285 DampG=1.000 DampE=1.000 DampFc=1.0000 IDamp=-1.
 RMSDP=3.46D-04 MaxDP=4.92D-02 DE=-5.13D-02 OVMax= 1.32D-02

 Cycle   4  Pass 1  IDiag  1:
 E= -2293.48382008020     Delta-E=       -0.005712822577 Rises=F Damp=F
 DIIS: error= 1.23D-03 at cycle   4 NSaved=   4.
 NSaved= 4 IEnMin= 4 EnMin= -2293.48382008020     IErMin= 4 ErrMin= 1.23D-03
 ErrMax= 1.23D-03  0.00D+00 EMaxC= 1.00D+00 BMatC= 9.05D-04 BMatP= 5.11D-03
 IDIUse=1 WtCom= 1.00D+00 WtEn= 0.00D+00
 Coeff-Com:  0.808D-02-0.677D-01 0.378D-01 0.102D+01
 Coeff:      0.808D-02-0.677D-01 0.378D-01 0.102D+01
 Gap=     0.282 Goal=   None    Shift=    0.500
 T=  201. Gap= 0.782 NK=0 IS=  146 IE=  934 IFin=  145
          NO(<0.9)=   0  NV(>0.1)=   0    145.00e < EF      0.00e >EF  Err=0.0D+00
 GapD=    0.282 DampG=1.000 DampE=1.000 DampFc=1.0000 IDamp=-1.
 RMSDP=1.67D-04 MaxDP=2.04D-02 DE=-5.71D-03 OVMax= 8.24D-03

 Cycle   5  Pass 1  IDiag  1:
 E= -2293.48542047186     Delta-E=       -0.001600391660 Rises=F Damp=F
 DIIS: error= 9.91D-04 at cycle   5 NSaved=   5.
 NSaved= 5 IEnMin= 5 EnMin= -2293.48542047186     IErMin= 5 ErrMin= 9.91D-04
 ErrMax= 9.91D-04  0.00D+00 EMaxC= 1.00D+00 BMatC= 1.97D-04 BMatP= 9.05D-04
 IDIUse=1 WtCom= 1.00D+00 WtEn= 0.00D+00
 Coeff-Com: -0.720D-02-0.788D-02-0.116D+00-0.285D+00 0.142D+01
 Coeff:     -0.720D-02-0.788D-02-0.116D+00-0.285D+00 0.142D+01
 Gap=     0.283 Goal=   None    Shift=    0.500
 RMSDP=1.07D-04 MaxDP=1.15D-02 DE=-1.60D-03 OVMax= 7.10D-03

 Cycle   6  Pass 1  IDiag  1:
 E= -2293.48609310305     Delta-E=       -0.000672631183 Rises=F Damp=F
 DIIS: error= 7.20D-04 at cycle   6 NSaved=   6.
 NSaved= 6 IEnMin= 6 EnMin= -2293.48609310305     IErMin= 6 ErrMin= 7.20D-04
 ErrMax= 7.20D-04  0.00D+00 EMaxC= 1.00D+00 BMatC= 7.32D-05 BMatP= 1.97D-04
 IDIUse=1 WtCom= 1.00D+00 WtEn= 0.00D+00
 Coeff-Com: -0.542D-02 0.145D-01-0.347D-01-0.292D+00-0.241D+00 0.156D+01
 Coeff:     -0.542D-02 0.145D-01-0.347D-01-0.292D+00-0.241D+00 0.156D+01
 Gap=     0.284 Goal=   None    Shift=    0.500
 RMSDP=6.60D-05 MaxDP=5.32D-03 DE=-6.73D-04 OVMax= 5.75D-03

 Cycle   7  Pass 1  IDiag  1:
 E= -2293.48642050495     Delta-E=       -0.000327401903 Rises=F Damp=F
 DIIS: error= 4.92D-04 at cycle   7 NSaved=   7.
 NSaved= 7 IEnMin= 7 EnMin= -2293.48642050495     IErMin= 7 ErrMin= 4.92D-04
 ErrMax= 4.92D-04  0.00D+00 EMaxC= 1.00D+00 BMatC= 3.04D-05 BMatP= 7.32D-05
 IDIUse=1 WtCom= 1.00D+00 WtEn= 0.00D+00
 Coeff-Com: -0.619D-03 0.621D-02 0.244D-01 0.368D-01-0.651D+00-0.172D+00
 Coeff-Com:  0.176D+01
 Coeff:     -0.619D-03 0.621D-02 0.244D-01 0.368D-01-0.651D+00-0.172D+00
 Coeff:      0.176D+01
 Gap=     0.284 Goal=   None    Shift=    0.500
 RMSDP=4.46D-05 MaxDP=4.15D-03 DE=-3.27D-04 OVMax= 4.39D-03

 Cycle   8  Pass 1  IDiag  1:
 E= -2293.48657834269     Delta-E=       -0.000157837741 Rises=F Damp=F
 DIIS: error= 3.37D-04 at cycle   8 NSaved=   8.
 NSaved= 8 IEnMin= 8 EnMin= -2293.48657834269     IErMin= 8 ErrMin= 3.37D-04
 ErrMax= 3.37D-04  0.00D+00 EMaxC= 1.00D+00 BMatC= 1.25D-05 BMatP= 3.04D-05
 IDIUse=1 WtCom= 1.00D+00 WtEn= 0.00D+00
 Coeff-Com:  0.761D-03-0.147D-02 0.467D-03 0.128D+00-0.566D-01-0.670D+00
 Coeff-Com: -0.368D+00 0.197D+01
 Coeff:      0.761D-03-0.147D-02 0.467D-03 0.128D+00-0.566D-01-0.670D+00
 Coeff:     -0.368D+00 0.197D+01
 Gap=     0.284 Goal=   None    Shift=    0.500
 RMSDP=2.95D-05 MaxDP=3.10D-03 DE=-1.58D-04 OVMax= 3.19D-03

 Cycle   9  Pass 1  IDiag  1:
 E= -2293.48664673468     Delta-E=       -0.000068391987 Rises=F Damp=F
 DIIS: error= 2.24D-04 at cycle   9 NSaved=   9.
 NSaved= 9 IEnMin= 9 EnMin= -2293.48664673468     IErMin= 9 ErrMin= 2.24D-04
 ErrMax= 2.24D-04  0.00D+00 EMaxC= 1.00D+00 BMatC= 5.24D-06 BMatP= 1.25D-05
 IDIUse=1 WtCom= 1.00D+00 WtEn= 0.00D+00
 Coeff-Com:  0.135D-03-0.129D-02-0.167D-01 0.510D-01 0.186D+00-0.291D+00
 Coeff-Com: -0.693D+00 0.764D-01 0.169D+01
 Coeff:      0.135D-03-0.129D-02-0.167D-01 0.510D-01 0.186D+00-0.291D+00
 Coeff:     -0.693D+00 0.764D-01 0.169D+01
 Gap=     0.284 Goal=   None    Shift=    0.500
 RMSDP=1.80D-05 MaxDP=1.74D-03 DE=-6.84D-05 OVMax= 2.16D-03

 Cycle  10  Pass 1  IDiag  1:
 E= -2293.48667486733     Delta-E=       -0.000028132656 Rises=F Damp=F
 DIIS: error= 1.51D-04 at cycle  10 NSaved=  10.
 NSaved=10 IEnMin=10 EnMin= -2293.48667486733     IErMin=10 ErrMin= 1.51D-04
 ErrMax= 1.51D-04  0.00D+00 EMaxC= 1.00D+00 BMatC= 2.08D-06 BMatP= 5.24D-06
 IDIUse=1 WtCom= 1.00D+00 WtEn= 0.00D+00
 Coeff-Com: -0.302D-03 0.933D-03-0.541D-02-0.180D-01 0.209D-01 0.145D+00
 Coeff-Com:  0.343D-01-0.839D+00-0.446D+00 0.211D+01
 Coeff:     -0.302D-03 0.933D-03-0.541D-02-0.180D-01 0.209D-01 0.145D+00
 Coeff:      0.343D-01-0.839D+00-0.446D+00 0.211D+01
 Gap=     0.284 Goal=   None    Shift=    0.500
 RMSDP=1.24D-05 MaxDP=1.52D-03 DE=-2.81D-05 OVMax= 1.47D-03

 Cycle  11  Pass 1  IDiag  1:
 E= -2293.48668611581     Delta-E=       -0.000011248481 Rises=F Damp=F
 DIIS: error= 9.92D-05 at cycle  11 NSaved=  11.
 NSaved=11 IEnMin=11 EnMin= -2293.48668611581     IErMin=11 ErrMin= 9.92D-05
 ErrMax= 9.92D-05  0.00D+00 EMaxC= 1.00D+00 BMatC= 8.83D-07 BMatP= 2.08D-06
 IDIUse=1 WtCom= 1.00D+00 WtEn= 0.00D+00
 Coeff-Com: -0.210D-03 0.949D-03 0.250D-02-0.156D-01-0.535D-01 0.137D+00
 Coeff-Com:  0.205D+00-0.378D+00-0.848D+00 0.403D+00 0.155D+01
 Coeff:     -0.210D-03 0.949D-03 0.250D-02-0.156D-01-0.535D-01 0.137D+00
 Coeff:      0.205D+00-0.378D+00-0.848D+00 0.403D+00 0.155D+01
 Gap=     0.284 Goal=   None    Shift=    0.500
 RMSDP=7.61D-06 MaxDP=1.06D-03 DE=-1.12D-05 OVMax= 9.68D-04

 Cycle  12  Pass 1  IDiag  1:
 E= -2293.48669053337     Delta-E=       -0.000004417559 Rises=F Damp=F
 DIIS: error= 6.36D-05 at cycle  12 NSaved=  12.
 NSaved=12 IEnMin=12 EnMin= -2293.48669053337     IErMin=12 ErrMin= 6.36D-05
 ErrMax= 6.36D-05  0.00D+00 EMaxC= 1.00D+00 BMatC= 3.45D-07 BMatP= 8.83D-07
 IDIUse=1 WtCom= 1.00D+00 WtEn= 0.00D+00
 Coeff-Com: -0.360D-04 0.151D-03 0.224D-02 0.205D-02-0.240D-01-0.437D-03
 Coeff-Com:  0.388D-01 0.208D+00-0.284D+00-0.595D+00-0.363D+00 0.201D+01
 Coeff:     -0.360D-04 0.151D-03 0.224D-02 0.205D-02-0.240D-01-0.437D-03
 Coeff:      0.388D-01 0.208D+00-0.284D+00-0.595D+00-0.363D+00 0.201D+01
 Gap=     0.284 Goal=   None    Shift=    0.500
 RMSDP=4.95D-06 MaxDP=8.34D-04 DE=-4.42D-06 OVMax= 6.32D-04

 Cycle  13  Pass 1  IDiag  1:
 E= -2293.48669224949     Delta-E=       -0.000001716116 Rises=F Damp=F
 DIIS: error= 4.20D-05 at cycle  13 NSaved=  13.
 NSaved=13 IEnMin=13 EnMin= -2293.48669224949     IErMin=13 ErrMin= 4.20D-05
 ErrMax= 4.20D-05  0.00D+00 EMaxC= 1.00D+00 BMatC= 1.53D-07 BMatP= 3.45D-07
 IDIUse=1 WtCom= 1.00D+00 WtEn= 0.00D+00
 Coeff-Com:  0.126D-04-0.182D-03-0.655D-03 0.540D-02 0.111D-01-0.371D-01
 Coeff-Com: -0.626D-01 0.205D+00 0.160D+00-0.322D+00-0.115D+01 0.517D+00
 Coeff-Com:  0.167D+01
 Coeff:      0.126D-04-0.182D-03-0.655D-03 0.540D-02 0.111D-01-0.371D-01
 Coeff:     -0.626D-01 0.205D+00 0.160D+00-0.322D+00-0.115D+01 0.517D+00
 Coeff:      0.167D+01
 Gap=     0.284 Goal=   None    Shift=    0.500
 RMSDP=2.90D-06 MaxDP=4.47D-04 DE=-1.72D-06 OVMax= 4.23D-04

 Cycle  14  Pass 1  IDiag  1:
 E= -2293.48669294046     Delta-E=       -0.000000690968 Rises=F Damp=F
 DIIS: error= 2.68D-05 at cycle  14 NSaved=  14.
 NSaved=14 IEnMin=14 EnMin= -2293.48669294046     IErMin=14 ErrMin= 2.68D-05
 ErrMax= 2.68D-05  0.00D+00 EMaxC= 1.00D+00 BMatC= 6.01D-08 BMatP= 1.53D-07
 IDIUse=1 WtCom= 1.00D+00 WtEn= 0.00D+00
 Coeff-Com:  0.300D-06-0.114D-03-0.852D-03 0.612D-03 0.916D-02-0.593D-02
 Coeff-Com: -0.305D-01-0.740D-03 0.129D+00 0.107D+00-0.498D+00-0.125D+00
 Coeff-Com: -0.740D+00 0.216D+01
 Coeff:      0.300D-06-0.114D-03-0.852D-03 0.612D-03 0.916D-02-0.593D-02
 Coeff:     -0.305D-01-0.740D-03 0.129D+00 0.107D+00-0.498D+00-0.125D+00
 Coeff:     -0.740D+00 0.216D+01
 Gap=     0.284 Goal=   None    Shift=    0.500
 RMSDP=1.71D-06 MaxDP=2.63D-04 DE=-6.91D-07 OVMax= 2.72D-04

 Cycle  15  Pass 1  IDiag  1:
 E= -2293.48669320666     Delta-E=       -0.000000266201 Rises=F Damp=F
 DIIS: error= 1.70D-05 at cycle  15 NSaved=  15.
 NSaved=15 IEnMin=15 EnMin= -2293.48669320666     IErMin=15 ErrMin= 1.70D-05
 ErrMax= 1.70D-05  0.00D+00 EMaxC= 1.00D+00 BMatC= 2.45D-08 BMatP= 6.01D-08
 IDIUse=1 WtCom= 1.00D+00 WtEn= 0.00D+00
 Coeff-Com: -0.841D-05-0.228D-04 0.116D-03-0.209D-02-0.130D-03 0.114D-01
 Coeff-Com:  0.780D-02-0.591D-01-0.852D-02 0.138D+00 0.118D+00-0.737D-01
 Coeff-Com: -0.132D+01 0.484D+00 0.170D+01
 Coeff:     -0.841D-05-0.228D-04 0.116D-03-0.209D-02-0.130D-03 0.114D-01
 Coeff:      0.780D-02-0.591D-01-0.852D-02 0.138D+00 0.118D+00-0.737D-01
 Coeff:     -0.132D+01 0.484D+00 0.170D+01
 Gap=     0.284 Goal=   None    Shift=    0.500
 RMSDP=9.87D-07 MaxDP=1.39D-04 DE=-2.66D-07 OVMax= 1.76D-04

 Cycle  16  Pass 1  IDiag  1:
 E= -2293.48669331091     Delta-E=       -0.000000104253 Rises=F Damp=F
 DIIS: error= 1.08D-05 at cycle  16 NSaved=  16.
 NSaved=16 IEnMin=16 EnMin= -2293.48669331091     IErMin=16 ErrMin= 1.08D-05
 ErrMax= 1.08D-05  0.00D+00 EMaxC= 1.00D+00 BMatC= 1.00D-08 BMatP= 2.45D-08
 IDIUse=1 WtCom= 1.00D+00 WtEn= 0.00D+00
 Coeff-Com: -0.552D-05 0.155D-04 0.480D-03-0.147D-02-0.286D-02 0.735D-02
 Coeff-Com:  0.138D-01-0.221D-01-0.519D-01 0.211D-01 0.221D+00 0.585D-01
 Coeff-Com: -0.554D+00-0.505D+00 0.895D-02 0.181D+01
 Coeff:     -0.552D-05 0.155D-04 0.480D-03-0.147D-02-0.286D-02 0.735D-02
 Coeff:      0.138D-01-0.221D-01-0.519D-01 0.211D-01 0.221D+00 0.585D-01
 Coeff:     -0.554D+00-0.505D+00 0.895D-02 0.181D+01
 Gap=     0.284 Goal=   None    Shift=    0.500
 RMSDP=5.70D-07 MaxDP=6.15D-05 DE=-1.04D-07 OVMax= 1.13D-04

 SCF Done:  E(RLC-wHPBE) =  -2293.48669331     A.U. after   16 cycles
            NFock= 16  Conv=0.57D-06     -V/T= 2.0040
 KE= 2.284326549731D+03 PE=-1.415946201043D+04 EE= 5.186506605437D+03
 Leave Link  502 at Wed Jan 27 23:58:39 2021, MaxMem=  4026531840 cpu:           14851.1 elap:            1876.1
 (Enter /opt/ohpc/pub/libs/gaussian/g16-A.03/sandybridge/g16/l508.exe)
 QCSCF skips out because SCF is already converged.
 Leave Link  508 at Wed Jan 27 23:58:39 2021, MaxMem=  4026531840 cpu:               0.2 elap:               0.1
 (Enter /opt/ohpc/pub/libs/gaussian/g16-A.03/sandybridge/g16/l601.exe)
 Copying SCF densities to generalized density rwf, IOpCl= 0 IROHF=0.

 **********************************************************************

            Population analysis using the SCF density.

 **********************************************************************

 Orbital symmetries:
       Occupied  (A) (A) (A) (A) (A) (A) (A) (A) (A) (A) (A) (A)
                 (A) (A) (A) (A) (A) (A) (A) (A) (A) (A) (A) (A)
                 (A) (A) (A) (A) (A) (A) (A) (A) (A) (A) (A) (A)
                 (A) (A) (A) (A) (A) (A) (A) (A) (A) (A) (A) (A)
                 (A) (A) (A) (A) (A) (A) (A) (A) (A) (A) (A) (A)
                 (A) (A) (A) (A) (A) (A) (A) (A) (A) (A) (A) (A)
                 (A) (A) (A) (A) (A) (A) (A) (A) (A) (A) (A) (A)
                 (A) (A) (A) (A) (A) (A) (A) (A) (A) (A) (A) (A)
                 (A) (A) (A) (A) (A) (A) (A) (A) (A) (A) (A) (A)
                 (A) (A) (A) (A) (A) (A) (A) (A) (A) (A) (A) (A)
                 (A) (A) (A) (A) (A) (A) (A) (A) (A) (A) (A) (A)
                 (A) (A) (A) (A) (A) (A) (A) (A) (A) (A) (A) (A)
                 (A)
       Virtual   (A) (A) (A) (A) (A) (A) (A) (A) (A) (A) (A) (A)
                 (A) (A) (A) (A) (A) (A) (A) (A) (A) (A) (A) (A)
                 (A) (A) (A) (A) (A) (A) (A) (A) (A) (A) (A) (A)
                 (A) (A) (A) (A) (A) (A) (A) (A) (A) (A) (A) (A)
                 (A) (A) (A) (A) (A) (A) (A) (A) (A) (A) (A) (A)
                 (A) (A) (A) (A) (A) (A) (A) (A) (A) (A) (A) (A)
                 (A) (A) (A) (A) (A) (A) (A) (A) (A) (A) (A) (A)
                 (A) (A) (A) (A) (A) (A) (A) (A) (A) (A) (A) (A)
                 (A) (A) (A) (A) (A) (A) (A) (A) (A) (A) (A) (A)
                 (A) (A) (A) (A) (A) (A) (A) (A) (A) (A) (A) (A)
                 (A) (A) (A) (A) (A) (A) (A) (A) (A) (A) (A) (A)
                 (A) (A) (A) (A) (A) (A) (A) (A) (A) (A) (A) (A)
                 (A) (A) (A) (A) (A) (A) (A) (A) (A) (A) (A) (A)
                 (A) (A) (A) (A) (A) (A) (A) (A) (A) (A) (A) (A)
                 (A) (A) (A) (A) (A) (A) (A) (A) (A) (A) (A) (A)
                 (A) (A) (A) (A) (A) (A) (A) (A) (A) (A) (A) (A)
                 (A) (A) (A) (A) (A) (A) (A) (A) (A) (A) (A) (A)
                 (A) (A) (A) (A) (A) (A) (A) (A) (A) (A) (A) (A)
                 (A) (A) (A) (A) (A) (A) (A) (A) (A) (A) (A) (A)
                 (A) (A) (A) (A) (A) (A) (A) (A) (A) (A) (A) (A)
                 (A) (A) (A) (A) (A) (A) (A) (A) (A) (A) (A) (A)
                 (A) (A) (A) (A) (A) (A) (A) (A) (A) (A) (A) (A)
                 (A) (A) (A) (A) (A) (A) (A) (A) (A) (A) (A) (A)
                 (A) (A) (A) (A) (A) (A) (A) (A) (A) (A) (A) (A)
                 (A) (A) (A) (A) (A) (A) (A) (A) (A) (A) (A) (A)
                 (A) (A) (A) (A) (A) (A) (A) (A) (A) (A) (A) (A)
                 (A) (A) (A) (A) (A) (A) (A) (A) (A) (A) (A) (A)
                 (A) (A) (A) (A) (A) (A) (A) (A) (A) (A) (A) (A)
                 (A) (A) (A) (A) (A) (A) (A) (A) (A) (A) (A) (A)
                 (A) (A) (A) (A) (A) (A) (A) (A) (A) (A) (A) (A)
                 (A) (A) (A) (A) (A) (A) (A) (A) (A) (A) (A) (A)
                 (A) (A) (A) (A) (A) (A) (A) (A) (A) (A) (A) (A)
                 (A) (A) (A) (A) (A) (A) (A) (A) (A) (A) (A) (A)
                 (A) (A) (A) (A) (A) (A) (A) (A) (A) (A) (A) (A)
                 (A) (A) (A) (A) (A) (A) (A) (A) (A) (A) (A) (A)
                 (A) (A) (A) (A) (A) (A) (A) (A) (A) (A) (A) (A)
                 (A) (A) (A) (A) (A) (A) (A) (A) (A) (A) (A) (A)
                 (A) (A) (A) (A) (A) (A) (A) (A) (A) (A) (A) (A)
                 (A) (A) (A) (A) (A) (A) (A) (A) (A) (A) (A) (A)
                 (A) (A) (A) (A) (A) (A) (A) (A) (A) (A) (A) (A)
                 (A) (A) (A) (A) (A) (A) (A) (A) (A) (A) (A) (A)
                 (A) (A) (A) (A) (A) (A) (A) (A) (A) (A) (A) (A)
                 (A) (A) (A) (A) (A) (A) (A) (A) (A) (A) (A) (A)
                 (A) (A) (A) (A) (A) (A) (A) (A) (A) (A) (A) (A)
                 (A) (A) (A) (A) (A) (A) (A) (A) (A) (A) (A) (A)
                 (A) (A) (A) (A) (A) (A) (A) (A) (A) (A) (A) (A)
                 (A) (A) (A) (A) (A) (A) (A) (A) (A) (A) (A) (A)
                 (A) (A) (A) (A) (A) (A) (A) (A) (A) (A) (A) (A)
                 (A) (A) (A) (A) (A) (A) (A) (A) (A) (A) (A) (A)
                 (A) (A) (A) (A) (A) (A) (A) (A) (A) (A) (A) (A)
                 (A) (A) (A) (A) (A) (A) (A) (A) (A) (A) (A) (A)
                 (A) (A) (A) (A) (A) (A) (A) (A) (A) (A) (A) (A)
                 (A) (A) (A) (A) (A) (A) (A) (A) (A) (A) (A) (A)
                 (A) (A) (A) (A) (A) (A) (A) (A) (A) (A) (A) (A)
                 (A) (A) (A) (A) (A) (A) (A) (A) (A) (A) (A) (A)
                 (A) (A) (A) (A) (A) (A) (A) (A) (A) (A) (A) (A)
                 (A) (A) (A) (A) (A) (A) (A) (A) (A) (A) (A) (A)
                 (A) (A) (A) (A) (A) (A) (A) (A) (A) (A) (A) (A)
                 (A) (A) (A) (A) (A) (A) (A) (A) (A) (A) (A) (A)
                 (A) (A) (A) (A) (A) (A) (A) (A) (A) (A) (A) (A)
                 (A) (A) (A) (A) (A) (A) (A) (A) (A) (A) (A) (A)
                 (A) (A) (A) (A) (A) (A) (A) (A) (A) (A) (A) (A)
                 (A) (A) (A) (A) (A) (A) (A) (A) (A) (A) (A) (A)
                 (A) (A) (A) (A) (A) (A) (A) (A) (A) (A) (A) (A)
                 (A) (A) (A) (A) (A) (A) (A) (A) (A) (A) (A) (A)
                 (A) (A) (A) (A) (A) (A) (A) (A) (A)
 The electronic state is 1-A.
 Alpha  occ. eigenvalues --  -88.24164 -88.23840 -14.16849 -14.16272 -10.08311
 Alpha  occ. eigenvalues --  -10.08222 -10.08016 -10.07880 -10.07656 -10.07527
 Alpha  occ. eigenvalues --  -10.07508 -10.07472 -10.06585 -10.04959 -10.04513
 Alpha  occ. eigenvalues --  -10.04509 -10.03904 -10.03878 -10.03778 -10.03734
 Alpha  occ. eigenvalues --  -10.03730 -10.03725 -10.03638 -10.03572 -10.03482
 Alpha  occ. eigenvalues --  -10.03463 -10.03448 -10.03444 -10.03443 -10.03426
 Alpha  occ. eigenvalues --  -10.03422 -10.03417 -10.03382 -10.03239 -10.03110
 Alpha  occ. eigenvalues --  -10.03101 -10.03094 -10.03089 -10.02940 -10.02918
 Alpha  occ. eigenvalues --   -7.83514  -7.83110  -5.85623  -5.85242  -5.85121
 Alpha  occ. eigenvalues --   -5.84731  -5.84347  -5.83924  -1.05090  -1.04498
 Alpha  occ. eigenvalues --   -0.96732  -0.94795  -0.94538  -0.94117  -0.93130
 Alpha  occ. eigenvalues --   -0.92436  -0.88713  -0.87725  -0.84939  -0.84421
 Alpha  occ. eigenvalues --   -0.84233  -0.83658  -0.83132  -0.83101  -0.82894
 Alpha  occ. eigenvalues --   -0.82714  -0.81943  -0.80609  -0.78325  -0.76871
 Alpha  occ. eigenvalues --   -0.72139  -0.71589  -0.71364  -0.70835  -0.69839
 Alpha  occ. eigenvalues --   -0.69441  -0.69092  -0.68678  -0.68528  -0.67793
 Alpha  occ. eigenvalues --   -0.65933  -0.65261  -0.63102  -0.62848  -0.62605
 Alpha  occ. eigenvalues --   -0.62072  -0.59168  -0.58506  -0.58138  -0.56772
 Alpha  occ. eigenvalues --   -0.56598  -0.56077  -0.55830  -0.55387  -0.54623
 Alpha  occ. eigenvalues --   -0.53991  -0.53723  -0.53539  -0.52739  -0.52558
 Alpha  occ. eigenvalues --   -0.52284  -0.51913  -0.51689  -0.51600  -0.51129
 Alpha  occ. eigenvalues --   -0.50910  -0.50775  -0.50627  -0.50378  -0.49621
 Alpha  occ. eigenvalues --   -0.48976  -0.47861  -0.47850  -0.47403  -0.47231
 Alpha  occ. eigenvalues --   -0.46996  -0.46736  -0.45038  -0.44799  -0.44333
 Alpha  occ. eigenvalues --   -0.44020  -0.43858  -0.43555  -0.42992  -0.42904
 Alpha  occ. eigenvalues --   -0.42464  -0.42334  -0.42087  -0.41805  -0.41174
 Alpha  occ. eigenvalues --   -0.39893  -0.38308  -0.36923  -0.35546  -0.35319
 Alpha  occ. eigenvalues --   -0.35026  -0.34897  -0.34386  -0.34182  -0.33767
 Alpha  occ. eigenvalues --   -0.33764  -0.31762  -0.30859  -0.26351  -0.25856
 Alpha virt. eigenvalues --    0.02550   0.03296   0.03886   0.04068   0.04167
 Alpha virt. eigenvalues --    0.04466   0.05403   0.06275   0.06484   0.06675
 Alpha virt. eigenvalues --    0.07981   0.08443   0.09272   0.11024   0.11351
 Alpha virt. eigenvalues --    0.12253   0.12445   0.12898   0.13026   0.13475
 Alpha virt. eigenvalues --    0.14351   0.14674   0.14994   0.15230   0.15363
 Alpha virt. eigenvalues --    0.15562   0.15797   0.16077   0.16459   0.16842
 Alpha virt. eigenvalues --    0.17033   0.17265   0.17516   0.17837   0.18034
 Alpha virt. eigenvalues --    0.18166   0.18399   0.18624   0.18815   0.19307
 Alpha virt. eigenvalues --    0.19568   0.19702   0.20054   0.20777   0.20969
 Alpha virt. eigenvalues --    0.21317   0.22593   0.22645   0.22918   0.23298
 Alpha virt. eigenvalues --    0.23575   0.24665   0.25455   0.25594   0.25936
 Alpha virt. eigenvalues --    0.26231   0.26439   0.26522   0.26659   0.27105
 Alpha virt. eigenvalues --    0.27304   0.27610   0.27687   0.27866   0.27968
 Alpha virt. eigenvalues --    0.28227   0.28406   0.28536   0.29013   0.29147
 Alpha virt. eigenvalues --    0.29277   0.29679   0.29912   0.29948   0.30340
 Alpha virt. eigenvalues --    0.30480   0.30621   0.30871   0.31147   0.31244
 Alpha virt. eigenvalues --    0.31303   0.31495   0.31598   0.31823   0.31927
 Alpha virt. eigenvalues --    0.32599   0.32668   0.32741   0.33093   0.33353
 Alpha virt. eigenvalues --    0.33564   0.34087   0.34309   0.34381   0.34746
 Alpha virt. eigenvalues --    0.35048   0.35206   0.35427   0.35739   0.36074
 Alpha virt. eigenvalues --    0.36276   0.36693   0.36912   0.37332   0.37374
 Alpha virt. eigenvalues --    0.37749   0.38189   0.38268   0.38374   0.38876
 Alpha virt. eigenvalues --    0.38982   0.39387   0.39489   0.39794   0.40102
 Alpha virt. eigenvalues --    0.40230   0.40267   0.40569   0.41004   0.41181
 Alpha virt. eigenvalues --    0.41678   0.41851   0.42736   0.43109   0.43311
 Alpha virt. eigenvalues --    0.43813   0.44018   0.44283   0.44507   0.44650
 Alpha virt. eigenvalues --    0.44992   0.45153   0.45281   0.45613   0.45748
 Alpha virt. eigenvalues --    0.46091   0.46383   0.46423   0.46586   0.46871
 Alpha virt. eigenvalues --    0.46920   0.47084   0.47374   0.47512   0.47539
 Alpha virt. eigenvalues --    0.47679   0.47862   0.47948   0.48156   0.48584
 Alpha virt. eigenvalues --    0.48799   0.48885   0.49156   0.49549   0.49583
 Alpha virt. eigenvalues --    0.49697   0.50086   0.50297   0.50333   0.50488
 Alpha virt. eigenvalues --    0.50708   0.50789   0.51006   0.51205   0.51435
 Alpha virt. eigenvalues --    0.52004   0.52171   0.52485   0.52854   0.53033
 Alpha virt. eigenvalues --    0.53405   0.53759   0.54323   0.54576   0.54852
 Alpha virt. eigenvalues --    0.54977   0.55697   0.55918   0.56048   0.56217
 Alpha virt. eigenvalues --    0.56542   0.56731   0.56888   0.57123   0.57217
 Alpha virt. eigenvalues --    0.57612   0.57745   0.58052   0.58208   0.58253
 Alpha virt. eigenvalues --    0.58528   0.58951   0.59159   0.59308   0.59368
 Alpha virt. eigenvalues --    0.59994   0.60481   0.60759   0.60923   0.61251
 Alpha virt. eigenvalues --    0.61527   0.62101   0.62613   0.62742   0.63098
 Alpha virt. eigenvalues --    0.63427   0.63771   0.63912   0.64252   0.65056
 Alpha virt. eigenvalues --    0.65388   0.65920   0.66194   0.66974   0.67674
 Alpha virt. eigenvalues --    0.68342   0.68997   0.69442   0.69853   0.70215
 Alpha virt. eigenvalues --    0.70492   0.70683   0.71636   0.72191   0.73007
 Alpha virt. eigenvalues --    0.73729   0.74430   0.74478   0.74955   0.75151
 Alpha virt. eigenvalues --    0.75502   0.75729   0.76240   0.76536   0.76798
 Alpha virt. eigenvalues --    0.77077   0.77174   0.77602   0.77799   0.77923
 Alpha virt. eigenvalues --    0.78008   0.78343   0.78808   0.78847   0.79431
 Alpha virt. eigenvalues --    0.79717   0.80058   0.80213   0.80519   0.80810
 Alpha virt. eigenvalues --    0.81157   0.81871   0.81940   0.82582   0.82954
 Alpha virt. eigenvalues --    0.83921   0.84453   0.84671   0.84901   0.85617
 Alpha virt. eigenvalues --    0.86175   0.86472   0.86772   0.87625   0.87987
 Alpha virt. eigenvalues --    0.89294   0.89792   0.90993   0.91924   0.92445
 Alpha virt. eigenvalues --    0.92752   0.93220   0.93457   0.93635   0.95399
 Alpha virt. eigenvalues --    0.96619   0.97790   0.98400   0.98913   0.99313
 Alpha virt. eigenvalues --    1.00312   1.00479   1.01915   1.03451   1.04564
 Alpha virt. eigenvalues --    1.06296   1.08598   1.10611   1.16392   1.20916
 Alpha virt. eigenvalues --    1.21084   1.22487   1.22795   1.25076   1.26477
 Alpha virt. eigenvalues --    1.26905   1.27321   1.27935   1.28455   1.28562
 Alpha virt. eigenvalues --    1.29462   1.30116   1.30384   1.30458   1.30705
 Alpha virt. eigenvalues --    1.30826   1.31033   1.32240   1.32368   1.32785
 Alpha virt. eigenvalues --    1.33037   1.33071   1.33297   1.33498   1.33875
 Alpha virt. eigenvalues --    1.34169   1.34613   1.34656   1.35032   1.35274
 Alpha virt. eigenvalues --    1.35519   1.35659   1.35739   1.36002   1.36309
 Alpha virt. eigenvalues --    1.36812   1.37081   1.37345   1.37401   1.37586
 Alpha virt. eigenvalues --    1.37928   1.38248   1.38396   1.38643   1.39464
 Alpha virt. eigenvalues --    1.39639   1.39758   1.40565   1.40782   1.41275
 Alpha virt. eigenvalues --    1.41506   1.42110   1.42367   1.42801   1.43879
 Alpha virt. eigenvalues --    1.46035   1.47059   1.47779   1.48311   1.48715
 Alpha virt. eigenvalues --    1.48747   1.49166   1.49352   1.49580   1.49936
 Alpha virt. eigenvalues --    1.50300   1.50464   1.50579   1.50793   1.50824
 Alpha virt. eigenvalues --    1.51010   1.51090   1.51123   1.51257   1.51501
 Alpha virt. eigenvalues --    1.51544   1.51916   1.52416   1.52790   1.52916
 Alpha virt. eigenvalues --    1.53274   1.53483   1.53833   1.54005   1.54268
 Alpha virt. eigenvalues --    1.54377   1.54512   1.54777   1.54816   1.55028
 Alpha virt. eigenvalues --    1.55501   1.55772   1.56562   1.56768   1.57187
 Alpha virt. eigenvalues --    1.57712   1.57972   1.58328   1.58385   1.58965
 Alpha virt. eigenvalues --    1.59258   1.59505   1.59764   1.59881   1.60166
 Alpha virt. eigenvalues --    1.60339   1.60834   1.61027   1.61503   1.61957
 Alpha virt. eigenvalues --    1.62023   1.62218   1.62327   1.62394   1.62644
 Alpha virt. eigenvalues --    1.62864   1.63023   1.63185   1.63400   1.63851
 Alpha virt. eigenvalues --    1.63912   1.64288   1.64408   1.64836   1.64904
 Alpha virt. eigenvalues --    1.65015   1.65168   1.65282   1.65688   1.65962
 Alpha virt. eigenvalues --    1.66331   1.66705   1.66851   1.67283   1.67991
 Alpha virt. eigenvalues --    1.68448   1.70249   1.71368   1.71557   1.73309
 Alpha virt. eigenvalues --    1.73611   1.73745   1.73952   1.74167   1.74974
 Alpha virt. eigenvalues --    1.77098   1.77177   1.77485   1.78200   1.78372
 Alpha virt. eigenvalues --    1.79757   1.80353   1.81863   1.82507   1.82727
 Alpha virt. eigenvalues --    1.83086   1.83226   1.83363   1.83470   1.83569
 Alpha virt. eigenvalues --    1.83640   1.84086   1.84219   1.84784   1.84963
 Alpha virt. eigenvalues --    1.85494   1.85644   1.86075   1.86262   1.86577
 Alpha virt. eigenvalues --    1.87072   1.87394   1.87580   1.87962   1.88141
 Alpha virt. eigenvalues --    1.88410   1.88527   1.88650   1.89060   1.89374
 Alpha virt. eigenvalues --    1.89591   1.90611   1.91151   1.91309   1.92999
 Alpha virt. eigenvalues --    1.93243   1.94085   1.94461   1.94757   1.94985
 Alpha virt. eigenvalues --    1.95216   1.95414   1.95522   1.95669   1.96656
 Alpha virt. eigenvalues --    1.96958   1.97550   1.97784   1.98192   1.98298
 Alpha virt. eigenvalues --    1.98499   1.98511   1.98714   1.98909   1.98986
 Alpha virt. eigenvalues --    1.99134   1.99236   1.99455   1.99498   1.99824
 Alpha virt. eigenvalues --    2.00006   2.00116   2.00172   2.00583   2.01048
 Alpha virt. eigenvalues --    2.01271   2.01979   2.02427   2.03049   2.03670
 Alpha virt. eigenvalues --    2.03913   2.04183   2.04260   2.04518   2.04851
 Alpha virt. eigenvalues --    2.06292   2.06966   2.07257   2.07534   2.07556
 Alpha virt. eigenvalues --    2.08245   2.08856   2.08998   2.09777   2.09987
 Alpha virt. eigenvalues --    2.10830   2.11367   2.12152   2.13529   2.14157
 Alpha virt. eigenvalues --    2.14486   2.15123   2.16122   2.16874   2.17082
 Alpha virt. eigenvalues --    2.18428   2.18842   2.19993   2.21445   2.21872
 Alpha virt. eigenvalues --    2.23390   2.24260   2.26139   2.26250   2.26876
 Alpha virt. eigenvalues --    2.27160   2.27746   2.28912   2.29734   2.30839
 Alpha virt. eigenvalues --    2.30925   2.31087   2.31411   2.33321   2.33890
 Alpha virt. eigenvalues --    2.35468   2.35770   2.36334   2.36785   2.37041
 Alpha virt. eigenvalues --    2.37266   2.37901   2.37959   2.38233   2.38426
 Alpha virt. eigenvalues --    2.38542   2.38673   2.38741   2.38880   2.39073
 Alpha virt. eigenvalues --    2.39636   2.39882   2.40275   2.40617   2.40821
 Alpha virt. eigenvalues --    2.41232   2.41408   2.41562   2.41804   2.42270
 Alpha virt. eigenvalues --    2.42923   2.43024   2.43124   2.43590   2.43775
 Alpha virt. eigenvalues --    2.43991   2.44048   2.44185   2.44517   2.44742
 Alpha virt. eigenvalues --    2.44913   2.45500   2.46215   2.48836   2.51342
 Alpha virt. eigenvalues --    2.52194   2.52506   2.52777   2.53154   2.53976
 Alpha virt. eigenvalues --    2.54142   2.55440   2.56720   2.57252   2.57486
 Alpha virt. eigenvalues --    2.57589   2.58264   2.58668   2.58864   2.59111
 Alpha virt. eigenvalues --    2.59285   2.59534   2.59659   2.59960   2.61083
 Alpha virt. eigenvalues --    2.61668   2.62683   2.62845   2.63731   2.64120
 Alpha virt. eigenvalues --    2.65461   2.66226   2.67187   2.68486   2.68867
 Alpha virt. eigenvalues --    2.69640   2.70375   2.70632   2.71012   2.71178
 Alpha virt. eigenvalues --    2.71277   2.71596   2.71666   2.71866   2.72039
 Alpha virt. eigenvalues --    2.72390   2.72993   2.73194   2.73309   2.73867
 Alpha virt. eigenvalues --    2.74307   2.74777   2.74934   2.75768   2.78242
 Alpha virt. eigenvalues --    2.80636   2.81019   2.81222   2.81350   2.82604
 Alpha virt. eigenvalues --    2.83666   2.83839   2.84108   2.84234   2.84444
 Alpha virt. eigenvalues --    2.86024   2.86116   2.86616   2.88743   2.89112
 Alpha virt. eigenvalues --    2.89232   2.89693   2.90871   2.91840   2.91889
 Alpha virt. eigenvalues --    2.92083   2.92356   2.93577   2.96218   2.96903
 Alpha virt. eigenvalues --    3.02926   3.03535   3.03738   3.03905   3.04100
 Alpha virt. eigenvalues --    3.04353   3.05170   3.05529   3.07798   3.08198
 Alpha virt. eigenvalues --    3.08720   3.08917   3.09308   3.09699   3.10115
 Alpha virt. eigenvalues --    3.10456   3.10849   3.11019   3.12227   3.13728
 Alpha virt. eigenvalues --    3.14628   3.15502   3.16155   3.16535   3.16831
 Alpha virt. eigenvalues --    3.17200   3.18169   3.18594   3.20273   3.21012
 Alpha virt. eigenvalues --    3.21349   3.21460   3.22622   3.23845   3.24385
 Alpha virt. eigenvalues --    3.24586   3.24921   3.25608   3.26551   3.26827
 Alpha virt. eigenvalues --    3.27114   3.27470   3.27689   3.27970   3.28109
 Alpha virt. eigenvalues --    3.28484   3.29251   3.31303   3.34211   3.34845
 Alpha virt. eigenvalues --    3.39505   3.39952   3.40001   3.40277   3.40557
 Alpha virt. eigenvalues --    3.41670   3.43445   3.45860   3.46826   3.47246
 Alpha virt. eigenvalues --    3.47509   3.52243   3.52867   3.58648   3.59296
 Alpha virt. eigenvalues --    3.60161   3.61529   3.61770   3.63509   3.64417
 Alpha virt. eigenvalues --    3.64607   3.68146   3.68489   3.84373   3.86829
 Alpha virt. eigenvalues --    3.96537   3.97846   3.99585   3.99975  18.84966
 Alpha virt. eigenvalues --   19.03077  21.24220  21.24783  21.26885  21.26994
 Alpha virt. eigenvalues --   21.28374  21.28888  21.73692  21.74203  21.76459
 Alpha virt. eigenvalues --   21.76857  21.77128  21.78075  21.78912  21.80797
 Alpha virt. eigenvalues --   21.84889  21.85048  21.86115  21.88337  21.96873
 Alpha virt. eigenvalues --   21.97791  22.00532  22.01434  22.02520  22.02906
 Alpha virt. eigenvalues --   22.03443  22.04689  22.08367  22.09041  22.10045
 Alpha virt. eigenvalues --   22.10607  22.14666  22.15982  22.20842  22.20955
 Alpha virt. eigenvalues --   22.22436  22.23916  32.10188  32.10330
          Condensed to atoms (all electrons):
 Mulliken charges:
               1
     1  C   -0.060959
     2  C   -0.272280
     3  S    0.076092
     4  C   -0.025465
     5  C    0.009970
     6  C   -0.210204
     7  C   -0.035935
     8  C   -0.035762
     9  H    0.088336
    10  C   -0.122508
    11  C   -0.112476
    12  C   -0.101866
    13  C   -0.075198
    14  H    0.154221
    15  H    0.130902
    16  H    0.155506
    17  C   -0.150217
    18  H    0.164772
    19  H    0.153129
    20  H    0.119625
    21  H    0.162640
    22  S   -0.021469
    23  N   -0.031849
    24  C   -0.052515
    25  C   -0.124865
    26  C   -0.120069
    27  C   -0.117341
    28  C   -0.117413
    29  C   -0.115450
    30  H    0.161934
    31  H    0.160385
    32  H    0.113496
    33  H    0.114065
    34  H    0.112569
    35  C   -0.051700
    36  C   -0.129171
    37  C   -0.115709
    38  C   -0.117203
    39  C   -0.119279
    40  C   -0.115951
    41  H    0.162219
    42  H    0.165084
    43  H    0.113317
    44  H    0.112560
    45  H    0.111892
    46  N   -0.031399
    47  C   -0.081754
    48  C   -0.111792
    49  C   -0.107828
    50  C   -0.121549
    51  C   -0.124948
    52  C   -0.108767
    53  H    0.162297
    54  H    0.168348
    55  H    0.115170
    56  H    0.114266
    57  H    0.114178
    58  C   -0.060750
    59  C   -0.119704
    60  C   -0.114159
    61  C   -0.115481
    62  C   -0.115897
    63  C   -0.114063
    64  H    0.160150
    65  H    0.158873
    66  H    0.115032
    67  H    0.115640
    68  H    0.114276
 Sum of Mulliken charges =  -0.00000
 Mulliken charges with hydrogens summed into heavy atoms:
               1
     1  C    0.103813
     2  C   -0.272280
     3  S    0.076092
     4  C   -0.025465
     5  C    0.163099
     6  C   -0.210204
     7  C   -0.035935
     8  C    0.083864
    10  C    0.031713
    11  C    0.018426
    12  C    0.053640
    13  C   -0.075198
    17  C    0.012423
    22  S    0.066867
    23  N   -0.031849
    24  C   -0.052515
    25  C    0.037069
    26  C    0.040316
    27  C   -0.003846
    28  C   -0.003348
    29  C   -0.002881
    35  C   -0.051700
    36  C    0.033048
    37  C    0.049375
    38  C   -0.003886
    39  C   -0.006720
    40  C   -0.004059
    46  N   -0.031399
    47  C   -0.081754
    48  C    0.050506
    49  C    0.060521
    50  C   -0.006379
    51  C   -0.010681
    52  C    0.005411
    58  C   -0.060750
    59  C    0.040446
    60  C    0.044714
    61  C   -0.000449
    62  C   -0.000258
    63  C    0.000213
 Electronic spatial extent (au):  <R**2>=          31232.1934
 Charge=              0.0000 electrons
 Dipole moment (field-independent basis, Debye):
    X=             -0.9817    Y=              2.1078    Z=             -0.1364  Tot=              2.3292
 Quadrupole moment (field-independent basis, Debye-Ang):
   XX=           -227.5380   YY=           -234.9716   ZZ=           -238.0843
   XY=             -1.8718   XZ=             -0.3447   YZ=              7.2481
 Traceless Quadrupole moment (field-independent basis, Debye-Ang):
   XX=              5.9933   YY=             -1.4403   ZZ=             -4.5530
   XY=             -1.8718   XZ=             -0.3447   YZ=              7.2481
 Octapole moment (field-independent basis, Debye-Ang**2):
  XXX=             10.2869  YYY=             38.5715  ZZZ=             31.9524  XYY=             -9.7100
  XXY=            -20.1608  XXZ=            -49.7727  XZZ=            -16.9224  YZZ=             12.9725
  YYZ=            -19.2412  XYZ=              2.3603
 Hexadecapole moment (field-independent basis, Debye-Ang**3):
 XXXX=         -31788.2073 YYYY=          -6592.4966 ZZZZ=          -3695.4880 XXXY=           -213.8234
 XXXZ=             14.1370 YYYX=            100.2984 YYYZ=            -11.0899 ZZZX=             46.0994
 ZZZY=            191.1164 XXYY=          -6144.9612 XXZZ=          -6078.6380 YYZZ=          -1786.8014
 XXYZ=             72.0259 YYXZ=             14.5659 ZZXY=              8.5838
 N-N= 4.395142161951D+03 E-N=-1.415946281047D+04  KE= 2.284326549731D+03
 No NMR shielding tensors so no spin-rotation constants.
 Leave Link  601 at Wed Jan 27 23:58:40 2021, MaxMem=  4026531840 cpu:               7.9 elap:               1.1
 (Enter /opt/ohpc/pub/libs/gaussian/g16-A.03/sandybridge/g16/l9999.exe)

 Test job not archived.
 1\1\GINC-CNODE210\SP\RLC-wHPBE\TZVP\C36H28N2S2\RDU230\27-Jan-2021\0\\#
 P LC-wHPBE/TZVP iop(3/107=0262500000, 3/108=0262500000) scf=(conver=6,
 fermi,ndamp=35,noincfock,novaracc,vshift=500,xqc)\\H28 C36 S2 N2\\0,1\
 C,0,-2.604951,0.985352,-0.477595\C,0,-1.595468,1.227646,-1.396897\S,0,
 -0.459746,2.557842,-1.073663\C,0,-1.509976,0.467226,-2.564163\C,0,1.04
 3777,0.455726,-0.021717\C,0,1.03833,1.682104,-0.668307\C,0,-3.557585,-
 0.001751,-0.697168\C,0,-2.447111,-0.539154,-2.764444\H,0,-0.596318,-0.
 14267,-4.605045\C,0,2.238728,-0.147647,0.319798\C,0,2.246539,2.297832,
 -0.961919\C,0,3.442101,1.694718,-0.621166\C,0,3.453096,0.46292,0.02383
 7\H,0,2.234263,-1.106243,0.827797\H,0,2.253931,3.248348,-1.486346\H,0,
 4.381679,2.178238,-0.866461\C,0,-3.461673,-0.764082,-1.856276\H,0,-2.6
 46669,1.585519,0.424718\H,0,0.106936,-0.032641,0.224382\H,0,-2.404245,
 -1.146243,-3.663282\H,0,-4.192893,-1.542008,-2.047877\S,0,-0.233558,0.
 817463,-3.737465\N,0,4.673686,-0.159547,0.368747\C,0,5.732508,0.612661
 ,0.896564\C,0,7.045695,0.37796,0.499452\C,0,5.475865,1.622329,1.819567
 \C,0,8.078745,1.133154,1.024558\C,0,6.512871,2.384632,2.326214\C,0,7.8
 20306,2.143178,1.9369\H,0,7.251646,-0.403669,-0.22406\H,0,4.45483,1.80
 7304,2.136118\H,0,9.097402,0.93653,0.704866\H,0,6.295127,3.169013,3.04
 4416\H,0,8.632202,2.738403,2.341339\C,0,4.837054,-1.548147,0.168533\C,
 0,5.516065,-2.321618,1.105787\C,0,4.319017,-2.163542,-0.967486\C,0,5.6
 79987,-3.679833,0.902534\C,0,4.472338,-3.525567,-1.15401\C,0,5.156657,
 -4.292005,-0.224805\H,0,5.917204,-1.848815,1.995947\H,0,3.79167,-1.566
 068,-1.703651\H,0,6.213214,-4.268058,1.642948\H,0,4.061647,-3.98973,-2
 .045325\H,0,5.281223,-5.35883,-0.377899\N,0,-4.591369,-0.225236,0.2355
 72\C,0,-4.996809,-1.544618,0.539366\C,0,-6.345932,-1.849462,0.693639\C
 ,0,-4.053605,-2.557013,0.688173\C,0,-6.738551,-3.140118,0.998819\C,0,-
 4.45592,-3.848924,0.975713\C,0,-5.798707,-4.148587,1.137139\H,0,-7.085
 839,-1.064984,0.575406\H,0,-2.999778,-2.324624,0.576668\H,0,-7.794748,
 -3.361033,1.117399\H,0,-3.707423,-4.627077,1.088273\H,0,-6.110711,-5.1
 61215,1.369943\C,0,-5.228462,0.872905,0.859345\C,0,-5.548183,0.824769,
 2.212595\C,0,-5.541916,2.014931,0.129127\C,0,-6.178047,1.897088,2.8180
 17\C,0,-6.155123,3.090236,0.746513\C,0,-6.481192,3.037227,2.091754\H,0
 ,-5.300925,-0.061617,2.787177\H,0,-5.299559,2.056134,-0.927579\H,0,-6.
 421719,1.844307,3.874525\H,0,-6.390696,3.975287,0.163884\H,0,-6.967632
 ,3.87989,2.571608\\Version=EM64L-G16RevA.03\State=1-A\HF=-2293.4866933
 \RMSD=5.696e-07\Dipole=-0.3862243,-0.8292904,0.0536447\Quadrupole=4.45
 58609,-1.070803,-3.3850579,1.3916487,0.2562903,5.3887831\PG=C01 [X(C36
 H28N2S2)]\\@


 YOU KNOW YOU'VE SPOKEN TOO LONG WHEN THE AUDIENCE STOPS LOOKING AT
 THEIR WATCHES AND STARTS SHAKING THEM.
 Job cpu time:       0 days  4 hours 10 minutes 12.3 seconds.
 Elapsed time:       0 days  0 hours 31 minutes 36.8 seconds.
 File lengths (MBytes):  RWF=    304 Int=      0 D2E=      0 Chk=     56 Scr=      8
 Normal termination of Gaussian 16 at Wed Jan 27 23:58:40 2021.
