 Entering Gaussian System, Link 0=g16
 Input=mol_ta_pa_whol_tune_n0.gjf
 Output=mol_ta_pa_whol_tune_n0.log
 Initial command:
 /opt/ohpc/pub/libs/gaussian/g16-A.03/sandybridge/g16/l1.exe "/mnt/gpfs2_4m/scratch/rdu230/ondemand/projects/init_structures/gaussian/wtuning/mol_ta_pa_whol/tuning_mol_ta_pa_whol_ocycle0/Gau-10044.inp" -scrdir="/mnt/gpfs2_4m/scratch/rdu230/ondemand/projects/init_structures/gaussian/wtuning/mol_ta_pa_whol/tuning_mol_ta_pa_whol_ocycle0/"
 Entering Link 1 = /opt/ohpc/pub/libs/gaussian/g16-A.03/sandybridge/g16/l1.exe PID=     10046.
  
 Copyright (c) 1988,1990,1992,1993,1995,1998,2003,2009,2016,
            Gaussian, Inc.  All Rights Reserved.
  
 This is part of the Gaussian(R) 16 program.  It is based on
 the Gaussian(R) 09 system (copyright 2009, Gaussian, Inc.),
 the Gaussian(R) 03 system (copyright 2003, Gaussian, Inc.),
 the Gaussian(R) 98 system (copyright 1998, Gaussian, Inc.),
 the Gaussian(R) 94 system (copyright 1995, Gaussian, Inc.),
 the Gaussian 92(TM) system (copyright 1992, Gaussian, Inc.),
 the Gaussian 90(TM) system (copyright 1990, Gaussian, Inc.),
 the Gaussian 88(TM) system (copyright 1988, Gaussian, Inc.),
 the Gaussian 86(TM) system (copyright 1986, Carnegie Mellon
 University), and the Gaussian 82(TM) system (copyright 1983,
 Carnegie Mellon University). Gaussian is a federally registered
 trademark of Gaussian, Inc.
  
 This software contains proprietary and confidential information,
 including trade secrets, belonging to Gaussian, Inc.
  
 This software is provided under written license and may be
 used, copied, transmitted, or stored only in accord with that
 written license.
  
 The following legend is applicable only to US Government
 contracts under FAR:
  
                    RESTRICTED RIGHTS LEGEND
  
 Use, reproduction and disclosure by the US Government is
 subject to restrictions as set forth in subparagraphs (a)
 and (c) of the Commercial Computer Software - Restricted
 Rights clause in FAR 52.227-19.
  
 Gaussian, Inc.
 340 Quinnipiac St., Bldg. 40, Wallingford CT 06492
  
  
 ---------------------------------------------------------------
 Warning -- This program may not be used in any manner that
 competes with the business of Gaussian, Inc. or will provide
 assistance to any competitor of Gaussian, Inc.  The licensee
 of this program is prohibited from giving any competitor of
 Gaussian, Inc. access to this program.  By using this program,
 the user acknowledges that Gaussian, Inc. is engaged in the
 business of creating and licensing software in the field of
 computational chemistry and represents and warrants to the
 licensee that it is not a competitor of Gaussian, Inc. and that
 it will not use this program in any manner prohibited above.
 ---------------------------------------------------------------
  

 Cite this work as:
 Gaussian 16, Revision A.03,
 M. J. Frisch, G. W. Trucks, H. B. Schlegel, G. E. Scuseria, 
 M. A. Robb, J. R. Cheeseman, G. Scalmani, V. Barone, 
 G. A. Petersson, H. Nakatsuji, X. Li, M. Caricato, A. V. Marenich, 
 J. Bloino, B. G. Janesko, R. Gomperts, B. Mennucci, H. P. Hratchian, 
 J. V. Ortiz, A. F. Izmaylov, J. L. Sonnenberg, D. Williams-Young, 
 F. Ding, F. Lipparini, F. Egidi, J. Goings, B. Peng, A. Petrone, 
 T. Henderson, D. Ranasinghe, V. G. Zakrzewski, J. Gao, N. Rega, 
 G. Zheng, W. Liang, M. Hada, M. Ehara, K. Toyota, R. Fukuda, 
 J. Hasegawa, M. Ishida, T. Nakajima, Y. Honda, O. Kitao, H. Nakai, 
 T. Vreven, K. Throssell, J. A. Montgomery, Jr., J. E. Peralta, 
 F. Ogliaro, M. J. Bearpark, J. J. Heyd, E. N. Brothers, K. N. Kudin, 
 V. N. Staroverov, T. A. Keith, R. Kobayashi, J. Normand, 
 K. Raghavachari, A. P. Rendell, J. C. Burant, S. S. Iyengar, 
 J. Tomasi, M. Cossi, J. M. Millam, M. Klene, C. Adamo, R. Cammi, 
 J. W. Ochterski, R. L. Martin, K. Morokuma, O. Farkas, 
 J. B. Foresman, and D. J. Fox, Gaussian, Inc., Wallingford CT, 2016.
 
 ******************************************
 Gaussian 16:  EM64L-G16RevA.03 25-Dec-2016
                27-Jan-2021 
 ******************************************
 %mem=30GB
 %nproc=8
 Will use up to    8 processors via shared memory.
 ----------------------------------------------------------------------
 #P LC-wHPBE/TZVP iop(3/107=0221900000, 3/108=0221900000) scf=(conver=6
 ,fermi,ndamp=35,noincfock,novaracc,vshift=500,xqc)
 ----------------------------------------------------------------------
 1/38=1,172=1/1;
 2/12=2,17=6,18=5,40=1/2;
 3/5=19,7=101,11=2,25=1,30=1,74=-71,107=221900000,108=221900000/1,2,3;
 4//1;
 5/5=100002,6=6,8=3,10=500,13=1,18=-1,22=13,38=1,93=35/2,8;
 6/7=2,8=2,9=2,10=2,28=1/1;
 99/5=1,9=1/99;
 Leave Link    1 at Wed Jan 27 08:40:18 2021, MaxMem=  4026531840 cpu:               1.7 elap:               0.2
 (Enter /opt/ohpc/pub/libs/gaussian/g16-A.03/sandybridge/g16/l101.exe)
 -------------
 H28 C36 S2 N2
 -------------
 Symbolic Z-matrix:
 Charge =  0 Multiplicity = 1
 C                    -2.60495   0.98535  -0.4776 
 C                    -1.59547   1.22765  -1.3969 
 S                    -0.45975   2.55784  -1.07366 
 C                    -1.50998   0.46723  -2.56416 
 C                     1.04378   0.45573  -0.02172 
 C                     1.03833   1.6821   -0.66831 
 C                    -3.55759  -0.00175  -0.69717 
 C                    -2.44711  -0.53915  -2.76444 
 H                    -0.59632  -0.14267  -4.60505 
 C                     2.23873  -0.14765   0.3198 
 C                     2.24654   2.29783  -0.96192 
 C                     3.4421    1.69472  -0.62117 
 C                     3.4531    0.46292   0.02384 
 H                     2.23426  -1.10624   0.8278 
 H                     2.25393   3.24835  -1.48635 
 H                     4.38168   2.17824  -0.86646 
 C                    -3.46167  -0.76408  -1.85628 
 H                    -2.64667   1.58552   0.42472 
 H                     0.10694  -0.03264   0.22438 
 H                    -2.40424  -1.14624  -3.66328 
 H                    -4.19289  -1.54201  -2.04788 
 S                    -0.23356   0.81746  -3.73747 
 N                     4.67369  -0.15955   0.36875 
 C                     5.73251   0.61266   0.89656 
 C                     7.0457    0.37796   0.49945 
 C                     5.47587   1.62233   1.81957 
 C                     8.07874   1.13315   1.02456 
 C                     6.51287   2.38463   2.32621 
 C                     7.82031   2.14318   1.9369 
 H                     7.25165  -0.40367  -0.22406 
 H                     4.45483   1.8073    2.13612 
 H                     9.0974    0.93653   0.70487 
 H                     6.29513   3.16901   3.04442 
 H                     8.6322    2.7384    2.34134 
 C                     4.83705  -1.54815   0.16853 
 C                     5.51607  -2.32162   1.10579 
 C                     4.31902  -2.16354  -0.96749 
 C                     5.67999  -3.67983   0.90253 
 C                     4.47234  -3.52557  -1.15401 
 C                     5.15666  -4.29201  -0.22481 
 H                     5.9172   -1.84882   1.99595 
 H                     3.79167  -1.56607  -1.70365 
 H                     6.21321  -4.26806   1.64295 
 H                     4.06165  -3.98973  -2.04533 
 H                     5.28122  -5.35883  -0.3779 
 N                    -4.59137  -0.22524   0.23557 
 C                    -4.99681  -1.54462   0.53937 
 C                    -6.34593  -1.84946   0.69364 
 C                    -4.05361  -2.55701   0.68817 
 C                    -6.73855  -3.14012   0.99882 
 C                    -4.45592  -3.84892   0.97571 
 C                    -5.79871  -4.14859   1.13714 
 H                    -7.08584  -1.06498   0.57541 
 H                    -2.99978  -2.32462   0.57667 
 H                    -7.79475  -3.36103   1.1174 
 H                    -3.70742  -4.62708   1.08827 
 H                    -6.11071  -5.16122   1.36994 
 C                    -5.22846   0.87291   0.85935 
 C                    -5.54818   0.82477   2.2126 
 C                    -5.54192   2.01493   0.12913 
 C                    -6.17805   1.89709   2.81802 
 C                    -6.15512   3.09024   0.74651 
 C                    -6.48119   3.03723   2.09175 
 H                    -5.30093  -0.06162   2.78718 
 H                    -5.29956   2.05613  -0.92758 
 H                    -6.42172   1.84431   3.87453 
 H                    -6.3907    3.97529   0.16388 
 H                    -6.96763   3.87989   2.57161 
 
 ITRead=  0  0  0  0  0  0  0  0  0  0  0  0  0  0  0  0  0  0  0  0
 ITRead=  0  0  0  0  0  0  0  0  0  0  0  0  0  0  0  0  0  0  0  0
 ITRead=  0  0  0  0  0  0  0  0  0  0  0  0  0  0  0  0  0  0  0  0
 ITRead=  0  0  0  0  0  0  0  0
 MicOpt= -1 -1 -1 -1 -1 -1 -1 -1 -1 -1 -1 -1 -1 -1 -1 -1 -1 -1 -1 -1
 MicOpt= -1 -1 -1 -1 -1 -1 -1 -1 -1 -1 -1 -1 -1 -1 -1 -1 -1 -1 -1 -1
 MicOpt= -1 -1 -1 -1 -1 -1 -1 -1 -1 -1 -1 -1 -1 -1 -1 -1 -1 -1 -1 -1
 MicOpt= -1 -1 -1 -1 -1 -1 -1 -1
 NAtoms=     68 NQM=       68 NQMF=       0 NMMI=      0 NMMIF=      0
                NMic=       0 NMicF=      0.
                    Isotopes and Nuclear Properties:
 (Nuclear quadrupole moments (NQMom) in fm**2, nuclear magnetic moments (NMagM)
  in nuclear magnetons)

  Atom         1           2           3           4           5           6           7           8           9          10
 IAtWgt=          12          12          32          12          12          12          12          12           1          12
 AtmWgt=  12.0000000  12.0000000  31.9720718  12.0000000  12.0000000  12.0000000  12.0000000  12.0000000   1.0078250  12.0000000
 NucSpn=           0           0           0           0           0           0           0           0           1           0
 AtZEff=  -0.0000000  -0.0000000  -0.0000000  -0.0000000  -0.0000000  -0.0000000  -0.0000000  -0.0000000  -0.0000000  -0.0000000
 NQMom=    0.0000000   0.0000000   0.0000000   0.0000000   0.0000000   0.0000000   0.0000000   0.0000000   0.0000000   0.0000000
 NMagM=    0.0000000   0.0000000   0.0000000   0.0000000   0.0000000   0.0000000   0.0000000   0.0000000   2.7928460   0.0000000
 AtZNuc=   6.0000000   6.0000000  16.0000000   6.0000000   6.0000000   6.0000000   6.0000000   6.0000000   1.0000000   6.0000000

  Atom        11          12          13          14          15          16          17          18          19          20
 IAtWgt=          12          12          12           1           1           1          12           1           1           1
 AtmWgt=  12.0000000  12.0000000  12.0000000   1.0078250   1.0078250   1.0078250  12.0000000   1.0078250   1.0078250   1.0078250
 NucSpn=           0           0           0           1           1           1           0           1           1           1
 AtZEff=  -0.0000000  -0.0000000  -0.0000000  -0.0000000  -0.0000000  -0.0000000  -0.0000000  -0.0000000  -0.0000000  -0.0000000
 NQMom=    0.0000000   0.0000000   0.0000000   0.0000000   0.0000000   0.0000000   0.0000000   0.0000000   0.0000000   0.0000000
 NMagM=    0.0000000   0.0000000   0.0000000   2.7928460   2.7928460   2.7928460   0.0000000   2.7928460   2.7928460   2.7928460
 AtZNuc=   6.0000000   6.0000000   6.0000000   1.0000000   1.0000000   1.0000000   6.0000000   1.0000000   1.0000000   1.0000000

  Atom        21          22          23          24          25          26          27          28          29          30
 IAtWgt=           1          32          14          12          12          12          12          12          12           1
 AtmWgt=   1.0078250  31.9720718  14.0030740  12.0000000  12.0000000  12.0000000  12.0000000  12.0000000  12.0000000   1.0078250
 NucSpn=           1           0           2           0           0           0           0           0           0           1
 AtZEff=  -0.0000000  -0.0000000  -0.0000000  -0.0000000  -0.0000000  -0.0000000  -0.0000000  -0.0000000  -0.0000000  -0.0000000
 NQMom=    0.0000000   0.0000000   2.0440000   0.0000000   0.0000000   0.0000000   0.0000000   0.0000000   0.0000000   0.0000000
 NMagM=    2.7928460   0.0000000   0.4037610   0.0000000   0.0000000   0.0000000   0.0000000   0.0000000   0.0000000   2.7928460
 AtZNuc=   1.0000000  16.0000000   7.0000000   6.0000000   6.0000000   6.0000000   6.0000000   6.0000000   6.0000000   1.0000000

  Atom        31          32          33          34          35          36          37          38          39          40
 IAtWgt=           1           1           1           1          12          12          12          12          12          12
 AtmWgt=   1.0078250   1.0078250   1.0078250   1.0078250  12.0000000  12.0000000  12.0000000  12.0000000  12.0000000  12.0000000
 NucSpn=           1           1           1           1           0           0           0           0           0           0
 AtZEff=  -0.0000000  -0.0000000  -0.0000000  -0.0000000  -0.0000000  -0.0000000  -0.0000000  -0.0000000  -0.0000000  -0.0000000
 NQMom=    0.0000000   0.0000000   0.0000000   0.0000000   0.0000000   0.0000000   0.0000000   0.0000000   0.0000000   0.0000000
 NMagM=    2.7928460   2.7928460   2.7928460   2.7928460   0.0000000   0.0000000   0.0000000   0.0000000   0.0000000   0.0000000
 AtZNuc=   1.0000000   1.0000000   1.0000000   1.0000000   6.0000000   6.0000000   6.0000000   6.0000000   6.0000000   6.0000000

  Atom        41          42          43          44          45          46          47          48          49          50
 IAtWgt=           1           1           1           1           1          14          12          12          12          12
 AtmWgt=   1.0078250   1.0078250   1.0078250   1.0078250   1.0078250  14.0030740  12.0000000  12.0000000  12.0000000  12.0000000
 NucSpn=           1           1           1           1           1           2           0           0           0           0
 AtZEff=  -0.0000000  -0.0000000  -0.0000000  -0.0000000  -0.0000000  -0.0000000  -0.0000000  -0.0000000  -0.0000000  -0.0000000
 NQMom=    0.0000000   0.0000000   0.0000000   0.0000000   0.0000000   2.0440000   0.0000000   0.0000000   0.0000000   0.0000000
 NMagM=    2.7928460   2.7928460   2.7928460   2.7928460   2.7928460   0.4037610   0.0000000   0.0000000   0.0000000   0.0000000
 AtZNuc=   1.0000000   1.0000000   1.0000000   1.0000000   1.0000000   7.0000000   6.0000000   6.0000000   6.0000000   6.0000000

  Atom        51          52          53          54          55          56          57          58          59          60
 IAtWgt=          12          12           1           1           1           1           1          12          12          12
 AtmWgt=  12.0000000  12.0000000   1.0078250   1.0078250   1.0078250   1.0078250   1.0078250  12.0000000  12.0000000  12.0000000
 NucSpn=           0           0           1           1           1           1           1           0           0           0
 AtZEff=  -0.0000000  -0.0000000  -0.0000000  -0.0000000  -0.0000000  -0.0000000  -0.0000000  -0.0000000  -0.0000000  -0.0000000
 NQMom=    0.0000000   0.0000000   0.0000000   0.0000000   0.0000000   0.0000000   0.0000000   0.0000000   0.0000000   0.0000000
 NMagM=    0.0000000   0.0000000   2.7928460   2.7928460   2.7928460   2.7928460   2.7928460   0.0000000   0.0000000   0.0000000
 AtZNuc=   6.0000000   6.0000000   1.0000000   1.0000000   1.0000000   1.0000000   1.0000000   6.0000000   6.0000000   6.0000000

  Atom        61          62          63          64          65          66          67          68
 IAtWgt=          12          12          12           1           1           1           1           1
 AtmWgt=  12.0000000  12.0000000  12.0000000   1.0078250   1.0078250   1.0078250   1.0078250   1.0078250
 NucSpn=           0           0           0           1           1           1           1           1
 AtZEff=  -0.0000000  -0.0000000  -0.0000000  -0.0000000  -0.0000000  -0.0000000  -0.0000000  -0.0000000
 NQMom=    0.0000000   0.0000000   0.0000000   0.0000000   0.0000000   0.0000000   0.0000000   0.0000000
 NMagM=    0.0000000   0.0000000   0.0000000   2.7928460   2.7928460   2.7928460   2.7928460   2.7928460
 AtZNuc=   6.0000000   6.0000000   6.0000000   1.0000000   1.0000000   1.0000000   1.0000000   1.0000000
 Leave Link  101 at Wed Jan 27 08:40:18 2021, MaxMem=  4026531840 cpu:               0.8 elap:               0.1
 (Enter /opt/ohpc/pub/libs/gaussian/g16-A.03/sandybridge/g16/l202.exe)
 Stoichiometry    C36H28N2S2
 Framework group  C1[X(C36H28N2S2)]
 Deg. of freedom   198
 Full point group                 C1      NOp   1
 Largest Abelian subgroup         C1      NOp   1
 Largest concise Abelian subgroup C1      NOp   1
                         Standard orientation:                         
 ---------------------------------------------------------------------
 Center     Atomic      Atomic             Coordinates (Angstroms)
 Number     Number       Type             X           Y           Z
 ---------------------------------------------------------------------
      1          6           0       -2.604951   -0.985352    0.477595
      2          6           0       -1.595468   -1.227646    1.396897
      3         16           0       -0.459746   -2.557842    1.073663
      4          6           0       -1.509976   -0.467226    2.564163
      5          6           0        1.043777   -0.455726    0.021717
      6          6           0        1.038330   -1.682104    0.668307
      7          6           0       -3.557585    0.001751    0.697168
      8          6           0       -2.447111    0.539154    2.764444
      9          1           0       -0.596318    0.142670    4.605045
     10          6           0        2.238728    0.147647   -0.319798
     11          6           0        2.246539   -2.297832    0.961919
     12          6           0        3.442101   -1.694718    0.621166
     13          6           0        3.453096   -0.462920   -0.023837
     14          1           0        2.234263    1.106243   -0.827797
     15          1           0        2.253931   -3.248348    1.486346
     16          1           0        4.381679   -2.178238    0.866461
     17          6           0       -3.461673    0.764082    1.856276
     18          1           0       -2.646669   -1.585519   -0.424718
     19          1           0        0.106936    0.032641   -0.224382
     20          1           0       -2.404245    1.146243    3.663282
     21          1           0       -4.192893    1.542008    2.047877
     22         16           0       -0.233558   -0.817463    3.737465
     23          7           0        4.673686    0.159547   -0.368747
     24          6           0        5.732508   -0.612661   -0.896564
     25          6           0        7.045695   -0.377960   -0.499452
     26          6           0        5.475865   -1.622329   -1.819567
     27          6           0        8.078745   -1.133154   -1.024558
     28          6           0        6.512871   -2.384632   -2.326214
     29          6           0        7.820306   -2.143178   -1.936900
     30          1           0        7.251646    0.403669    0.224060
     31          1           0        4.454830   -1.807304   -2.136118
     32          1           0        9.097402   -0.936530   -0.704866
     33          1           0        6.295127   -3.169013   -3.044416
     34          1           0        8.632202   -2.738403   -2.341339
     35          6           0        4.837054    1.548147   -0.168533
     36          6           0        5.516065    2.321618   -1.105787
     37          6           0        4.319017    2.163542    0.967486
     38          6           0        5.679987    3.679833   -0.902534
     39          6           0        4.472338    3.525567    1.154010
     40          6           0        5.156657    4.292005    0.224805
     41          1           0        5.917204    1.848815   -1.995947
     42          1           0        3.791670    1.566068    1.703651
     43          1           0        6.213214    4.268058   -1.642948
     44          1           0        4.061647    3.989730    2.045325
     45          1           0        5.281223    5.358830    0.377899
     46          7           0       -4.591369    0.225236   -0.235572
     47          6           0       -4.996809    1.544618   -0.539366
     48          6           0       -6.345932    1.849462   -0.693639
     49          6           0       -4.053605    2.557013   -0.688173
     50          6           0       -6.738551    3.140118   -0.998819
     51          6           0       -4.455920    3.848924   -0.975713
     52          6           0       -5.798707    4.148587   -1.137139
     53          1           0       -7.085839    1.064984   -0.575406
     54          1           0       -2.999778    2.324624   -0.576668
     55          1           0       -7.794748    3.361033   -1.117399
     56          1           0       -3.707423    4.627077   -1.088273
     57          1           0       -6.110711    5.161215   -1.369943
     58          6           0       -5.228462   -0.872905   -0.859345
     59          6           0       -5.548183   -0.824769   -2.212595
     60          6           0       -5.541916   -2.014931   -0.129127
     61          6           0       -6.178047   -1.897088   -2.818017
     62          6           0       -6.155123   -3.090236   -0.746513
     63          6           0       -6.481192   -3.037227   -2.091754
     64          1           0       -5.300925    0.061617   -2.787177
     65          1           0       -5.299559   -2.056134    0.927579
     66          1           0       -6.421719   -1.844307   -3.874525
     67          1           0       -6.390696   -3.975287   -0.163884
     68          1           0       -6.967632   -3.879890   -2.571608
 ---------------------------------------------------------------------
 Rotational constants (GHZ):           0.1314912           0.0372042           0.0344004
 Leave Link  202 at Wed Jan 27 08:40:18 2021, MaxMem=  4026531840 cpu:               0.2 elap:               0.0
 (Enter /opt/ohpc/pub/libs/gaussian/g16-A.03/sandybridge/g16/l301.exe)
 Standard basis: TZVP (5D, 7F)
 Ernie: Thresh=  0.10000D-02 Tol=  0.10000D-05 Strict=F.
 There are   974 symmetry adapted cartesian basis functions of A   symmetry.
 There are   934 symmetry adapted basis functions of A   symmetry.
   934 basis functions,  1648 primitive gaussians,   974 cartesian basis functions
   145 alpha electrons      145 beta electrons
       nuclear repulsion energy      4395.1421619507 Hartrees.
 IExCor=33909 DFT=T Ex+Corr=LC-wHPBE ExCW=0 ScaHFX=  1.000000
 ScaDFX=  1.000000  1.000000  1.000000  1.000000 ScalE2=  1.000000  1.000000
 IRadAn=      5 IRanWt=     -1 IRanGd=            0 ICorTp=0 IEmpDi=  4
 HFx  wShort=  0.000000 wLong=  0.221900 cFull=  0.000000 cShort=  0.000000 cLong=  1.000000
 DFx  wShort=  0.000000 wLong=  0.221900 cFull=  0.000000 cShort=  1.000000 cLong=  0.000000
 NAtoms=   68 NActive=   68 NUniq=   68 SFac= 1.00D+00 NAtFMM=   60 NAOKFM=T Big=T
 Integral buffers will be    131072 words long.
 Raffenetti 2 integral format.
 Two-electron integral symmetry is turned on.
 Leave Link  301 at Wed Jan 27 08:40:18 2021, MaxMem=  4026531840 cpu:               0.5 elap:               0.1
 (Enter /opt/ohpc/pub/libs/gaussian/g16-A.03/sandybridge/g16/l302.exe)
 NPDir=0 NMtPBC=     1 NCelOv=     1 NCel=       1 NClECP=     1 NCelD=      1
         NCelK=      1 NCelE2=     1 NClLst=     1 CellRange=     0.0.
 One-electron integrals computed using PRISM.
 One-electron integral symmetry used in STVInt
 NBasis=   934 RedAO= T EigKep=  5.84D-06  NBF=   934
 NBsUse=   934 1.00D-06 EigRej= -1.00D+00 NBFU=   934
 Precomputing XC quadrature grid using
 IXCGrd= 4 IRadAn=           5 IRanWt=          -1 IRanGd=           0 AccXCQ= 0.00D+00.
 Generated NRdTot=       0 NPtTot=           0 NUsed=           0 NTot=          32
 NSgBfM=   919   919   919   919   919 MxSgAt=    68 MxSgA2=    68.
 Leave Link  302 at Wed Jan 27 08:40:21 2021, MaxMem=  4026531840 cpu:              25.8 elap:               3.3
 (Enter /opt/ohpc/pub/libs/gaussian/g16-A.03/sandybridge/g16/l303.exe)
 DipDrv:  MaxL=1.
 Leave Link  303 at Wed Jan 27 08:40:21 2021, MaxMem=  4026531840 cpu:               1.8 elap:               0.3
 (Enter /opt/ohpc/pub/libs/gaussian/g16-A.03/sandybridge/g16/l401.exe)
 ExpMin= 9.52D-02 ExpMax= 6.07D+04 ExpMxC= 2.07D+03 IAcc=3 IRadAn=         5 AccDes= 0.00D+00
 Harris functional with IExCor=33909 and IRadAn=       5 diagonalized for initial guess.
 HarFok:  IExCor=33909 AccDes= 0.00D+00 IRadAn=         5 IDoV= 1 UseB2=F ITyADJ=14
 ICtDFT=  3500011 ScaDFX=  1.000000  1.000000  1.000000  1.000000
 FoFCou: FMM=F IPFlag=           0 FMFlag=      100000 FMFlg1=        2001
         NFxFlg=           0 DoJE=T BraDBF=F KetDBF=T FulRan=T
         wScrn=  0.000000 ICntrl=       500 IOpCl=  0 I1Cent=   200000004 NGrid=           0
         NMat0=    1 NMatS0=      1 NMatT0=    0 NMatD0=    1 NMtDS0=    0 NMtDT0=    0
 Petite list used in FoFCou.
 Harris En= -2259.31425017840    
 JPrj=0 DoOrth=F DoCkMO=F.
 Leave Link  401 at Wed Jan 27 08:40:37 2021, MaxMem=  4026531840 cpu:             122.2 elap:              15.7
 (Enter /opt/ohpc/pub/libs/gaussian/g16-A.03/sandybridge/g16/l502.exe)
 Integral symmetry usage will be decided dynamically.
 Closed shell SCF:
 Using DIIS extrapolation, IDIIS=    10.
 NGot=  4026531840 LenX=  4024617300 LenY=  4023667650
 Requested convergence on RMS density matrix=1.00D-06 within  32 cycles.
 Requested convergence on MAX density matrix=1.00D-04.
 Requested convergence on             energy=1.00D-04.
 Virtual orbitals will be shifted by   0.500 hartree.
 No special actions if energy rises.
 Dynamic level shift is on during FON iterations.

 Cycle   1  Pass 1  IDiag  1:
 FoFJK:  IHMeth= 1 ICntrl=       0 DoSepK=T KAlg= 0 I1Cent=           0 FoldK=F
 IRaf=         1 NMat=       1 IRICut=       1 DoRegI=T DoRafI=F ISym2E= 0 IDoP0=0 IntGTp=1.
 FoFCou: FMM=T IPFlag=           0 FMFlag=      100000 FMFlg1=        2001
         NFxFlg=           0 DoJE=T BraDBF=F KetDBF=F FulRan=T
         wScrn=  0.000000 ICntrl=       500 IOpCl=  0 I1Cent=           0 NGrid=           0
         NMat0=    1 NMatS0=      1 NMatT0=    0 NMatD0=    1 NMtDS0=    0 NMtDT0=    0
 Symmetry not used in FoFCou.
 FMM levels:  10  Number of levels for PrismC:   9
 E= -2292.70473027807    
 DIIS: error= 3.09D-02 at cycle   1 NSaved=   1.
 NSaved= 1 IEnMin= 1 EnMin= -2292.70473027807     IErMin= 1 ErrMin= 3.09D-02
 ErrMax= 3.09D-02  0.00D+00 EMaxC= 1.00D+00 BMatC= 7.07D-01 BMatP= 7.07D-01
 IDIUse=1 WtCom= 1.00D+00 WtEn= 0.00D+00
 Coeff-Com:  0.100D+01
 Coeff:      0.100D+01
 Gap=     0.411 Goal=   None    Shift=    0.500
 T= 1513. Gap= 0.712 NK=0 IS=  146 IE=  934 IFin=  145
          NO(<0.9)=   0  NV(>0.1)=   0    145.00e < EF      0.00e >EF  Err=0.0D+00
 GapD=    0.411 DampG=2.000 DampE=0.500 DampFc=1.0000 IDamp=-1.
 RMSDP=2.37D-03 MaxDP=2.15D-01              OVMax= 8.07D-02

 Cycle   2  Pass 1  IDiag  1:
 E= -2293.34056503332     Delta-E=       -0.635834755247 Rises=F Damp=F
 DIIS: error= 7.29D-03 at cycle   2 NSaved=   2.
 NSaved= 2 IEnMin= 2 EnMin= -2293.34056503332     IErMin= 2 ErrMin= 7.29D-03
 ErrMax= 7.29D-03  0.00D+00 EMaxC= 1.00D+00 BMatC= 8.31D-02 BMatP= 7.07D-01
 IDIUse=1 WtCom= 1.00D+00 WtEn= 0.00D+00
 Coeff-Com:  0.220D+00 0.780D+00
 Coeff:      0.220D+00 0.780D+00
 Gap=     0.305 Goal=   None    Shift=    0.500
 T= 1337. Gap= 0.749 NK=0 IS=  146 IE=  934 IFin=  145
          NO(<0.9)=   0  NV(>0.1)=   0    145.00e < EF      0.00e >EF  Err=0.0D+00
 GapD=    0.305 DampG=1.000 DampE=1.000 DampFc=1.0000 IDamp=-1.
 RMSDP=8.13D-04 MaxDP=9.66D-02 DE=-6.36D-01 OVMax= 1.94D-02

 Cycle   3  Pass 1  IDiag  1:
 E= -2293.39894099694     Delta-E=       -0.058375963623 Rises=F Damp=F
 DIIS: error= 2.00D-03 at cycle   3 NSaved=   3.
 NSaved= 3 IEnMin= 3 EnMin= -2293.39894099694     IErMin= 3 ErrMin= 2.00D-03
 ErrMax= 2.00D-03  0.00D+00 EMaxC= 1.00D+00 BMatC= 6.12D-03 BMatP= 8.31D-02
 IDIUse=1 WtCom= 1.00D+00 WtEn= 0.00D+00
 Coeff-Com:  0.675D-01 0.111D-01 0.921D+00
 Coeff:      0.675D-01 0.111D-01 0.921D+00
 Gap=     0.271 Goal=   None    Shift=    0.500
 T= 1012. Gap= 0.768 NK=0 IS=  146 IE=  934 IFin=  145
          NO(<0.9)=   0  NV(>0.1)=   0    145.00e < EF      0.00e >EF  Err=0.0D+00
 GapD=    0.271 DampG=1.000 DampE=1.000 DampFc=1.0000 IDamp=-1.
 RMSDP=3.06D-04 MaxDP=4.42D-02 DE=-5.84D-02 OVMax= 1.24D-02

 Cycle   4  Pass 1  IDiag  1:
 E= -2293.40518842939     Delta-E=       -0.006247432448 Rises=F Damp=F
 DIIS: error= 1.03D-03 at cycle   4 NSaved=   4.
 NSaved= 4 IEnMin= 4 EnMin= -2293.40518842939     IErMin= 4 ErrMin= 1.03D-03
 ErrMax= 1.03D-03  0.00D+00 EMaxC= 1.00D+00 BMatC= 1.00D-03 BMatP= 6.12D-03
 IDIUse=1 WtCom= 1.00D+00 WtEn= 0.00D+00
 Coeff-Com:  0.123D-01-0.647D-01 0.625D-01 0.990D+00
 Coeff:      0.123D-01-0.647D-01 0.625D-01 0.990D+00
 Gap=     0.267 Goal=   None    Shift=    0.500
 T=  197. Gap= 0.767 NK=0 IS=  146 IE=  934 IFin=  145
          NO(<0.9)=   0  NV(>0.1)=   0    145.00e < EF      0.00e >EF  Err=0.0D+00
 GapD=    0.267 DampG=1.000 DampE=1.000 DampFc=1.0000 IDamp=-1.
 RMSDP=1.59D-04 MaxDP=1.69D-02 DE=-6.25D-03 OVMax= 7.45D-03

 Cycle   5  Pass 1  IDiag  1:
 E= -2293.40671082899     Delta-E=       -0.001522399603 Rises=F Damp=F
 DIIS: error= 8.62D-04 at cycle   5 NSaved=   5.
 NSaved= 5 IEnMin= 5 EnMin= -2293.40671082899     IErMin= 5 ErrMin= 8.62D-04
 ErrMax= 8.62D-04  0.00D+00 EMaxC= 1.00D+00 BMatC= 1.86D-04 BMatP= 1.00D-03
 IDIUse=1 WtCom= 1.00D+00 WtEn= 0.00D+00
 Coeff-Com: -0.552D-02-0.103D-01-0.940D-01-0.228D+00 0.134D+01
 Coeff:     -0.552D-02-0.103D-01-0.940D-01-0.228D+00 0.134D+01
 Gap=     0.268 Goal=   None    Shift=    0.500
 RMSDP=1.11D-04 MaxDP=9.25D-03 DE=-1.52D-03 OVMax= 6.38D-03

 Cycle   6  Pass 1  IDiag  1:
 E= -2293.40727934762     Delta-E=       -0.000568518627 Rises=F Damp=F
 DIIS: error= 6.43D-04 at cycle   6 NSaved=   6.
 NSaved= 6 IEnMin= 6 EnMin= -2293.40727934762     IErMin= 6 ErrMin= 6.43D-04
 ErrMax= 6.43D-04  0.00D+00 EMaxC= 1.00D+00 BMatC= 6.40D-05 BMatP= 1.86D-04
 IDIUse=1 WtCom= 1.00D+00 WtEn= 0.00D+00
 Coeff-Com: -0.572D-02 0.122D-01-0.358D-01-0.270D+00-0.184D+00 0.148D+01
 Coeff:     -0.572D-02 0.122D-01-0.358D-01-0.270D+00-0.184D+00 0.148D+01
 Gap=     0.269 Goal=   None    Shift=    0.500
 RMSDP=7.09D-05 MaxDP=5.81D-03 DE=-5.69D-04 OVMax= 5.23D-03

 Cycle   7  Pass 1  IDiag  1:
 E= -2293.40755507645     Delta-E=       -0.000275728824 Rises=F Damp=F
 DIIS: error= 4.63D-04 at cycle   7 NSaved=   7.
 NSaved= 7 IEnMin= 7 EnMin= -2293.40755507645     IErMin= 7 ErrMin= 4.63D-04
 ErrMax= 4.63D-04  0.00D+00 EMaxC= 1.00D+00 BMatC= 2.70D-05 BMatP= 6.40D-05
 IDIUse=1 WtCom= 1.00D+00 WtEn= 0.00D+00
 Coeff-Com: -0.126D-02 0.589D-02 0.210D-01 0.199D-01-0.611D+00-0.186D+00
 Coeff-Com:  0.175D+01
 Coeff:     -0.126D-02 0.589D-02 0.210D-01 0.199D-01-0.611D+00-0.186D+00
 Coeff:      0.175D+01
 Gap=     0.269 Goal=   None    Shift=    0.500
 RMSDP=4.71D-05 MaxDP=4.82D-03 DE=-2.76D-04 OVMax= 4.11D-03

 Cycle   8  Pass 1  IDiag  1:
 E= -2293.40769439127     Delta-E=       -0.000139314821 Rises=F Damp=F
 DIIS: error= 3.28D-04 at cycle   8 NSaved=   8.
 NSaved= 8 IEnMin= 8 EnMin= -2293.40769439127     IErMin= 8 ErrMin= 3.28D-04
 ErrMax= 3.28D-04  0.00D+00 EMaxC= 1.00D+00 BMatC= 1.14D-05 BMatP= 2.70D-05
 IDIUse=1 WtCom= 1.00D+00 WtEn= 0.00D+00
 Coeff-Com:  0.749D-03-0.166D-02 0.521D-02 0.120D+00-0.846D-01-0.664D+00
 Coeff-Com: -0.329D+00 0.195D+01
 Coeff:      0.749D-03-0.166D-02 0.521D-02 0.120D+00-0.846D-01-0.664D+00
 Coeff:     -0.329D+00 0.195D+01
 Gap=     0.269 Goal=   None    Shift=    0.500
 RMSDP=3.01D-05 MaxDP=3.20D-03 DE=-1.39D-04 OVMax= 3.08D-03

 Cycle   9  Pass 1  IDiag  1:
 E= -2293.40775781236     Delta-E=       -0.000063421090 Rises=F Damp=F
 DIIS: error= 2.22D-04 at cycle   9 NSaved=   9.
 NSaved= 9 IEnMin= 9 EnMin= -2293.40775781236     IErMin= 9 ErrMin= 2.22D-04
 ErrMax= 2.22D-04  0.00D+00 EMaxC= 1.00D+00 BMatC= 4.96D-06 BMatP= 1.14D-05
 IDIUse=1 WtCom= 1.00D+00 WtEn= 0.00D+00
 Coeff-Com:  0.354D-03-0.151D-02-0.127D-01 0.564D-01 0.166D+00-0.305D+00
 Coeff-Com: -0.728D+00 0.180D+00 0.164D+01
 Coeff:      0.354D-03-0.151D-02-0.127D-01 0.564D-01 0.166D+00-0.305D+00
 Coeff:     -0.728D+00 0.180D+00 0.164D+01
 Gap=     0.269 Goal=   None    Shift=    0.500
 RMSDP=1.82D-05 MaxDP=1.90D-03 DE=-6.34D-05 OVMax= 2.13D-03

 Cycle  10  Pass 1  IDiag  1:
 E= -2293.40778512591     Delta-E=       -0.000027313549 Rises=F Damp=F
 DIIS: error= 1.52D-04 at cycle  10 NSaved=  10.
 NSaved=10 IEnMin=10 EnMin= -2293.40778512591     IErMin=10 ErrMin= 1.52D-04
 ErrMax= 1.52D-04  0.00D+00 EMaxC= 1.00D+00 BMatC= 2.03D-06 BMatP= 4.96D-06
 IDIUse=1 WtCom= 1.00D+00 WtEn= 0.00D+00
 Coeff-Com: -0.217D-03 0.927D-03-0.684D-02-0.129D-01 0.375D-01 0.127D+00
 Coeff-Com: -0.324D-01-0.793D+00-0.406D+00 0.209D+01
 Coeff:     -0.217D-03 0.927D-03-0.684D-02-0.129D-01 0.375D-01 0.127D+00
 Coeff:     -0.324D-01-0.793D+00-0.406D+00 0.209D+01
 Gap=     0.269 Goal=   None    Shift=    0.500
 RMSDP=1.28D-05 MaxDP=1.70D-03 DE=-2.73D-05 OVMax= 1.48D-03

 Cycle  11  Pass 1  IDiag  1:
 E= -2293.40779650503     Delta-E=       -0.000011379126 Rises=F Damp=F
 DIIS: error= 1.01D-04 at cycle  11 NSaved=  11.
 NSaved=11 IEnMin=11 EnMin= -2293.40779650503     IErMin=11 ErrMin= 1.01D-04
 ErrMax= 1.01D-04  0.00D+00 EMaxC= 1.00D+00 BMatC= 8.94D-07 BMatP= 2.03D-06
 IDIUse=1 WtCom= 1.00D+00 WtEn= 0.00D+00
 Coeff-Com: -0.210D-03 0.104D-02 0.901D-03-0.159D-01-0.430D-01 0.142D+00
 Coeff-Com:  0.194D+00-0.416D+00-0.859D+00 0.458D+00 0.154D+01
 Coeff:     -0.210D-03 0.104D-02 0.901D-03-0.159D-01-0.430D-01 0.142D+00
 Coeff:      0.194D+00-0.416D+00-0.859D+00 0.458D+00 0.154D+01
 Gap=     0.269 Goal=   None    Shift=    0.500
 RMSDP=8.01D-06 MaxDP=1.15D-03 DE=-1.14D-05 OVMax= 9.97D-04

 Cycle  12  Pass 1  IDiag  1:
 E= -2293.40780115012     Delta-E=       -0.000004645085 Rises=F Damp=F
 DIIS: error= 6.58D-05 at cycle  12 NSaved=  12.
 NSaved=12 IEnMin=12 EnMin= -2293.40780115012     IErMin=12 ErrMin= 6.58D-05
 ErrMax= 6.58D-05  0.00D+00 EMaxC= 1.00D+00 BMatC= 3.62D-07 BMatP= 8.94D-07
 IDIUse=1 WtCom= 1.00D+00 WtEn= 0.00D+00
 Coeff-Com: -0.511D-04 0.212D-03 0.250D-02-0.361D-03-0.294D-01 0.136D-01
 Coeff-Com:  0.657D-01 0.173D+00-0.350D+00-0.571D+00-0.286D+00 0.198D+01
 Coeff:     -0.511D-04 0.212D-03 0.250D-02-0.361D-03-0.294D-01 0.136D-01
 Coeff:      0.657D-01 0.173D+00-0.350D+00-0.571D+00-0.286D+00 0.198D+01
 Gap=     0.269 Goal=   None    Shift=    0.500
 RMSDP=5.26D-06 MaxDP=8.91D-04 DE=-4.65D-06 OVMax= 6.61D-04

 Cycle  13  Pass 1  IDiag  1:
 E= -2293.40780301707     Delta-E=       -0.000001866953 Rises=F Damp=F
 DIIS: error= 4.43D-05 at cycle  13 NSaved=  13.
 NSaved=13 IEnMin=13 EnMin= -2293.40780301707     IErMin=13 ErrMin= 4.43D-05
 ErrMax= 4.43D-05  0.00D+00 EMaxC= 1.00D+00 BMatC= 1.68D-07 BMatP= 3.62D-07
 IDIUse=1 WtCom= 1.00D+00 WtEn= 0.00D+00
 Coeff-Com:  0.118D-04-0.175D-03 0.671D-04 0.514D-02 0.534D-02-0.348D-01
 Coeff-Com: -0.525D-01 0.228D+00 0.128D+00-0.364D+00-0.114D+01 0.533D+00
 Coeff-Com:  0.169D+01
 Coeff:      0.118D-04-0.175D-03 0.671D-04 0.514D-02 0.534D-02-0.348D-01
 Coeff:     -0.525D-01 0.228D+00 0.128D+00-0.364D+00-0.114D+01 0.533D+00
 Coeff:      0.169D+01
 Gap=     0.269 Goal=   None    Shift=    0.500
 RMSDP=3.13D-06 MaxDP=4.66D-04 DE=-1.87D-06 OVMax= 4.49D-04

 Cycle  14  Pass 1  IDiag  1:
 E= -2293.40780379536     Delta-E=       -0.000000778293 Rises=F Damp=F
 DIIS: error= 2.87D-05 at cycle  14 NSaved=  14.
 NSaved=14 IEnMin=14 EnMin= -2293.40780379536     IErMin=14 ErrMin= 2.87D-05
 ErrMax= 2.87D-05  0.00D+00 EMaxC= 1.00D+00 BMatC= 6.90D-08 BMatP= 1.68D-07
 IDIUse=1 WtCom= 1.00D+00 WtEn= 0.00D+00
 Coeff-Com:  0.296D-05-0.131D-03-0.828D-03 0.167D-02 0.996D-02-0.112D-01
 Coeff-Com: -0.412D-01 0.283D-01 0.157D+00 0.742D-01-0.594D+00-0.115D+00
 Coeff-Com: -0.653D+00 0.214D+01
 Coeff:      0.296D-05-0.131D-03-0.828D-03 0.167D-02 0.996D-02-0.112D-01
 Coeff:     -0.412D-01 0.283D-01 0.157D+00 0.742D-01-0.594D+00-0.115D+00
 Coeff:     -0.653D+00 0.214D+01
 Gap=     0.269 Goal=   None    Shift=    0.500
 RMSDP=1.89D-06 MaxDP=2.79D-04 DE=-7.78D-07 OVMax= 2.94D-04

 Cycle  15  Pass 1  IDiag  1:
 E= -2293.40780410649     Delta-E=       -0.000000311131 Rises=F Damp=F
 DIIS: error= 1.86D-05 at cycle  15 NSaved=  15.
 NSaved=15 IEnMin=15 EnMin= -2293.40780410649     IErMin=15 ErrMin= 1.86D-05
 ErrMax= 1.86D-05  0.00D+00 EMaxC= 1.00D+00 BMatC= 2.92D-08 BMatP= 6.90D-08
 IDIUse=1 WtCom= 1.00D+00 WtEn= 0.00D+00
 Coeff-Com: -0.108D-04-0.394D-04-0.179D-03-0.168D-02 0.251D-02 0.940D-02
 Coeff-Com: -0.186D-02-0.559D-01 0.247D-01 0.144D+00 0.347D-01-0.744D-01
 Coeff-Com: -0.132D+01 0.569D+00 0.167D+01
 Coeff:     -0.108D-04-0.394D-04-0.179D-03-0.168D-02 0.251D-02 0.940D-02
 Coeff:     -0.186D-02-0.559D-01 0.247D-01 0.144D+00 0.347D-01-0.744D-01
 Coeff:     -0.132D+01 0.569D+00 0.167D+01
 Gap=     0.269 Goal=   None    Shift=    0.500
 RMSDP=1.11D-06 MaxDP=1.53D-04 DE=-3.11D-07 OVMax= 1.93D-04

 Cycle  16  Pass 1  IDiag  1:
 E= -2293.40780423195     Delta-E=       -0.000000125460 Rises=F Damp=F
 DIIS: error= 1.19D-05 at cycle  16 NSaved=  16.
 NSaved=16 IEnMin=16 EnMin= -2293.40780423195     IErMin=16 ErrMin= 1.19D-05
 ErrMax= 1.19D-05  0.00D+00 EMaxC= 1.00D+00 BMatC= 1.23D-08 BMatP= 2.92D-08
 IDIUse=1 WtCom= 1.00D+00 WtEn= 0.00D+00
 Coeff-Com: -0.979D-05 0.112D-04 0.346D-03-0.185D-02-0.203D-02 0.952D-02
 Coeff-Com:  0.136D-01-0.345D-01-0.477D-01 0.458D-01 0.222D+00 0.518D-01
 Coeff-Com: -0.659D+00-0.416D+00 0.134D-01 0.181D+01
 Coeff:     -0.979D-05 0.112D-04 0.346D-03-0.185D-02-0.203D-02 0.952D-02
 Coeff:      0.136D-01-0.345D-01-0.477D-01 0.458D-01 0.222D+00 0.518D-01
 Coeff:     -0.659D+00-0.416D+00 0.134D-01 0.181D+01
 Gap=     0.269 Goal=   None    Shift=    0.500
 RMSDP=6.47D-07 MaxDP=7.09D-05 DE=-1.25D-07 OVMax= 1.26D-04

 SCF Done:  E(RLC-wHPBE) =  -2293.40780423     A.U. after   16 cycles
            NFock= 16  Conv=0.65D-06     -V/T= 2.0039
 KE= 2.284546797251D+03 PE=-1.415963856980D+04 EE= 5.186541806368D+03
 Leave Link  502 at Wed Jan 27 09:11:49 2021, MaxMem=  4026531840 cpu:           14808.2 elap:            1871.8
 (Enter /opt/ohpc/pub/libs/gaussian/g16-A.03/sandybridge/g16/l508.exe)
 QCSCF skips out because SCF is already converged.
 Leave Link  508 at Wed Jan 27 09:11:49 2021, MaxMem=  4026531840 cpu:               0.1 elap:               0.0
 (Enter /opt/ohpc/pub/libs/gaussian/g16-A.03/sandybridge/g16/l601.exe)
 Copying SCF densities to generalized density rwf, IOpCl= 0 IROHF=0.

 **********************************************************************

            Population analysis using the SCF density.

 **********************************************************************

 Orbital symmetries:
       Occupied  (A) (A) (A) (A) (A) (A) (A) (A) (A) (A) (A) (A)
                 (A) (A) (A) (A) (A) (A) (A) (A) (A) (A) (A) (A)
                 (A) (A) (A) (A) (A) (A) (A) (A) (A) (A) (A) (A)
                 (A) (A) (A) (A) (A) (A) (A) (A) (A) (A) (A) (A)
                 (A) (A) (A) (A) (A) (A) (A) (A) (A) (A) (A) (A)
                 (A) (A) (A) (A) (A) (A) (A) (A) (A) (A) (A) (A)
                 (A) (A) (A) (A) (A) (A) (A) (A) (A) (A) (A) (A)
                 (A) (A) (A) (A) (A) (A) (A) (A) (A) (A) (A) (A)
                 (A) (A) (A) (A) (A) (A) (A) (A) (A) (A) (A) (A)
                 (A) (A) (A) (A) (A) (A) (A) (A) (A) (A) (A) (A)
                 (A) (A) (A) (A) (A) (A) (A) (A) (A) (A) (A) (A)
                 (A) (A) (A) (A) (A) (A) (A) (A) (A) (A) (A) (A)
                 (A)
       Virtual   (A) (A) (A) (A) (A) (A) (A) (A) (A) (A) (A) (A)
                 (A) (A) (A) (A) (A) (A) (A) (A) (A) (A) (A) (A)
                 (A) (A) (A) (A) (A) (A) (A) (A) (A) (A) (A) (A)
                 (A) (A) (A) (A) (A) (A) (A) (A) (A) (A) (A) (A)
                 (A) (A) (A) (A) (A) (A) (A) (A) (A) (A) (A) (A)
                 (A) (A) (A) (A) (A) (A) (A) (A) (A) (A) (A) (A)
                 (A) (A) (A) (A) (A) (A) (A) (A) (A) (A) (A) (A)
                 (A) (A) (A) (A) (A) (A) (A) (A) (A) (A) (A) (A)
                 (A) (A) (A) (A) (A) (A) (A) (A) (A) (A) (A) (A)
                 (A) (A) (A) (A) (A) (A) (A) (A) (A) (A) (A) (A)
                 (A) (A) (A) (A) (A) (A) (A) (A) (A) (A) (A) (A)
                 (A) (A) (A) (A) (A) (A) (A) (A) (A) (A) (A) (A)
                 (A) (A) (A) (A) (A) (A) (A) (A) (A) (A) (A) (A)
                 (A) (A) (A) (A) (A) (A) (A) (A) (A) (A) (A) (A)
                 (A) (A) (A) (A) (A) (A) (A) (A) (A) (A) (A) (A)
                 (A) (A) (A) (A) (A) (A) (A) (A) (A) (A) (A) (A)
                 (A) (A) (A) (A) (A) (A) (A) (A) (A) (A) (A) (A)
                 (A) (A) (A) (A) (A) (A) (A) (A) (A) (A) (A) (A)
                 (A) (A) (A) (A) (A) (A) (A) (A) (A) (A) (A) (A)
                 (A) (A) (A) (A) (A) (A) (A) (A) (A) (A) (A) (A)
                 (A) (A) (A) (A) (A) (A) (A) (A) (A) (A) (A) (A)
                 (A) (A) (A) (A) (A) (A) (A) (A) (A) (A) (A) (A)
                 (A) (A) (A) (A) (A) (A) (A) (A) (A) (A) (A) (A)
                 (A) (A) (A) (A) (A) (A) (A) (A) (A) (A) (A) (A)
                 (A) (A) (A) (A) (A) (A) (A) (A) (A) (A) (A) (A)
                 (A) (A) (A) (A) (A) (A) (A) (A) (A) (A) (A) (A)
                 (A) (A) (A) (A) (A) (A) (A) (A) (A) (A) (A) (A)
                 (A) (A) (A) (A) (A) (A) (A) (A) (A) (A) (A) (A)
                 (A) (A) (A) (A) (A) (A) (A) (A) (A) (A) (A) (A)
                 (A) (A) (A) (A) (A) (A) (A) (A) (A) (A) (A) (A)
                 (A) (A) (A) (A) (A) (A) (A) (A) (A) (A) (A) (A)
                 (A) (A) (A) (A) (A) (A) (A) (A) (A) (A) (A) (A)
                 (A) (A) (A) (A) (A) (A) (A) (A) (A) (A) (A) (A)
                 (A) (A) (A) (A) (A) (A) (A) (A) (A) (A) (A) (A)
                 (A) (A) (A) (A) (A) (A) (A) (A) (A) (A) (A) (A)
                 (A) (A) (A) (A) (A) (A) (A) (A) (A) (A) (A) (A)
                 (A) (A) (A) (A) (A) (A) (A) (A) (A) (A) (A) (A)
                 (A) (A) (A) (A) (A) (A) (A) (A) (A) (A) (A) (A)
                 (A) (A) (A) (A) (A) (A) (A) (A) (A) (A) (A) (A)
                 (A) (A) (A) (A) (A) (A) (A) (A) (A) (A) (A) (A)
                 (A) (A) (A) (A) (A) (A) (A) (A) (A) (A) (A) (A)
                 (A) (A) (A) (A) (A) (A) (A) (A) (A) (A) (A) (A)
                 (A) (A) (A) (A) (A) (A) (A) (A) (A) (A) (A) (A)
                 (A) (A) (A) (A) (A) (A) (A) (A) (A) (A) (A) (A)
                 (A) (A) (A) (A) (A) (A) (A) (A) (A) (A) (A) (A)
                 (A) (A) (A) (A) (A) (A) (A) (A) (A) (A) (A) (A)
                 (A) (A) (A) (A) (A) (A) (A) (A) (A) (A) (A) (A)
                 (A) (A) (A) (A) (A) (A) (A) (A) (A) (A) (A) (A)
                 (A) (A) (A) (A) (A) (A) (A) (A) (A) (A) (A) (A)
                 (A) (A) (A) (A) (A) (A) (A) (A) (A) (A) (A) (A)
                 (A) (A) (A) (A) (A) (A) (A) (A) (A) (A) (A) (A)
                 (A) (A) (A) (A) (A) (A) (A) (A) (A) (A) (A) (A)
                 (A) (A) (A) (A) (A) (A) (A) (A) (A) (A) (A) (A)
                 (A) (A) (A) (A) (A) (A) (A) (A) (A) (A) (A) (A)
                 (A) (A) (A) (A) (A) (A) (A) (A) (A) (A) (A) (A)
                 (A) (A) (A) (A) (A) (A) (A) (A) (A) (A) (A) (A)
                 (A) (A) (A) (A) (A) (A) (A) (A) (A) (A) (A) (A)
                 (A) (A) (A) (A) (A) (A) (A) (A) (A) (A) (A) (A)
                 (A) (A) (A) (A) (A) (A) (A) (A) (A) (A) (A) (A)
                 (A) (A) (A) (A) (A) (A) (A) (A) (A) (A) (A) (A)
                 (A) (A) (A) (A) (A) (A) (A) (A) (A) (A) (A) (A)
                 (A) (A) (A) (A) (A) (A) (A) (A) (A) (A) (A) (A)
                 (A) (A) (A) (A) (A) (A) (A) (A) (A) (A) (A) (A)
                 (A) (A) (A) (A) (A) (A) (A) (A) (A) (A) (A) (A)
                 (A) (A) (A) (A) (A) (A) (A) (A) (A) (A) (A) (A)
                 (A) (A) (A) (A) (A) (A) (A) (A) (A)
 The electronic state is 1-A.
 Alpha  occ. eigenvalues --  -88.21974 -88.21633 -14.14721 -14.14152 -10.05970
 Alpha  occ. eigenvalues --  -10.05887 -10.05688 -10.05558 -10.05326 -10.05203
 Alpha  occ. eigenvalues --  -10.05186 -10.05143 -10.04268 -10.02650 -10.02205
 Alpha  occ. eigenvalues --  -10.02203 -10.01606 -10.01580 -10.01480 -10.01442
 Alpha  occ. eigenvalues --  -10.01432 -10.01429 -10.01355 -10.01291 -10.01205
 Alpha  occ. eigenvalues --  -10.01187 -10.01163 -10.01154 -10.01149 -10.01143
 Alpha  occ. eigenvalues --  -10.01133 -10.01123 -10.01095 -10.00957 -10.00833
 Alpha  occ. eigenvalues --  -10.00825 -10.00819 -10.00813 -10.00657 -10.00636
 Alpha  occ. eigenvalues --   -7.81269  -7.80847  -5.83443  -5.83043  -5.82951
 Alpha  occ. eigenvalues --   -5.82543  -5.82188  -5.81747  -1.02725  -1.02142
 Alpha  occ. eigenvalues --   -0.94296  -0.92388  -0.92134  -0.91716  -0.90756
 Alpha  occ. eigenvalues --   -0.90074  -0.86405  -0.85443  -0.82696  -0.82180
 Alpha  occ. eigenvalues --   -0.82005  -0.81418  -0.80901  -0.80869  -0.80665
 Alpha  occ. eigenvalues --   -0.80487  -0.79770  -0.78451  -0.76229  -0.74799
 Alpha  occ. eigenvalues --   -0.70164  -0.69617  -0.69412  -0.68883  -0.67874
 Alpha  occ. eigenvalues --   -0.67477  -0.67144  -0.66738  -0.66594  -0.65888
 Alpha  occ. eigenvalues --   -0.64062  -0.63402  -0.61301  -0.61062  -0.60809
 Alpha  occ. eigenvalues --   -0.60314  -0.57447  -0.56780  -0.56427  -0.55093
 Alpha  occ. eigenvalues --   -0.54935  -0.54431  -0.54143  -0.53774  -0.52974
 Alpha  occ. eigenvalues --   -0.52352  -0.52099  -0.51907  -0.51129  -0.50938
 Alpha  occ. eigenvalues --   -0.50696  -0.50339  -0.50113  -0.50028  -0.49537
 Alpha  occ. eigenvalues --   -0.49325  -0.49197  -0.49041  -0.48805  -0.48089
 Alpha  occ. eigenvalues --   -0.47407  -0.46326  -0.46228  -0.45787  -0.45616
 Alpha  occ. eigenvalues --   -0.45386  -0.45266  -0.43631  -0.43382  -0.42922
 Alpha  occ. eigenvalues --   -0.42604  -0.42448  -0.42137  -0.41617  -0.41561
 Alpha  occ. eigenvalues --   -0.41099  -0.40973  -0.40720  -0.40471  -0.39846
 Alpha  occ. eigenvalues --   -0.38578  -0.37081  -0.35754  -0.34513  -0.34298
 Alpha  occ. eigenvalues --   -0.34001  -0.33878  -0.33377  -0.33172  -0.32764
 Alpha  occ. eigenvalues --   -0.32759  -0.30743  -0.29823  -0.25510  -0.25019
 Alpha virt. eigenvalues --    0.01890   0.02636   0.03201   0.03374   0.03480
 Alpha virt. eigenvalues --    0.03771   0.04654   0.05505   0.05710   0.05903
 Alpha virt. eigenvalues --    0.07116   0.07660   0.08478   0.10337   0.10505
 Alpha virt. eigenvalues --    0.11504   0.11694   0.12151   0.12269   0.12727
 Alpha virt. eigenvalues --    0.13644   0.13943   0.14299   0.14538   0.14667
 Alpha virt. eigenvalues --    0.14860   0.15092   0.15326   0.15738   0.16131
 Alpha virt. eigenvalues --    0.16259   0.16559   0.16750   0.17129   0.17346
 Alpha virt. eigenvalues --    0.17476   0.17696   0.17932   0.18085   0.18630
 Alpha virt. eigenvalues --    0.18768   0.18971   0.19119   0.19668   0.19756
 Alpha virt. eigenvalues --    0.20083   0.21569   0.21695   0.21953   0.22420
 Alpha virt. eigenvalues --    0.22662   0.23780   0.24498   0.24730   0.25116
 Alpha virt. eigenvalues --    0.25375   0.25584   0.25657   0.25809   0.26188
 Alpha virt. eigenvalues --    0.26430   0.26676   0.26812   0.26984   0.27080
 Alpha virt. eigenvalues --    0.27361   0.27530   0.27693   0.28156   0.28260
 Alpha virt. eigenvalues --    0.28400   0.28833   0.29068   0.29146   0.29487
 Alpha virt. eigenvalues --    0.29599   0.29702   0.30009   0.30270   0.30333
 Alpha virt. eigenvalues --    0.30374   0.30619   0.30729   0.30952   0.31049
 Alpha virt. eigenvalues --    0.31674   0.31714   0.31792   0.32154   0.32336
 Alpha virt. eigenvalues --    0.32593   0.33125   0.33290   0.33414   0.33829
 Alpha virt. eigenvalues --    0.34088   0.34241   0.34444   0.34737   0.35070
 Alpha virt. eigenvalues --    0.35284   0.35676   0.35879   0.36358   0.36388
 Alpha virt. eigenvalues --    0.36730   0.37187   0.37264   0.37362   0.37842
 Alpha virt. eigenvalues --    0.37964   0.38362   0.38493   0.38767   0.39073
 Alpha virt. eigenvalues --    0.39187   0.39254   0.39529   0.39913   0.40117
 Alpha virt. eigenvalues --    0.40604   0.40788   0.41648   0.42055   0.42285
 Alpha virt. eigenvalues --    0.42729   0.42977   0.43202   0.43409   0.43534
 Alpha virt. eigenvalues --    0.43895   0.44043   0.44132   0.44505   0.44653
 Alpha virt. eigenvalues --    0.44979   0.45242   0.45336   0.45479   0.45760
 Alpha virt. eigenvalues --    0.45863   0.46071   0.46319   0.46471   0.46495
 Alpha virt. eigenvalues --    0.46593   0.46791   0.46875   0.47055   0.47507
 Alpha virt. eigenvalues --    0.47766   0.47821   0.48082   0.48529   0.48597
 Alpha virt. eigenvalues --    0.48673   0.49084   0.49282   0.49332   0.49458
 Alpha virt. eigenvalues --    0.49694   0.49769   0.50005   0.50191   0.50352
 Alpha virt. eigenvalues --    0.50917   0.51087   0.51476   0.51817   0.51976
 Alpha virt. eigenvalues --    0.52384   0.52674   0.53223   0.53483   0.53729
 Alpha virt. eigenvalues --    0.53833   0.54566   0.54761   0.54934   0.55070
 Alpha virt. eigenvalues --    0.55401   0.55596   0.55853   0.55996   0.56070
 Alpha virt. eigenvalues --    0.56478   0.56613   0.56924   0.57080   0.57109
 Alpha virt. eigenvalues --    0.57366   0.57791   0.58030   0.58115   0.58182
 Alpha virt. eigenvalues --    0.58782   0.59233   0.59536   0.59730   0.60052
 Alpha virt. eigenvalues --    0.60394   0.60931   0.61422   0.61568   0.61936
 Alpha virt. eigenvalues --    0.62250   0.62583   0.62772   0.63050   0.63830
 Alpha virt. eigenvalues --    0.64213   0.64706   0.64957   0.65731   0.66484
 Alpha virt. eigenvalues --    0.67132   0.67716   0.68132   0.68561   0.68853
 Alpha virt. eigenvalues --    0.69193   0.69452   0.70374   0.70954   0.71745
 Alpha virt. eigenvalues --    0.72509   0.73150   0.73235   0.73656   0.73854
 Alpha virt. eigenvalues --    0.74150   0.74508   0.74979   0.75257   0.75421
 Alpha virt. eigenvalues --    0.75695   0.75953   0.76400   0.76423   0.76485
 Alpha virt. eigenvalues --    0.76659   0.76967   0.77333   0.77526   0.78047
 Alpha virt. eigenvalues --    0.78338   0.78652   0.78887   0.79189   0.79462
 Alpha virt. eigenvalues --    0.79871   0.80618   0.80658   0.81328   0.81703
 Alpha virt. eigenvalues --    0.82684   0.83209   0.83401   0.83739   0.84440
 Alpha virt. eigenvalues --    0.84846   0.85330   0.85519   0.86378   0.86751
 Alpha virt. eigenvalues --    0.88025   0.88547   0.89663   0.90746   0.91258
 Alpha virt. eigenvalues --    0.91495   0.91965   0.92177   0.92367   0.94101
 Alpha virt. eigenvalues --    0.95198   0.96413   0.96987   0.97578   0.98031
 Alpha virt. eigenvalues --    0.98910   0.99096   1.00652   1.02226   1.03000
 Alpha virt. eigenvalues --    1.04817   1.06980   1.09075   1.14834   1.19414
 Alpha virt. eigenvalues --    1.19578   1.20977   1.21285   1.23534   1.24846
 Alpha virt. eigenvalues --    1.25269   1.25731   1.26322   1.26857   1.26940
 Alpha virt. eigenvalues --    1.27838   1.28461   1.28729   1.28870   1.29045
 Alpha virt. eigenvalues --    1.29194   1.29398   1.30581   1.30741   1.31132
 Alpha virt. eigenvalues --    1.31358   1.31405   1.31662   1.31834   1.32206
 Alpha virt. eigenvalues --    1.32515   1.32955   1.32996   1.33360   1.33638
 Alpha virt. eigenvalues --    1.33878   1.34030   1.34136   1.34449   1.34737
 Alpha virt. eigenvalues --    1.35185   1.35442   1.35724   1.35777   1.35955
 Alpha virt. eigenvalues --    1.36325   1.36630   1.36815   1.37072   1.37852
 Alpha virt. eigenvalues --    1.38045   1.38150   1.38956   1.39134   1.39629
 Alpha virt. eigenvalues --    1.39851   1.40438   1.40682   1.41140   1.42199
 Alpha virt. eigenvalues --    1.44380   1.45410   1.46080   1.46640   1.47032
 Alpha virt. eigenvalues --    1.47046   1.47459   1.47645   1.47873   1.48221
 Alpha virt. eigenvalues --    1.48579   1.48761   1.48873   1.49079   1.49106
 Alpha virt. eigenvalues --    1.49289   1.49367   1.49404   1.49574   1.49791
 Alpha virt. eigenvalues --    1.49862   1.50245   1.50729   1.51088   1.51241
 Alpha virt. eigenvalues --    1.51568   1.51798   1.52123   1.52328   1.52564
 Alpha virt. eigenvalues --    1.52686   1.52814   1.53074   1.53114   1.53337
 Alpha virt. eigenvalues --    1.53810   1.54088   1.54880   1.55086   1.55528
 Alpha virt. eigenvalues --    1.56040   1.56296   1.56652   1.56716   1.57311
 Alpha virt. eigenvalues --    1.57573   1.57808   1.58063   1.58180   1.58443
 Alpha virt. eigenvalues --    1.58643   1.59108   1.59321   1.59767   1.60218
 Alpha virt. eigenvalues --    1.60302   1.60492   1.60594   1.60663   1.60904
 Alpha virt. eigenvalues --    1.61174   1.61314   1.61497   1.61687   1.62151
 Alpha virt. eigenvalues --    1.62236   1.62606   1.62722   1.63143   1.63221
 Alpha virt. eigenvalues --    1.63321   1.63457   1.63593   1.63989   1.64292
 Alpha virt. eigenvalues --    1.64656   1.65034   1.65167   1.65591   1.66307
 Alpha virt. eigenvalues --    1.66773   1.68551   1.69689   1.69879   1.71663
 Alpha virt. eigenvalues --    1.71933   1.72090   1.72283   1.72487   1.73274
 Alpha virt. eigenvalues --    1.75402   1.75463   1.75789   1.76501   1.76653
 Alpha virt. eigenvalues --    1.78034   1.78662   1.80131   1.80758   1.80974
 Alpha virt. eigenvalues --    1.81325   1.81466   1.81602   1.81705   1.81805
 Alpha virt. eigenvalues --    1.81878   1.82323   1.82461   1.83015   1.83198
 Alpha virt. eigenvalues --    1.83719   1.83889   1.84308   1.84508   1.84802
 Alpha virt. eigenvalues --    1.85299   1.85631   1.85804   1.86178   1.86364
 Alpha virt. eigenvalues --    1.86632   1.86750   1.86879   1.87291   1.87589
 Alpha virt. eigenvalues --    1.87825   1.88845   1.89390   1.89534   1.91233
 Alpha virt. eigenvalues --    1.91478   1.92321   1.92694   1.92989   1.93215
 Alpha virt. eigenvalues --    1.93446   1.93638   1.93746   1.93886   1.94883
 Alpha virt. eigenvalues --    1.95184   1.95759   1.95993   1.96402   1.96511
 Alpha virt. eigenvalues --    1.96723   1.96728   1.96930   1.97129   1.97206
 Alpha virt. eigenvalues --    1.97358   1.97453   1.97673   1.97711   1.98040
 Alpha virt. eigenvalues --    1.98219   1.98333   1.98384   1.98792   1.99266
 Alpha virt. eigenvalues --    1.99477   2.00193   2.00602   2.01270   2.01848
 Alpha virt. eigenvalues --    2.02086   2.02357   2.02435   2.02696   2.03041
 Alpha virt. eigenvalues --    2.04477   2.05166   2.05452   2.05706   2.05747
 Alpha virt. eigenvalues --    2.06432   2.07033   2.07167   2.07954   2.08158
 Alpha virt. eigenvalues --    2.09013   2.09527   2.10324   2.11720   2.12357
 Alpha virt. eigenvalues --    2.12687   2.13316   2.14311   2.15036   2.15266
 Alpha virt. eigenvalues --    2.16605   2.17016   2.18174   2.19588   2.20026
 Alpha virt. eigenvalues --    2.21522   2.22409   2.24265   2.24378   2.24998
 Alpha virt. eigenvalues --    2.25286   2.25868   2.27027   2.27835   2.28931
 Alpha virt. eigenvalues --    2.29031   2.29193   2.29517   2.31407   2.31973
 Alpha virt. eigenvalues --    2.33608   2.33871   2.34444   2.34869   2.35127
 Alpha virt. eigenvalues --    2.35388   2.36014   2.36060   2.36345   2.36536
 Alpha virt. eigenvalues --    2.36631   2.36777   2.36840   2.36986   2.37174
 Alpha virt. eigenvalues --    2.37728   2.37976   2.38366   2.38711   2.38904
 Alpha virt. eigenvalues --    2.39332   2.39495   2.39655   2.39896   2.40374
 Alpha virt. eigenvalues --    2.41022   2.41132   2.41231   2.41689   2.41881
 Alpha virt. eigenvalues --    2.42102   2.42146   2.42289   2.42629   2.42828
 Alpha virt. eigenvalues --    2.43023   2.43590   2.44323   2.46946   2.49471
 Alpha virt. eigenvalues --    2.50318   2.50636   2.50899   2.51265   2.52078
 Alpha virt. eigenvalues --    2.52255   2.53545   2.54796   2.55351   2.55589
 Alpha virt. eigenvalues --    2.55692   2.56378   2.56791   2.56975   2.57232
 Alpha virt. eigenvalues --    2.57412   2.57670   2.57791   2.58098   2.59206
 Alpha virt. eigenvalues --    2.59770   2.60781   2.60926   2.61843   2.62243
 Alpha virt. eigenvalues --    2.63626   2.64359   2.65335   2.66611   2.66975
 Alpha virt. eigenvalues --    2.67779   2.68500   2.68734   2.69122   2.69276
 Alpha virt. eigenvalues --    2.69354   2.69662   2.69746   2.69963   2.70102
 Alpha virt. eigenvalues --    2.70526   2.71123   2.71322   2.71408   2.71999
 Alpha virt. eigenvalues --    2.72445   2.72920   2.73069   2.73877   2.76336
 Alpha virt. eigenvalues --    2.78728   2.79107   2.79312   2.79440   2.80682
 Alpha virt. eigenvalues --    2.81710   2.81886   2.82152   2.82298   2.82539
 Alpha virt. eigenvalues --    2.84144   2.84217   2.84736   2.86850   2.87218
 Alpha virt. eigenvalues --    2.87352   2.87812   2.88997   2.89966   2.90004
 Alpha virt. eigenvalues --    2.90206   2.90486   2.91675   2.94325   2.95008
 Alpha virt. eigenvalues --    3.01023   3.01636   3.01830   3.02074   3.02236
 Alpha virt. eigenvalues --    3.02563   3.03369   3.03735   3.05959   3.06356
 Alpha virt. eigenvalues --    3.06878   3.07076   3.07493   3.07890   3.08269
 Alpha virt. eigenvalues --    3.08610   3.08998   3.09165   3.10381   3.11895
 Alpha virt. eigenvalues --    3.12789   3.13645   3.14311   3.14681   3.14974
 Alpha virt. eigenvalues --    3.15350   3.16283   3.16708   3.18373   3.19114
 Alpha virt. eigenvalues --    3.19493   3.19599   3.20749   3.21925   3.22452
 Alpha virt. eigenvalues --    3.22666   3.22999   3.23694   3.24648   3.24916
 Alpha virt. eigenvalues --    3.25210   3.25564   3.25781   3.26054   3.26214
 Alpha virt. eigenvalues --    3.26601   3.27370   3.29418   3.32370   3.32974
 Alpha virt. eigenvalues --    3.37549   3.37992   3.38065   3.38344   3.38637
 Alpha virt. eigenvalues --    3.39731   3.41577   3.44020   3.44991   3.45416
 Alpha virt. eigenvalues --    3.45676   3.50319   3.50936   3.56719   3.57373
 Alpha virt. eigenvalues --    3.58185   3.59588   3.59831   3.61578   3.62423
 Alpha virt. eigenvalues --    3.62673   3.66135   3.66473   3.82372   3.84818
 Alpha virt. eigenvalues --    3.94524   3.95826   3.97568   3.97953  18.82711
 Alpha virt. eigenvalues --   19.00833  21.21978  21.22534  21.24636  21.24745
 Alpha virt. eigenvalues --   21.26133  21.26660  21.71443  21.71949  21.74221
 Alpha virt. eigenvalues --   21.74611  21.74879  21.75834  21.76663  21.78562
 Alpha virt. eigenvalues --   21.82639  21.82809  21.83863  21.86097  21.94635
 Alpha virt. eigenvalues --   21.95555  21.98277  21.99176  22.00274  22.00661
 Alpha virt. eigenvalues --   22.01195  22.02442  22.06121  22.06794  22.07798
 Alpha virt. eigenvalues --   22.08366  22.12415  22.13734  22.18599  22.18714
 Alpha virt. eigenvalues --   22.20200  22.21686  32.07773  32.07911
          Condensed to atoms (all electrons):
 Mulliken charges:
               1
     1  C   -0.058288
     2  C   -0.265479
     3  S    0.070012
     4  C   -0.018426
     5  C    0.015082
     6  C   -0.204283
     7  C   -0.032777
     8  C   -0.033551
     9  H    0.088774
    10  C   -0.120094
    11  C   -0.109295
    12  C   -0.097457
    13  C   -0.071626
    14  H    0.146594
    15  H    0.124381
    16  H    0.148128
    17  C   -0.145986
    18  H    0.155765
    19  H    0.148099
    20  H    0.112999
    21  H    0.155155
    22  S   -0.025867
    23  N   -0.017710
    24  C   -0.052441
    25  C   -0.119435
    26  C   -0.114516
    27  C   -0.113337
    28  C   -0.113406
    29  C   -0.107729
    30  H    0.154913
    31  H    0.153298
    32  H    0.107670
    33  H    0.108234
    34  H    0.106643
    35  C   -0.051658
    36  C   -0.123813
    37  C   -0.109949
    38  C   -0.113179
    39  C   -0.115332
    40  C   -0.108178
    41  H    0.155173
    42  H    0.157943
    43  H    0.107487
    44  H    0.106706
    45  H    0.105954
    46  N   -0.017246
    47  C   -0.082270
    48  C   -0.106243
    49  C   -0.101994
    50  C   -0.117557
    51  C   -0.121210
    52  C   -0.100887
    53  H    0.155227
    54  H    0.161825
    55  H    0.109344
    56  H    0.108390
    57  H    0.108263
    58  C   -0.060748
    59  C   -0.114311
    60  C   -0.108460
    61  C   -0.111385
    62  C   -0.111933
    63  C   -0.106423
    64  H    0.153146
    65  H    0.151835
    66  H    0.109232
    67  H    0.109823
    68  H    0.108383
 Sum of Mulliken charges =  -0.00000
 Mulliken charges with hydrogens summed into heavy atoms:
               1
     1  C    0.097477
     2  C   -0.265479
     3  S    0.070012
     4  C   -0.018426
     5  C    0.163181
     6  C   -0.204283
     7  C   -0.032777
     8  C    0.079448
    10  C    0.026500
    11  C    0.015086
    12  C    0.050670
    13  C   -0.071626
    17  C    0.009169
    22  S    0.062907
    23  N   -0.017710
    24  C   -0.052441
    25  C    0.035479
    26  C    0.038782
    27  C   -0.005667
    28  C   -0.005172
    29  C   -0.001086
    35  C   -0.051658
    36  C    0.031361
    37  C    0.047994
    38  C   -0.005692
    39  C   -0.008627
    40  C   -0.002224
    46  N   -0.017246
    47  C   -0.082270
    48  C    0.048985
    49  C    0.059831
    50  C   -0.008213
    51  C   -0.012820
    52  C    0.007376
    58  C   -0.060748
    59  C    0.038835
    60  C    0.043375
    61  C   -0.002153
    62  C   -0.002110
    63  C    0.001959
 Electronic spatial extent (au):  <R**2>=          31233.2997
 Charge=              0.0000 electrons
 Dipole moment (field-independent basis, Debye):
    X=             -0.9746    Y=              2.0672    Z=             -0.1130  Tot=              2.2882
 Quadrupole moment (field-independent basis, Debye-Ang):
   XX=           -228.2300   YY=           -235.4572   ZZ=           -238.3947
   XY=             -1.8376   XZ=             -0.3236   YZ=              7.1242
 Traceless Quadrupole moment (field-independent basis, Debye-Ang):
   XX=              5.7973   YY=             -1.4299   ZZ=             -4.3674
   XY=             -1.8376   XZ=             -0.3236   YZ=              7.1242
 Octapole moment (field-independent basis, Debye-Ang**2):
  XXX=              9.5587  YYY=             37.5273  ZZZ=             32.3862  XYY=             -9.7005
  XXY=            -20.0733  XXZ=            -48.8105  XZZ=            -16.6953  YZZ=             12.6666
  YYZ=            -18.8052  XYZ=              2.2774
 Hexadecapole moment (field-independent basis, Debye-Ang**3):
 XXXX=         -31866.2342 YYYY=          -6609.7757 ZZZZ=          -3702.4042 XXXY=           -210.3216
 XXXZ=             14.4920 YYYX=             99.1536 YYYZ=            -11.5596 ZZZX=             45.7051
 ZZZY=            187.9912 XXYY=          -6164.8388 XXZZ=          -6090.2712 YYZZ=          -1790.3505
 XXYZ=             70.5845 YYXZ=             14.2271 ZZXY=              8.5294
 N-N= 4.395142161951D+03 E-N=-1.415963941428D+04  KE= 2.284546797251D+03
 No NMR shielding tensors so no spin-rotation constants.
 Leave Link  601 at Wed Jan 27 09:11:51 2021, MaxMem=  4026531840 cpu:               9.3 elap:               1.3
 (Enter /opt/ohpc/pub/libs/gaussian/g16-A.03/sandybridge/g16/l9999.exe)

 Test job not archived.
 1\1\GINC-CNODE210\SP\RLC-wHPBE\TZVP\C36H28N2S2\RDU230\27-Jan-2021\0\\#
 P LC-wHPBE/TZVP iop(3/107=0221900000, 3/108=0221900000) scf=(conver=6,
 fermi,ndamp=35,noincfock,novaracc,vshift=500,xqc)\\H28 C36 S2 N2\\0,1\
 C,0,-2.604951,0.985352,-0.477595\C,0,-1.595468,1.227646,-1.396897\S,0,
 -0.459746,2.557842,-1.073663\C,0,-1.509976,0.467226,-2.564163\C,0,1.04
 3777,0.455726,-0.021717\C,0,1.03833,1.682104,-0.668307\C,0,-3.557585,-
 0.001751,-0.697168\C,0,-2.447111,-0.539154,-2.764444\H,0,-0.596318,-0.
 14267,-4.605045\C,0,2.238728,-0.147647,0.319798\C,0,2.246539,2.297832,
 -0.961919\C,0,3.442101,1.694718,-0.621166\C,0,3.453096,0.46292,0.02383
 7\H,0,2.234263,-1.106243,0.827797\H,0,2.253931,3.248348,-1.486346\H,0,
 4.381679,2.178238,-0.866461\C,0,-3.461673,-0.764082,-1.856276\H,0,-2.6
 46669,1.585519,0.424718\H,0,0.106936,-0.032641,0.224382\H,0,-2.404245,
 -1.146243,-3.663282\H,0,-4.192893,-1.542008,-2.047877\S,0,-0.233558,0.
 817463,-3.737465\N,0,4.673686,-0.159547,0.368747\C,0,5.732508,0.612661
 ,0.896564\C,0,7.045695,0.37796,0.499452\C,0,5.475865,1.622329,1.819567
 \C,0,8.078745,1.133154,1.024558\C,0,6.512871,2.384632,2.326214\C,0,7.8
 20306,2.143178,1.9369\H,0,7.251646,-0.403669,-0.22406\H,0,4.45483,1.80
 7304,2.136118\H,0,9.097402,0.93653,0.704866\H,0,6.295127,3.169013,3.04
 4416\H,0,8.632202,2.738403,2.341339\C,0,4.837054,-1.548147,0.168533\C,
 0,5.516065,-2.321618,1.105787\C,0,4.319017,-2.163542,-0.967486\C,0,5.6
 79987,-3.679833,0.902534\C,0,4.472338,-3.525567,-1.15401\C,0,5.156657,
 -4.292005,-0.224805\H,0,5.917204,-1.848815,1.995947\H,0,3.79167,-1.566
 068,-1.703651\H,0,6.213214,-4.268058,1.642948\H,0,4.061647,-3.98973,-2
 .045325\H,0,5.281223,-5.35883,-0.377899\N,0,-4.591369,-0.225236,0.2355
 72\C,0,-4.996809,-1.544618,0.539366\C,0,-6.345932,-1.849462,0.693639\C
 ,0,-4.053605,-2.557013,0.688173\C,0,-6.738551,-3.140118,0.998819\C,0,-
 4.45592,-3.848924,0.975713\C,0,-5.798707,-4.148587,1.137139\H,0,-7.085
 839,-1.064984,0.575406\H,0,-2.999778,-2.324624,0.576668\H,0,-7.794748,
 -3.361033,1.117399\H,0,-3.707423,-4.627077,1.088273\H,0,-6.110711,-5.1
 61215,1.369943\C,0,-5.228462,0.872905,0.859345\C,0,-5.548183,0.824769,
 2.212595\C,0,-5.541916,2.014931,0.129127\C,0,-6.178047,1.897088,2.8180
 17\C,0,-6.155123,3.090236,0.746513\C,0,-6.481192,3.037227,2.091754\H,0
 ,-5.300925,-0.061617,2.787177\H,0,-5.299559,2.056134,-0.927579\H,0,-6.
 421719,1.844307,3.874525\H,0,-6.390696,3.975287,0.163884\H,0,-6.967632
 ,3.87989,2.571608\\Version=EM64L-G16RevA.03\State=1-A\HF=-2293.4078042
 \RMSD=6.468e-07\Dipole=-0.3834549,-0.8132869,0.0444382\Quadrupole=4.31
 01514,-1.0631192,-3.2470321,1.3662011,0.2406201,5.2966361\PG=C01 [X(C3
 6H28N2S2)]\\@


                                                                                    A
                                                                                  AA
                                                                                 AAA
                                                                                AAAA
                                                                               AAAAA
                                                                              AAAAAA   KKKKKKKK
                                                                             AAAAAAA   KKKKKKKK
                                                                            AAAAAAAA   KKKKKKKK
                                       ZZZZZZZZZZZZZZZZZZZZ                AAAA  AAA   KKKKKKKK
                                       ZZZZZZZZZZZZZZZZZZZ                AAAA   AAA   KKKKKKKK          K
                                       ZZZZZZZZZZZZZZZZZZ                AAAA    AAA   KKKKKKKK         KKK
                                       ZZZZZZZZZZZZZZZZZ                AAAA     AAA   KKKKKKKK        KKKKK
                                       ZZZZZZZZZZZZZZZZ                AAAA      AAA   KKKKKKKK       KKKKKKK
                                                ZZZZZZ                AAAA       AAA   KKKKKKKK      KKKKKKK
                                               ZZZZZZ                AAAA        AAA   KKKKKKKK     KKKKKKK
                                              ZZZZZZ                AAAA         AAA   KKKKKKKK    KKKKKKK
                                             ZZZZZZ                AAAA          AAA   KKKKKKKK   KKKKKKK
                                            ZZZZZZ                AAAAAAAAAAAAAAAAAA   KKKKKKKK  KKKKKKK
                                           ZZZZZZ                AAAAAAAAAAAAAAAAAAA   KKKKKKKK KKKKKKK
                                          ZZZZZZ                AAAAAAAAAAAAAAAAAAAA   KKKKKKKKKKKKKKK
                                         ZZZZZZ                AAAAAAAAAAAAAAAAAAAAA   KKKKKKKKKKKKKK
                                        ZZZZZZ                AAAAAA        AAAAAAAA   KKKKKKKKKKKKK
                                       ZZZZZZ                AAAAAA         AAAAAAAA   KKKKKKKKKKKK
                                      ZZZZZZ                AAAAAA          AAAAAAAA   KKKKKKKKKKK
                                     ZZZZZZ                AAAAAA           AAAAAAAA   KKKKKKKKKKKK
                                    ZZZZZZ                AAAAAA            AAAAAAAA   KKKKKKKKKKKKK
                                   ZZZZZZ                AAAAAA             AAAAAAAA   KKKKKKKKKKKKKK
                                  ZZZZZZ                AAAAAA              AAAAAAAA   KKKKKKKKKKKKKKK
                                 ZZZZZZ                AAAAAA               AAAAAAAA   KKKKK KKKKKKKKKK
                                ZZZZZZ                AAAAAA                AAAAAAAA   KKKKK  KKKKKKKKKK
                               ZZZZZZ                AAAAAA                            KKKKK   KKKKKKKKKK
                              ZZZZZZ                AAAAAA                             KKKKK    KKKKKKKKKK
                             ZZZZZZ                                                    KKKKK     KKKKKKKKKK
                            ZZZZZZ                                                     KKKKK      KKKKKKKKKK
                           ZZZZZZ                                                      KKKKK       KKKKKKKKKK
                          ZZZZZZ                                                       KKKKK        KKKKKKKKKK
                         ZZZZZZZZZZZZZZZZZZZZZZZZZZZZZZZZZZZZZZZZ                      KKKKK         KKKKKKKKKK
                        ZZZZZZZZZZZZZZZZZZZZZZZZZZZZZZZZZZZZZZZZZ                      KKKKK          KKKKKKKKKK
                       ZZZZZZZZZZZZZZZZZZZZZZZZZZZZZZZZZZZZZZZZZZ                      KKKKK           KKKKKKKKKK
                       ZZZZZZZZZZZZZZZZZZZZZZZZZZZZZZZZZZZZZZZZZZ                      KKKKK            KKKKKKKKKK
                       ZZZZZZZZZZZZZZZZZZZZZZZZZZZZZZZZZZZZZZZZZZ                      KKKKK             KKKKKKKKKK
                       ZZZZZZZZZZZZZZZZZZZZZZZZZZZZZZZZZZZZZZZZZZ                      KKKKK              KKKKKKKKKK
                       ZZZZZZZZZZZZZZZZZZZZZZZZZZZZZZZZZZZZZZZZZZ                      KKKKK               KKKKKKKKKK
                       ZZZZZZZZZZZZZZZZZZZZZZZZZZZZZZZZZZZZZZZZZZ                      KKKKK                KKKKKKKKKK
                       ZZZZZZZZZZZZZZZZZZZZZZZZZZZZZZZZZZZZZZZZZZ                      KKKKK
                                                                                       KKKKK
                                                                                          (J.P.)
 Job cpu time:       0 days  4 hours  9 minutes 32.5 seconds.
 Elapsed time:       0 days  0 hours 31 minutes 33.2 seconds.
 File lengths (MBytes):  RWF=    304 Int=      0 D2E=      0 Chk=     56 Scr=      8
 Normal termination of Gaussian 16 at Wed Jan 27 09:11:51 2021.
