 Entering Gaussian System, Link 0=g16
 Input=mol_ta_pa_whol_tune_c13.gjf
 Output=mol_ta_pa_whol_tune_c13.log
 Initial command:
 /opt/ohpc/pub/libs/gaussian/g16-A.03/sandybridge/g16/l1.exe "/mnt/gpfs2_4m/scratch/rdu230/ondemand/projects/init_structures/gaussian/wtuning/mol_ta_pa_whol/tuning_mol_ta_pa_whol_ocycle0/Gau-58228.inp" -scrdir="/mnt/gpfs2_4m/scratch/rdu230/ondemand/projects/init_structures/gaussian/wtuning/mol_ta_pa_whol/tuning_mol_ta_pa_whol_ocycle0/"
 Entering Link 1 = /opt/ohpc/pub/libs/gaussian/g16-A.03/sandybridge/g16/l1.exe PID=     58229.
  
 Copyright (c) 1988,1990,1992,1993,1995,1998,2003,2009,2016,
            Gaussian, Inc.  All Rights Reserved.
  
 This is part of the Gaussian(R) 16 program.  It is based on
 the Gaussian(R) 09 system (copyright 2009, Gaussian, Inc.),
 the Gaussian(R) 03 system (copyright 2003, Gaussian, Inc.),
 the Gaussian(R) 98 system (copyright 1998, Gaussian, Inc.),
 the Gaussian(R) 94 system (copyright 1995, Gaussian, Inc.),
 the Gaussian 92(TM) system (copyright 1992, Gaussian, Inc.),
 the Gaussian 90(TM) system (copyright 1990, Gaussian, Inc.),
 the Gaussian 88(TM) system (copyright 1988, Gaussian, Inc.),
 the Gaussian 86(TM) system (copyright 1986, Carnegie Mellon
 University), and the Gaussian 82(TM) system (copyright 1983,
 Carnegie Mellon University). Gaussian is a federally registered
 trademark of Gaussian, Inc.
  
 This software contains proprietary and confidential information,
 including trade secrets, belonging to Gaussian, Inc.
  
 This software is provided under written license and may be
 used, copied, transmitted, or stored only in accord with that
 written license.
  
 The following legend is applicable only to US Government
 contracts under FAR:
  
                    RESTRICTED RIGHTS LEGEND
  
 Use, reproduction and disclosure by the US Government is
 subject to restrictions as set forth in subparagraphs (a)
 and (c) of the Commercial Computer Software - Restricted
 Rights clause in FAR 52.227-19.
  
 Gaussian, Inc.
 340 Quinnipiac St., Bldg. 40, Wallingford CT 06492
  
  
 ---------------------------------------------------------------
 Warning -- This program may not be used in any manner that
 competes with the business of Gaussian, Inc. or will provide
 assistance to any competitor of Gaussian, Inc.  The licensee
 of this program is prohibited from giving any competitor of
 Gaussian, Inc. access to this program.  By using this program,
 the user acknowledges that Gaussian, Inc. is engaged in the
 business of creating and licensing software in the field of
 computational chemistry and represents and warrants to the
 licensee that it is not a competitor of Gaussian, Inc. and that
 it will not use this program in any manner prohibited above.
 ---------------------------------------------------------------
  

 Cite this work as:
 Gaussian 16, Revision A.03,
 M. J. Frisch, G. W. Trucks, H. B. Schlegel, G. E. Scuseria, 
 M. A. Robb, J. R. Cheeseman, G. Scalmani, V. Barone, 
 G. A. Petersson, H. Nakatsuji, X. Li, M. Caricato, A. V. Marenich, 
 J. Bloino, B. G. Janesko, R. Gomperts, B. Mennucci, H. P. Hratchian, 
 J. V. Ortiz, A. F. Izmaylov, J. L. Sonnenberg, D. Williams-Young, 
 F. Ding, F. Lipparini, F. Egidi, J. Goings, B. Peng, A. Petrone, 
 T. Henderson, D. Ranasinghe, V. G. Zakrzewski, J. Gao, N. Rega, 
 G. Zheng, W. Liang, M. Hada, M. Ehara, K. Toyota, R. Fukuda, 
 J. Hasegawa, M. Ishida, T. Nakajima, Y. Honda, O. Kitao, H. Nakai, 
 T. Vreven, K. Throssell, J. A. Montgomery, Jr., J. E. Peralta, 
 F. Ogliaro, M. J. Bearpark, J. J. Heyd, E. N. Brothers, K. N. Kudin, 
 V. N. Staroverov, T. A. Keith, R. Kobayashi, J. Normand, 
 K. Raghavachari, A. P. Rendell, J. C. Burant, S. S. Iyengar, 
 J. Tomasi, M. Cossi, J. M. Millam, M. Klene, C. Adamo, R. Cammi, 
 J. W. Ochterski, R. L. Martin, K. Morokuma, O. Farkas, 
 J. B. Foresman, and D. J. Fox, Gaussian, Inc., Wallingford CT, 2016.
 
 ******************************************
 Gaussian 16:  EM64L-G16RevA.03 25-Dec-2016
                29-Jan-2021 
 ******************************************
 %mem=30GB
 %nproc=8
 Will use up to    8 processors via shared memory.
 ----------------------------------------------------------------------
 #P LC-wHPBE/TZVP iop(3/107=0221200000, 3/108=0221200000) scf=(conver=6
 ,fermi,ndamp=35,noincfock,novaracc,vshift=500,xqc)
 ----------------------------------------------------------------------
 1/38=1,172=1/1;
 2/12=2,17=6,18=5,40=1/2;
 3/5=19,7=101,11=2,25=1,30=1,74=-71,107=221200000,108=221200000/1,2,3;
 4//1;
 5/5=100002,6=6,8=3,10=500,13=1,18=-1,22=13,38=1,93=35/2,8;
 6/7=2,8=2,9=2,10=2,28=1/1;
 99/5=1,9=1/99;
 Leave Link    1 at Fri Jan 29 14:40:27 2021, MaxMem=  4026531840 cpu:               2.1 elap:               0.3
 (Enter /opt/ohpc/pub/libs/gaussian/g16-A.03/sandybridge/g16/l101.exe)
 -------------
 H28 C36 S2 N2
 -------------
 Symbolic Z-matrix:
 Charge =  1 Multiplicity = 2
 C                    -2.60495   0.98535  -0.4776 
 C                    -1.59547   1.22765  -1.3969 
 S                    -0.45975   2.55784  -1.07366 
 C                    -1.50998   0.46723  -2.56416 
 C                     1.04378   0.45573  -0.02172 
 C                     1.03833   1.6821   -0.66831 
 C                    -3.55759  -0.00175  -0.69717 
 C                    -2.44711  -0.53915  -2.76444 
 H                    -0.59632  -0.14267  -4.60505 
 C                     2.23873  -0.14765   0.3198 
 C                     2.24654   2.29783  -0.96192 
 C                     3.4421    1.69472  -0.62117 
 C                     3.4531    0.46292   0.02384 
 H                     2.23426  -1.10624   0.8278 
 H                     2.25393   3.24835  -1.48635 
 H                     4.38168   2.17824  -0.86646 
 C                    -3.46167  -0.76408  -1.85628 
 H                    -2.64667   1.58552   0.42472 
 H                     0.10694  -0.03264   0.22438 
 H                    -2.40424  -1.14624  -3.66328 
 H                    -4.19289  -1.54201  -2.04788 
 S                    -0.23356   0.81746  -3.73747 
 N                     4.67369  -0.15955   0.36875 
 C                     5.73251   0.61266   0.89656 
 C                     7.0457    0.37796   0.49945 
 C                     5.47587   1.62233   1.81957 
 C                     8.07874   1.13315   1.02456 
 C                     6.51287   2.38463   2.32621 
 C                     7.82031   2.14318   1.9369 
 H                     7.25165  -0.40367  -0.22406 
 H                     4.45483   1.8073    2.13612 
 H                     9.0974    0.93653   0.70487 
 H                     6.29513   3.16901   3.04442 
 H                     8.6322    2.7384    2.34134 
 C                     4.83705  -1.54815   0.16853 
 C                     5.51607  -2.32162   1.10579 
 C                     4.31902  -2.16354  -0.96749 
 C                     5.67999  -3.67983   0.90253 
 C                     4.47234  -3.52557  -1.15401 
 C                     5.15666  -4.29201  -0.22481 
 H                     5.9172   -1.84882   1.99595 
 H                     3.79167  -1.56607  -1.70365 
 H                     6.21321  -4.26806   1.64295 
 H                     4.06165  -3.98973  -2.04533 
 H                     5.28122  -5.35883  -0.3779 
 N                    -4.59137  -0.22524   0.23557 
 C                    -4.99681  -1.54462   0.53937 
 C                    -6.34593  -1.84946   0.69364 
 C                    -4.05361  -2.55701   0.68817 
 C                    -6.73855  -3.14012   0.99882 
 C                    -4.45592  -3.84892   0.97571 
 C                    -5.79871  -4.14859   1.13714 
 H                    -7.08584  -1.06498   0.57541 
 H                    -2.99978  -2.32462   0.57667 
 H                    -7.79475  -3.36103   1.1174 
 H                    -3.70742  -4.62708   1.08827 
 H                    -6.11071  -5.16122   1.36994 
 C                    -5.22846   0.87291   0.85935 
 C                    -5.54818   0.82477   2.2126 
 C                    -5.54192   2.01493   0.12913 
 C                    -6.17805   1.89709   2.81802 
 C                    -6.15512   3.09024   0.74651 
 C                    -6.48119   3.03723   2.09175 
 H                    -5.30093  -0.06162   2.78718 
 H                    -5.29956   2.05613  -0.92758 
 H                    -6.42172   1.84431   3.87453 
 H                    -6.3907    3.97529   0.16388 
 H                    -6.96763   3.87989   2.57161 
 
 ITRead=  0  0  0  0  0  0  0  0  0  0  0  0  0  0  0  0  0  0  0  0
 ITRead=  0  0  0  0  0  0  0  0  0  0  0  0  0  0  0  0  0  0  0  0
 ITRead=  0  0  0  0  0  0  0  0  0  0  0  0  0  0  0  0  0  0  0  0
 ITRead=  0  0  0  0  0  0  0  0
 MicOpt= -1 -1 -1 -1 -1 -1 -1 -1 -1 -1 -1 -1 -1 -1 -1 -1 -1 -1 -1 -1
 MicOpt= -1 -1 -1 -1 -1 -1 -1 -1 -1 -1 -1 -1 -1 -1 -1 -1 -1 -1 -1 -1
 MicOpt= -1 -1 -1 -1 -1 -1 -1 -1 -1 -1 -1 -1 -1 -1 -1 -1 -1 -1 -1 -1
 MicOpt= -1 -1 -1 -1 -1 -1 -1 -1
 NAtoms=     68 NQM=       68 NQMF=       0 NMMI=      0 NMMIF=      0
                NMic=       0 NMicF=      0.
                    Isotopes and Nuclear Properties:
 (Nuclear quadrupole moments (NQMom) in fm**2, nuclear magnetic moments (NMagM)
  in nuclear magnetons)

  Atom         1           2           3           4           5           6           7           8           9          10
 IAtWgt=          12          12          32          12          12          12          12          12           1          12
 AtmWgt=  12.0000000  12.0000000  31.9720718  12.0000000  12.0000000  12.0000000  12.0000000  12.0000000   1.0078250  12.0000000
 NucSpn=           0           0           0           0           0           0           0           0           1           0
 AtZEff=  -0.0000000  -0.0000000  -0.0000000  -0.0000000  -0.0000000  -0.0000000  -0.0000000  -0.0000000  -0.0000000  -0.0000000
 NQMom=    0.0000000   0.0000000   0.0000000   0.0000000   0.0000000   0.0000000   0.0000000   0.0000000   0.0000000   0.0000000
 NMagM=    0.0000000   0.0000000   0.0000000   0.0000000   0.0000000   0.0000000   0.0000000   0.0000000   2.7928460   0.0000000
 AtZNuc=   6.0000000   6.0000000  16.0000000   6.0000000   6.0000000   6.0000000   6.0000000   6.0000000   1.0000000   6.0000000

  Atom        11          12          13          14          15          16          17          18          19          20
 IAtWgt=          12          12          12           1           1           1          12           1           1           1
 AtmWgt=  12.0000000  12.0000000  12.0000000   1.0078250   1.0078250   1.0078250  12.0000000   1.0078250   1.0078250   1.0078250
 NucSpn=           0           0           0           1           1           1           0           1           1           1
 AtZEff=  -0.0000000  -0.0000000  -0.0000000  -0.0000000  -0.0000000  -0.0000000  -0.0000000  -0.0000000  -0.0000000  -0.0000000
 NQMom=    0.0000000   0.0000000   0.0000000   0.0000000   0.0000000   0.0000000   0.0000000   0.0000000   0.0000000   0.0000000
 NMagM=    0.0000000   0.0000000   0.0000000   2.7928460   2.7928460   2.7928460   0.0000000   2.7928460   2.7928460   2.7928460
 AtZNuc=   6.0000000   6.0000000   6.0000000   1.0000000   1.0000000   1.0000000   6.0000000   1.0000000   1.0000000   1.0000000

  Atom        21          22          23          24          25          26          27          28          29          30
 IAtWgt=           1          32          14          12          12          12          12          12          12           1
 AtmWgt=   1.0078250  31.9720718  14.0030740  12.0000000  12.0000000  12.0000000  12.0000000  12.0000000  12.0000000   1.0078250
 NucSpn=           1           0           2           0           0           0           0           0           0           1
 AtZEff=  -0.0000000  -0.0000000  -0.0000000  -0.0000000  -0.0000000  -0.0000000  -0.0000000  -0.0000000  -0.0000000  -0.0000000
 NQMom=    0.0000000   0.0000000   2.0440000   0.0000000   0.0000000   0.0000000   0.0000000   0.0000000   0.0000000   0.0000000
 NMagM=    2.7928460   0.0000000   0.4037610   0.0000000   0.0000000   0.0000000   0.0000000   0.0000000   0.0000000   2.7928460
 AtZNuc=   1.0000000  16.0000000   7.0000000   6.0000000   6.0000000   6.0000000   6.0000000   6.0000000   6.0000000   1.0000000

  Atom        31          32          33          34          35          36          37          38          39          40
 IAtWgt=           1           1           1           1          12          12          12          12          12          12
 AtmWgt=   1.0078250   1.0078250   1.0078250   1.0078250  12.0000000  12.0000000  12.0000000  12.0000000  12.0000000  12.0000000
 NucSpn=           1           1           1           1           0           0           0           0           0           0
 AtZEff=  -0.0000000  -0.0000000  -0.0000000  -0.0000000  -0.0000000  -0.0000000  -0.0000000  -0.0000000  -0.0000000  -0.0000000
 NQMom=    0.0000000   0.0000000   0.0000000   0.0000000   0.0000000   0.0000000   0.0000000   0.0000000   0.0000000   0.0000000
 NMagM=    2.7928460   2.7928460   2.7928460   2.7928460   0.0000000   0.0000000   0.0000000   0.0000000   0.0000000   0.0000000
 AtZNuc=   1.0000000   1.0000000   1.0000000   1.0000000   6.0000000   6.0000000   6.0000000   6.0000000   6.0000000   6.0000000

  Atom        41          42          43          44          45          46          47          48          49          50
 IAtWgt=           1           1           1           1           1          14          12          12          12          12
 AtmWgt=   1.0078250   1.0078250   1.0078250   1.0078250   1.0078250  14.0030740  12.0000000  12.0000000  12.0000000  12.0000000
 NucSpn=           1           1           1           1           1           2           0           0           0           0
 AtZEff=  -0.0000000  -0.0000000  -0.0000000  -0.0000000  -0.0000000  -0.0000000  -0.0000000  -0.0000000  -0.0000000  -0.0000000
 NQMom=    0.0000000   0.0000000   0.0000000   0.0000000   0.0000000   2.0440000   0.0000000   0.0000000   0.0000000   0.0000000
 NMagM=    2.7928460   2.7928460   2.7928460   2.7928460   2.7928460   0.4037610   0.0000000   0.0000000   0.0000000   0.0000000
 AtZNuc=   1.0000000   1.0000000   1.0000000   1.0000000   1.0000000   7.0000000   6.0000000   6.0000000   6.0000000   6.0000000

  Atom        51          52          53          54          55          56          57          58          59          60
 IAtWgt=          12          12           1           1           1           1           1          12          12          12
 AtmWgt=  12.0000000  12.0000000   1.0078250   1.0078250   1.0078250   1.0078250   1.0078250  12.0000000  12.0000000  12.0000000
 NucSpn=           0           0           1           1           1           1           1           0           0           0
 AtZEff=  -0.0000000  -0.0000000  -0.0000000  -0.0000000  -0.0000000  -0.0000000  -0.0000000  -0.0000000  -0.0000000  -0.0000000
 NQMom=    0.0000000   0.0000000   0.0000000   0.0000000   0.0000000   0.0000000   0.0000000   0.0000000   0.0000000   0.0000000
 NMagM=    0.0000000   0.0000000   2.7928460   2.7928460   2.7928460   2.7928460   2.7928460   0.0000000   0.0000000   0.0000000
 AtZNuc=   6.0000000   6.0000000   1.0000000   1.0000000   1.0000000   1.0000000   1.0000000   6.0000000   6.0000000   6.0000000

  Atom        61          62          63          64          65          66          67          68
 IAtWgt=          12          12          12           1           1           1           1           1
 AtmWgt=  12.0000000  12.0000000  12.0000000   1.0078250   1.0078250   1.0078250   1.0078250   1.0078250
 NucSpn=           0           0           0           1           1           1           1           1
 AtZEff=  -0.0000000  -0.0000000  -0.0000000  -0.0000000  -0.0000000  -0.0000000  -0.0000000  -0.0000000
 NQMom=    0.0000000   0.0000000   0.0000000   0.0000000   0.0000000   0.0000000   0.0000000   0.0000000
 NMagM=    0.0000000   0.0000000   0.0000000   2.7928460   2.7928460   2.7928460   2.7928460   2.7928460
 AtZNuc=   6.0000000   6.0000000   6.0000000   1.0000000   1.0000000   1.0000000   1.0000000   1.0000000
 Leave Link  101 at Fri Jan 29 14:40:28 2021, MaxMem=  4026531840 cpu:               0.8 elap:               0.1
 (Enter /opt/ohpc/pub/libs/gaussian/g16-A.03/sandybridge/g16/l202.exe)
 Stoichiometry    C36H28N2S2(1+,2)
 Framework group  C1[X(C36H28N2S2)]
 Deg. of freedom   198
 Full point group                 C1      NOp   1
 Largest Abelian subgroup         C1      NOp   1
 Largest concise Abelian subgroup C1      NOp   1
                         Standard orientation:                         
 ---------------------------------------------------------------------
 Center     Atomic      Atomic             Coordinates (Angstroms)
 Number     Number       Type             X           Y           Z
 ---------------------------------------------------------------------
      1          6           0       -2.604951   -0.985352    0.477595
      2          6           0       -1.595468   -1.227646    1.396897
      3         16           0       -0.459746   -2.557842    1.073663
      4          6           0       -1.509976   -0.467226    2.564163
      5          6           0        1.043777   -0.455726    0.021717
      6          6           0        1.038330   -1.682104    0.668307
      7          6           0       -3.557585    0.001751    0.697168
      8          6           0       -2.447111    0.539154    2.764444
      9          1           0       -0.596318    0.142670    4.605045
     10          6           0        2.238728    0.147647   -0.319798
     11          6           0        2.246539   -2.297832    0.961919
     12          6           0        3.442101   -1.694718    0.621166
     13          6           0        3.453096   -0.462920   -0.023837
     14          1           0        2.234263    1.106243   -0.827797
     15          1           0        2.253931   -3.248348    1.486346
     16          1           0        4.381679   -2.178238    0.866461
     17          6           0       -3.461673    0.764082    1.856276
     18          1           0       -2.646669   -1.585519   -0.424718
     19          1           0        0.106936    0.032641   -0.224382
     20          1           0       -2.404245    1.146243    3.663282
     21          1           0       -4.192893    1.542008    2.047877
     22         16           0       -0.233558   -0.817463    3.737465
     23          7           0        4.673686    0.159547   -0.368747
     24          6           0        5.732508   -0.612661   -0.896564
     25          6           0        7.045695   -0.377960   -0.499452
     26          6           0        5.475865   -1.622329   -1.819567
     27          6           0        8.078745   -1.133154   -1.024558
     28          6           0        6.512871   -2.384632   -2.326214
     29          6           0        7.820306   -2.143178   -1.936900
     30          1           0        7.251646    0.403669    0.224060
     31          1           0        4.454830   -1.807304   -2.136118
     32          1           0        9.097402   -0.936530   -0.704866
     33          1           0        6.295127   -3.169013   -3.044416
     34          1           0        8.632202   -2.738403   -2.341339
     35          6           0        4.837054    1.548147   -0.168533
     36          6           0        5.516065    2.321618   -1.105787
     37          6           0        4.319017    2.163542    0.967486
     38          6           0        5.679987    3.679833   -0.902534
     39          6           0        4.472338    3.525567    1.154010
     40          6           0        5.156657    4.292005    0.224805
     41          1           0        5.917204    1.848815   -1.995947
     42          1           0        3.791670    1.566068    1.703651
     43          1           0        6.213214    4.268058   -1.642948
     44          1           0        4.061647    3.989730    2.045325
     45          1           0        5.281223    5.358830    0.377899
     46          7           0       -4.591369    0.225236   -0.235572
     47          6           0       -4.996809    1.544618   -0.539366
     48          6           0       -6.345932    1.849462   -0.693639
     49          6           0       -4.053605    2.557013   -0.688173
     50          6           0       -6.738551    3.140118   -0.998819
     51          6           0       -4.455920    3.848924   -0.975713
     52          6           0       -5.798707    4.148587   -1.137139
     53          1           0       -7.085839    1.064984   -0.575406
     54          1           0       -2.999778    2.324624   -0.576668
     55          1           0       -7.794748    3.361033   -1.117399
     56          1           0       -3.707423    4.627077   -1.088273
     57          1           0       -6.110711    5.161215   -1.369943
     58          6           0       -5.228462   -0.872905   -0.859345
     59          6           0       -5.548183   -0.824769   -2.212595
     60          6           0       -5.541916   -2.014931   -0.129127
     61          6           0       -6.178047   -1.897088   -2.818017
     62          6           0       -6.155123   -3.090236   -0.746513
     63          6           0       -6.481192   -3.037227   -2.091754
     64          1           0       -5.300925    0.061617   -2.787177
     65          1           0       -5.299559   -2.056134    0.927579
     66          1           0       -6.421719   -1.844307   -3.874525
     67          1           0       -6.390696   -3.975287   -0.163884
     68          1           0       -6.967632   -3.879890   -2.571608
 ---------------------------------------------------------------------
 Rotational constants (GHZ):           0.1314912           0.0372042           0.0344004
 Leave Link  202 at Fri Jan 29 14:40:28 2021, MaxMem=  4026531840 cpu:               0.1 elap:               0.0
 (Enter /opt/ohpc/pub/libs/gaussian/g16-A.03/sandybridge/g16/l301.exe)
 Standard basis: TZVP (5D, 7F)
 Ernie: Thresh=  0.10000D-02 Tol=  0.10000D-05 Strict=F.
 There are   974 symmetry adapted cartesian basis functions of A   symmetry.
 There are   934 symmetry adapted basis functions of A   symmetry.
   934 basis functions,  1648 primitive gaussians,   974 cartesian basis functions
   145 alpha electrons      144 beta electrons
       nuclear repulsion energy      4395.1421619507 Hartrees.
 IExCor=33909 DFT=T Ex+Corr=LC-wHPBE ExCW=0 ScaHFX=  1.000000
 ScaDFX=  1.000000  1.000000  1.000000  1.000000 ScalE2=  1.000000  1.000000
 IRadAn=      5 IRanWt=     -1 IRanGd=            0 ICorTp=0 IEmpDi=  4
 HFx  wShort=  0.000000 wLong=  0.221200 cFull=  0.000000 cShort=  0.000000 cLong=  1.000000
 DFx  wShort=  0.000000 wLong=  0.221200 cFull=  0.000000 cShort=  1.000000 cLong=  0.000000
 NAtoms=   68 NActive=   68 NUniq=   68 SFac= 1.00D+00 NAtFMM=   60 NAOKFM=T Big=T
 Integral buffers will be    131072 words long.
 Raffenetti 2 integral format.
 Two-electron integral symmetry is turned on.
 Leave Link  301 at Fri Jan 29 14:40:28 2021, MaxMem=  4026531840 cpu:               0.4 elap:               0.1
 (Enter /opt/ohpc/pub/libs/gaussian/g16-A.03/sandybridge/g16/l302.exe)
 NPDir=0 NMtPBC=     1 NCelOv=     1 NCel=       1 NClECP=     1 NCelD=      1
         NCelK=      1 NCelE2=     1 NClLst=     1 CellRange=     0.0.
 One-electron integrals computed using PRISM.
 One-electron integral symmetry used in STVInt
 NBasis=   934 RedAO= T EigKep=  5.84D-06  NBF=   934
 NBsUse=   934 1.00D-06 EigRej= -1.00D+00 NBFU=   934
 Precomputing XC quadrature grid using
 IXCGrd= 4 IRadAn=           5 IRanWt=          -1 IRanGd=           0 AccXCQ= 0.00D+00.
 Generated NRdTot=       0 NPtTot=           0 NUsed=           0 NTot=          32
 NSgBfM=   919   919   919   919   919 MxSgAt=    68 MxSgA2=    68.
 Leave Link  302 at Fri Jan 29 14:40:31 2021, MaxMem=  4026531840 cpu:              25.8 elap:               3.3
 (Enter /opt/ohpc/pub/libs/gaussian/g16-A.03/sandybridge/g16/l303.exe)
 DipDrv:  MaxL=1.
 Leave Link  303 at Fri Jan 29 14:40:31 2021, MaxMem=  4026531840 cpu:               1.8 elap:               0.3
 (Enter /opt/ohpc/pub/libs/gaussian/g16-A.03/sandybridge/g16/l401.exe)
 ExpMin= 9.52D-02 ExpMax= 6.07D+04 ExpMxC= 2.07D+03 IAcc=3 IRadAn=         5 AccDes= 0.00D+00
 Harris functional with IExCor=33909 and IRadAn=       5 diagonalized for initial guess.
 HarFok:  IExCor=33909 AccDes= 0.00D+00 IRadAn=         5 IDoV= 1 UseB2=F ITyADJ=14
 ICtDFT=  3500011 ScaDFX=  1.000000  1.000000  1.000000  1.000000
 FoFCou: FMM=F IPFlag=           0 FMFlag=      100000 FMFlg1=        2001
         NFxFlg=           0 DoJE=T BraDBF=F KetDBF=T FulRan=T
         wScrn=  0.000000 ICntrl=       500 IOpCl=  0 I1Cent=   200000004 NGrid=           0
         NMat0=    1 NMatS0=      1 NMatT0=    0 NMatD0=    1 NMtDS0=    0 NMtDT0=    0
 Petite list used in FoFCou.
 Harris En= -2259.27425982382    
 JPrj=0 DoOrth=F DoCkMO=F.
 Initial guess <Sx>= 0.0000 <Sy>= 0.0000 <Sz>= 0.5000 <S**2>= 0.7500 S= 0.5000
 Leave Link  401 at Fri Jan 29 14:40:47 2021, MaxMem=  4026531840 cpu:             124.3 elap:              15.7
 (Enter /opt/ohpc/pub/libs/gaussian/g16-A.03/sandybridge/g16/l502.exe)
 Integral symmetry usage will be decided dynamically.
 UHF open shell SCF:
 Using DIIS extrapolation, IDIIS=    10.
 NGot=  4026531840 LenX=  4024617300 LenY=  4023667650
 Requested convergence on RMS density matrix=1.00D-06 within  32 cycles.
 Requested convergence on MAX density matrix=1.00D-04.
 Requested convergence on             energy=1.00D-04.
 Virtual orbitals will be shifted by   0.500 hartree.
 No special actions if energy rises.
 Dynamic level shift is on during FON iterations.

 Cycle   1  Pass 1  IDiag  1:
 FoFJK:  IHMeth= 1 ICntrl=       0 DoSepK=T KAlg= 0 I1Cent=           0 FoldK=F
 IRaf=         1 NMat=       1 IRICut=       1 DoRegI=T DoRafI=F ISym2E= 0 IDoP0=0 IntGTp=1.
 FoFCou: FMM=T IPFlag=           0 FMFlag=      100000 FMFlg1=        2001
         NFxFlg=           0 DoJE=T BraDBF=F KetDBF=F FulRan=T
         wScrn=  0.000000 ICntrl=       500 IOpCl=  0 I1Cent=           0 NGrid=           0
         NMat0=    1 NMatS0=      1 NMatT0=    0 NMatD0=    1 NMtDS0=    0 NMtDT0=    0
 Symmetry not used in FoFCou.
 FMM levels:  10  Number of levels for PrismC:   9
 E= -2292.39658880501    
 DIIS: error= 3.00D-02 at cycle   1 NSaved=   1.
 NSaved= 1 IEnMin= 1 EnMin= -2292.39658880501     IErMin= 1 ErrMin= 3.00D-02
 ErrMax= 3.00D-02  0.00D+00 EMaxC= 1.00D+00 BMatC= 2.94D+00 BMatP= 2.94D+00
 IDIUse=1 WtCom= 1.00D+00 WtEn= 0.00D+00
 Coeff-Com:  0.100D+01
 Coeff:      0.100D+01
 Gap=     0.498 Goal=   None    Shift=    0.500
 T= 1496. Gap= 0.599 NK=0 IS=  146 IE=  934 IFin=  145
          NO(<0.9)=   0  NV(>0.1)=   0    145.00e < EF      0.00e >EF  Err=0.0D+00
 Gap=     0.120 Goal=   None    Shift=    0.500
 T= 1496. Gap= 0.431 NK=0 IS=  145 IE=  934 IFin=  144
          NO(<0.9)=   0  NV(>0.1)=   0    144.00e < EF      0.00e >EF  Err=0.0D+00
 GapD=    0.120 DampG=1.000 DampE=0.500 DampFc=0.5000 IDamp=-1.
 Damping current iteration by 5.00D-01
 RMSDP=2.58D-03 MaxDP=2.09D-01              OVMax= 9.26D-02

 Cycle   2  Pass 1  IDiag  1:
 E= -2292.85886209137     Delta-E=       -0.462273286360 Rises=F Damp=T
 DIIS: error= 1.34D-02 at cycle   2 NSaved=   2.
 NSaved= 2 IEnMin= 2 EnMin= -2292.85886209137     IErMin= 2 ErrMin= 1.34D-02
 ErrMax= 1.34D-02  0.00D+00 EMaxC= 1.00D+00 BMatC= 4.67D-01 BMatP= 2.94D+00
 IDIUse=1 WtCom= 1.00D+00 WtEn= 0.00D+00
 Coeff-Com: -0.534D+00 0.153D+01
 Coeff:     -0.534D+00 0.153D+01
 Gap=     0.248 Goal=   None    Shift=    0.500
 T= 1374. Gap= 0.698 NK=0 IS=  146 IE=  934 IFin=  145
          NO(<0.9)=   0  NV(>0.1)=   0    145.00e < EF      0.00e >EF  Err=0.0D+00
 Gap=     0.068 Goal=   None    Shift=    0.500
 T= 1374. Gap= 0.548 NK=0 IS=  145 IE=  934 IFin=  144
          NO(<0.9)=   0  NV(>0.1)=   0    144.00e < EF      0.00e >EF  Err=0.0D+00
 GapD=    0.068 DampG=0.500 DampE=0.500 DampFc=0.2500 IDamp=-1.
 Damping current iteration by 2.50D-01
 RMSDP=1.61D-03 MaxDP=1.55D-01 DE=-4.62D-01 OVMax= 4.61D-02

 Cycle   3  Pass 1  IDiag  1:
 E= -2292.94129192243     Delta-E=       -0.082429831063 Rises=F Damp=T
 DIIS: error= 9.60D-03 at cycle   3 NSaved=   3.
 NSaved= 3 IEnMin= 3 EnMin= -2292.94129192243     IErMin= 3 ErrMin= 9.60D-03
 ErrMax= 9.60D-03  0.00D+00 EMaxC= 1.00D+00 BMatC= 2.36D-01 BMatP= 4.67D-01
 IDIUse=1 WtCom= 1.00D+00 WtEn= 0.00D+00
 Coeff-Com:  0.769D-01-0.278D+01 0.370D+01
 Coeff:      0.769D-01-0.278D+01 0.370D+01
 Gap=     0.235 Goal=   None    Shift=    0.500
 T= 1179. Gap= 0.733 NK=0 IS=  146 IE=  934 IFin=  145
          NO(<0.9)=   0  NV(>0.1)=   0    145.00e < EF      0.00e >EF  Err=0.0D+00
 Gap=     0.077 Goal=   None    Shift=    0.500
 T= 1179. Gap= 0.576 NK=0 IS=  145 IE=  934 IFin=  144
          NO(<0.9)=   0  NV(>0.1)=   0    144.00e < EF      0.00e >EF  Err=0.0D+00
 GapD=    0.077 DampG=0.500 DampE=1.000 DampFc=0.5000 IDamp=-1.
 Damping current iteration by 5.00D-01
 RMSDP=1.42D-03 MaxDP=1.39D-01 DE=-8.24D-02 OVMax= 2.29D-02

 Cycle   4  Pass 1  IDiag  1:
 E= -2293.05026460100     Delta-E=       -0.108972678570 Rises=F Damp=T
 DIIS: error= 6.72D-03 at cycle   4 NSaved=   4.
 NSaved= 4 IEnMin= 4 EnMin= -2293.05026460100     IErMin= 4 ErrMin= 6.72D-03
 ErrMax= 6.72D-03  0.00D+00 EMaxC= 1.00D+00 BMatC= 5.38D-02 BMatP= 2.36D-01
 IDIUse=1 WtCom= 1.00D+00 WtEn= 0.00D+00
 Coeff-Com:  0.799D-01-0.252D+00-0.846D+00 0.202D+01
 Coeff:      0.799D-01-0.252D+00-0.846D+00 0.202D+01
 Gap=     0.235 Goal=   None    Shift=    0.500
 T=  831. Gap= 0.735 NK=0 IS=  146 IE=  934 IFin=  145
          NO(<0.9)=   0  NV(>0.1)=   0    145.00e < EF      0.00e >EF  Err=0.0D+00
 Gap=     0.076 Goal=   None    Shift=    0.500
 T=  831. Gap= 0.576 NK=0 IS=  145 IE=  934 IFin=  144
          NO(<0.9)=   0  NV(>0.1)=   0    144.00e < EF      0.00e >EF  Err=0.0D+00
 GapD=    0.076 DampG=0.500 DampE=1.000 DampFc=0.5000 IDamp=-1.
 Damping current iteration by 5.00D-01
 RMSDP=8.01D-04 MaxDP=8.33D-02 DE=-1.09D-01 OVMax= 2.42D-02

 Cycle   5  Pass 1  IDiag  1:
 E= -2293.10079631240     Delta-E=       -0.050531711397 Rises=F Damp=T
 DIIS: error= 5.12D-03 at cycle   5 NSaved=   5.
 NSaved= 5 IEnMin= 5 EnMin= -2293.10079631240     IErMin= 5 ErrMin= 5.12D-03
 ErrMax= 5.12D-03  0.00D+00 EMaxC= 1.00D+00 BMatC= 1.39D-02 BMatP= 5.38D-02
 IDIUse=1 WtCom= 1.00D+00 WtEn= 0.00D+00
 Coeff-Com: -0.693D-02 0.477D+00-0.443D+00-0.175D+01 0.272D+01
 Coeff:     -0.693D-02 0.477D+00-0.443D+00-0.175D+01 0.272D+01
 Gap=     0.239 Goal=   None    Shift=    0.500
 T=  635. Gap= 0.739 NK=0 IS=  146 IE=  934 IFin=  145
          NO(<0.9)=   0  NV(>0.1)=   0    145.00e < EF      0.00e >EF  Err=0.0D+00
 Gap=     0.078 Goal=   None    Shift=    0.500
 T=  635. Gap= 0.579 NK=0 IS=  145 IE=  934 IFin=  144
          NO(<0.9)=   0  NV(>0.1)=   0    144.00e < EF      0.00e >EF  Err=0.0D+00
 GapD=    0.078 DampG=0.500 DampE=1.000 DampFc=0.5000 IDamp=-1.
 Damping current iteration by 5.00D-01
 RMSDP=4.60D-04 MaxDP=5.32D-02 DE=-5.05D-02 OVMax= 2.27D-02

 Cycle   6  Pass 1  IDiag  1:
 E= -2293.12601147665     Delta-E=       -0.025215164245 Rises=F Damp=T
 DIIS: error= 4.22D-03 at cycle   6 NSaved=   6.
 NSaved= 6 IEnMin= 6 EnMin= -2293.12601147665     IErMin= 6 ErrMin= 4.22D-03
 ErrMax= 4.22D-03  0.00D+00 EMaxC= 1.00D+00 BMatC= 4.32D-03 BMatP= 1.39D-02
 IDIUse=1 WtCom= 1.00D+00 WtEn= 0.00D+00
 Coeff-Com: -0.267D-01 0.169D+00 0.114D+00-0.789D-01-0.281D+01 0.363D+01
 Coeff:     -0.267D-01 0.169D+00 0.114D+00-0.789D-01-0.281D+01 0.363D+01
 Gap=     0.243 Goal=   None    Shift=    0.500
 T=  462. Gap= 0.743 NK=0 IS=  146 IE=  934 IFin=  145
          NO(<0.9)=   0  NV(>0.1)=   0    145.00e < EF      0.00e >EF  Err=0.0D+00
 Gap=     0.079 Goal=   None    Shift=    0.500
 T=  462. Gap= 0.580 NK=0 IS=  145 IE=  934 IFin=  144
          NO(<0.9)=   0  NV(>0.1)=   0    144.00e < EF      0.00e >EF  Err=0.0D+00
 GapD=    0.079 DampG=0.500 DampE=1.000 DampFc=0.5000 IDamp=-1.
 Damping current iteration by 5.00D-01
 RMSDP=2.91D-04 MaxDP=3.75D-02 DE=-2.52D-02 OVMax= 2.31D-02

 Cycle   7  Pass 1  IDiag  1:
 E= -2293.13916129902     Delta-E=       -0.013149822371 Rises=F Damp=T
 DIIS: error= 3.67D-03 at cycle   7 NSaved=   7.
 NSaved= 7 IEnMin= 7 EnMin= -2293.13916129902     IErMin= 7 ErrMin= 3.67D-03
 ErrMax= 3.67D-03  0.00D+00 EMaxC= 1.00D+00 BMatC= 1.71D-03 BMatP= 4.32D-03
 IDIUse=1 WtCom= 1.00D+00 WtEn= 0.00D+00
 Coeff-Com: -0.590D-02-0.145D+00 0.236D+00 0.732D+00-0.163D+01-0.170D+01
 Coeff-Com:  0.352D+01
 Coeff:     -0.590D-02-0.145D+00 0.236D+00 0.732D+00-0.163D+01-0.170D+01
 Coeff:      0.352D+01
 Gap=     0.244 Goal=   None    Shift=    0.500
 T=  335. Gap= 0.744 NK=0 IS=  146 IE=  934 IFin=  145
          NO(<0.9)=   0  NV(>0.1)=   0    145.00e < EF      0.00e >EF  Err=0.0D+00
 Gap=     0.079 Goal=   None    Shift=    0.500
 T=  335. Gap= 0.579 NK=0 IS=  145 IE=  934 IFin=  144
          NO(<0.9)=   0  NV(>0.1)=   0    144.00e < EF      0.00e >EF  Err=0.0D+00
 GapD=    0.079 DampG=0.500 DampE=1.000 DampFc=0.5000 IDamp=-1.
 Damping current iteration by 5.00D-01
 RMSDP=2.16D-04 MaxDP=2.59D-02 DE=-1.31D-02 OVMax= 2.30D-02

 Cycle   8  Pass 1  IDiag  1:
 E= -2293.14628084816     Delta-E=       -0.007119549139 Rises=F Damp=T
 DIIS: error= 3.28D-03 at cycle   8 NSaved=   8.
 NSaved= 8 IEnMin= 8 EnMin= -2293.14628084816     IErMin= 8 ErrMin= 3.28D-03
 ErrMax= 3.28D-03  0.00D+00 EMaxC= 1.00D+00 BMatC= 8.62D-04 BMatP= 1.71D-03
 IDIUse=1 WtCom= 1.00D+00 WtEn= 0.00D+00
 Coeff-Com:  0.858D-02-0.863D-01-0.146D-01-0.371D-01 0.170D+01-0.171D+01
 Coeff-Com: -0.391D+01 0.505D+01
 Coeff:      0.858D-02-0.863D-01-0.146D-01-0.371D-01 0.170D+01-0.171D+01
 Coeff:     -0.391D+01 0.505D+01
 Gap=     0.246 Goal=   None    Shift=    0.500
 T=  244. Gap= 0.746 NK=0 IS=  146 IE=  934 IFin=  145
          NO(<0.9)=   0  NV(>0.1)=   0    145.00e < EF      0.00e >EF  Err=0.0D+00
 Gap=     0.078 Goal=   None    Shift=    0.500
 T=  244. Gap= 0.579 NK=0 IS=  145 IE=  934 IFin=  144
          NO(<0.9)=   0  NV(>0.1)=   0    144.00e < EF      0.00e >EF  Err=0.0D+00
 GapD=    0.078 DampG=0.500 DampE=1.000 DampFc=0.5000 IDamp=-1.
 Damping current iteration by 5.00D-01
 RMSDP=1.83D-04 MaxDP=1.87D-02 DE=-7.12D-03 OVMax= 2.33D-02

 Cycle   9  Pass 1  IDiag  1:
 E= -2293.15030134139     Delta-E=       -0.004020493234 Rises=F Damp=T
 DIIS: error= 2.97D-03 at cycle   9 NSaved=   9.
 NSaved= 9 IEnMin= 9 EnMin= -2293.15030134139     IErMin= 9 ErrMin= 2.97D-03
 ErrMax= 2.97D-03  0.00D+00 EMaxC= 1.00D+00 BMatC= 5.31D-04 BMatP= 8.62D-04
 IDIUse=1 WtCom= 1.00D+00 WtEn= 0.00D+00
 Coeff-Com:  0.432D-02 0.248D-01-0.446D-01-0.732D+00 0.223D+01-0.172D-01
 Coeff-Com: -0.385D+01-0.226D+00 0.362D+01
 Coeff:      0.432D-02 0.248D-01-0.446D-01-0.732D+00 0.223D+01-0.172D-01
 Coeff:     -0.385D+01-0.226D+00 0.362D+01
 Gap=     0.247 Goal=   None    Shift=    0.500
 T=  173. Gap= 0.747 NK=0 IS=  146 IE=  934 IFin=  145
          NO(<0.9)=   0  NV(>0.1)=   0    145.00e < EF      0.00e >EF  Err=0.0D+00
 Gap=     0.078 Goal=   None    Shift=    0.500
 T=  173. Gap= 0.578 NK=0 IS=  145 IE=  934 IFin=  144
          NO(<0.9)=   0  NV(>0.1)=   0    144.00e < EF      0.00e >EF  Err=0.0D+00
 GapD=    0.078 DampG=0.500 DampE=1.000 DampFc=0.5000 IDamp=-1.
 Damping current iteration by 5.00D-01
 RMSDP=1.54D-04 MaxDP=1.71D-02 DE=-4.02D-03 OVMax= 2.21D-02

 Cycle  10  Pass 1  IDiag  1:
 E= -2293.15268764840     Delta-E=       -0.002386307015 Rises=F Damp=T
 DIIS: error= 2.70D-03 at cycle  10 NSaved=  10.
 NSaved=10 IEnMin=10 EnMin= -2293.15268764840     IErMin=10 ErrMin= 2.70D-03
 ErrMax= 2.70D-03  0.00D+00 EMaxC= 1.00D+00 BMatC= 3.71D-04 BMatP= 5.31D-04
 IDIUse=1 WtCom= 1.00D+00 WtEn= 0.00D+00
 Coeff-Com: -0.764D-02 0.123D-01 0.222D+00-0.610D+00-0.622D+00 0.207D+01
 Coeff-Com:  0.189D+01-0.406D+01-0.419D+01 0.630D+01
 Coeff:     -0.764D-02 0.123D-01 0.222D+00-0.610D+00-0.622D+00 0.207D+01
 Coeff:      0.189D+01-0.406D+01-0.419D+01 0.630D+01
 Gap=     0.249 Goal=   None    Shift=    0.500
 T=  111. Gap= 0.749 NK=0 IS=  146 IE=  934 IFin=  145
          NO(<0.9)=   0  NV(>0.1)=   0    145.00e < EF      0.00e >EF  Err=0.0D+00
 Gap=     0.077 Goal=   None    Shift=    0.500
 T=  111. Gap= 0.577 NK=0 IS=  145 IE=  934 IFin=  144
          NO(<0.9)=   0  NV(>0.1)=   0    144.00e < EF      0.00e >EF  Err=0.0D+00
 GapD=    0.077 DampG=0.500 DampE=1.000 DampFc=0.5000 IDamp=-1.
 Damping current iteration by 5.00D-01
 RMSDP=1.44D-04 MaxDP=1.56D-02 DE=-2.39D-03 OVMax= 2.33D-02

 Cycle  11  Pass 1  IDiag  1:
 E= -2293.15418757387     Delta-E=       -0.001499925464 Rises=F Damp=T
 DIIS: error= 2.47D-03 at cycle  11 NSaved=  11.
 NSaved=11 IEnMin=11 EnMin= -2293.15418757387     IErMin=11 ErrMin= 2.47D-03
 ErrMax= 2.47D-03  0.00D+00 EMaxC= 1.00D+00 BMatC= 2.94D-04 BMatP= 3.71D-04
 IDIUse=1 WtCom= 1.00D+00 WtEn= 0.00D+00
 Coeff-Com: -0.725D-02-0.767D-01 0.386D+00-0.491D+00-0.125D+01 0.198D+01
 Coeff-Com:  0.260D+01-0.258D+01-0.507D+01 0.296D+01 0.254D+01
 Coeff:     -0.725D-02-0.767D-01 0.386D+00-0.491D+00-0.125D+01 0.198D+01
 Coeff:      0.260D+01-0.258D+01-0.507D+01 0.296D+01 0.254D+01
 Gap=     0.249 Goal=   None    Shift=    0.500
 Gap=     0.077 Goal=   None    Shift=    0.500
 GapD=    0.077 DampG=0.500 DampE=1.000 DampFc=0.5000 IDamp=-1.
 Damping current iteration by 5.00D-01
 RMSDP=1.20D-04 MaxDP=1.25D-02 DE=-1.50D-03 OVMax= 2.04D-02

 Cycle  12  Pass 1  IDiag  1:
 E= -2293.15519540532     Delta-E=       -0.001007831453 Rises=F Damp=T
 DIIS: error= 2.23D-03 at cycle  12 NSaved=  12.
 NSaved=12 IEnMin=12 EnMin= -2293.15519540532     IErMin=12 ErrMin= 2.23D-03
 ErrMax= 2.23D-03  0.00D+00 EMaxC= 1.00D+00 BMatC= 2.40D-04 BMatP= 2.94D-04
 IDIUse=1 WtCom= 1.00D+00 WtEn= 0.00D+00
 Large coefficients: NSaved= 12 BigCof=   10.11 CofMax=   10.00 Det=-3.31D-07
 Inversion failed.  Reducing to 11 matrices.
 Coeff-Com: -0.109D+00 0.226D+00-0.306D-01-0.406D+00-0.324D-02-0.484D+00
 Coeff-Com:  0.318D+01-0.155D+01 0.991D+00-0.992D+01 0.910D+01
 Coeff:     -0.109D+00 0.226D+00-0.306D-01-0.406D+00-0.324D-02-0.484D+00
 Coeff:      0.318D+01-0.155D+01 0.991D+00-0.992D+01 0.910D+01
 Gap=     0.251 Goal=   None    Shift=    0.500
 Gap=     0.075 Goal=   None    Shift=    0.500
 GapD=    0.075 DampG=0.500 DampE=1.000 DampFc=0.5000 IDamp=-1.
 Damping current iteration by 5.00D-01
 RMSDP=1.19D-04 MaxDP=1.35D-02 DE=-1.01D-03 OVMax= 2.26D-02

 Cycle  13  Pass 1  IDiag  1:
 E= -2293.15589878117     Delta-E=       -0.000703375853 Rises=F Damp=T
 DIIS: error= 2.03D-03 at cycle  13 NSaved=  12.
 NSaved=12 IEnMin=12 EnMin= -2293.15589878117     IErMin=12 ErrMin= 2.03D-03
 ErrMax= 2.03D-03  0.00D+00 EMaxC= 1.00D+00 BMatC= 2.25D-04 BMatP= 2.40D-04
 IDIUse=1 WtCom= 1.00D+00 WtEn= 0.00D+00
 Large coefficients: NSaved= 12 BigCof=   11.00 CofMax=   10.00 Det=-3.02D-07
 Inversion failed.  Reducing to 11 matrices.
 Large coefficients: NSaved= 11 BigCof=   12.02 CofMax=   10.00 Det=-3.30D-07
 Inversion failed.  Reducing to 10 matrices.
 Large coefficients: NSaved= 10 BigCof=   13.30 CofMax=   10.00 Det=-4.55D-07
 Inversion failed.  Reducing to  9 matrices.
 Large coefficients: NSaved=  9 BigCof=   13.14 CofMax=   10.00 Det=-4.57D-07
 Inversion failed.  Reducing to  8 matrices.
 Large coefficients: NSaved=  8 BigCof=   12.50 CofMax=   10.00 Det=-5.07D-07
 Inversion failed.  Reducing to  7 matrices.
 Large coefficients: NSaved=  7 BigCof=   12.21 CofMax=   10.00 Det=-5.32D-07
 Inversion failed.  Reducing to  6 matrices.
 Large coefficients: NSaved=  6 BigCof=   11.11 CofMax=   10.00 Det=-5.51D-07
 Inversion failed.  Reducing to  5 matrices.
 Large coefficients: NSaved=  5 BigCof=   10.85 CofMax=   10.00 Det=-6.00D-07
 Inversion failed.  Reducing to  4 matrices.
 Large coefficients: NSaved=  4 BigCof=   10.96 CofMax=   10.00 Det=-6.01D-07
 Inversion failed.  Reducing to  3 matrices.
 Coeff-Com: -0.347D+01 0.548D+01-0.101D+01
 Coeff:     -0.347D+01 0.548D+01-0.101D+01
 Gap=     0.249 Goal=   None    Shift=    0.500
 Gap=     0.078 Goal=   None    Shift=    0.500
 GapD=    0.078 DampG=0.500 DampE=1.000 DampFc=0.5000 IDamp=-1.
 Damping current iteration by 5.00D-01
 RMSDP=6.66D-05 MaxDP=6.08D-03 DE=-7.03D-04 OVMax= 1.13D-02

 Cycle  14  Pass 1  IDiag  1:
 E= -2293.15643509672     Delta-E=       -0.000536315543 Rises=F Damp=T
 DIIS: error= 1.74D-03 at cycle  14 NSaved=   4.
 NSaved= 4 IEnMin= 4 EnMin= -2293.15643509672     IErMin= 4 ErrMin= 1.74D-03
 ErrMax= 1.74D-03  0.00D+00 EMaxC= 1.00D+00 BMatC= 1.43D-04 BMatP= 2.25D-04
 IDIUse=1 WtCom= 1.00D+00 WtEn= 0.00D+00
 Coeff-Com: -0.174D+01 0.187D+01-0.111D+01 0.198D+01
 Coeff:     -0.174D+01 0.187D+01-0.111D+01 0.198D+01
 Gap=     0.252 Goal=   None    Shift=    0.500
 Gap=     0.077 Goal=   None    Shift=    0.500
 GapD=    0.077 DampG=0.500 DampE=1.000 DampFc=0.5000 IDamp=-1.
 Damping current iteration by 5.00D-01
 RMSDP=6.94D-05 MaxDP=6.50D-03 DE=-5.36D-04 OVMax= 1.42D-02

 Cycle  15  Pass 1  IDiag  1:
 E= -2293.15680589085     Delta-E=       -0.000370794134 Rises=F Damp=T
 DIIS: error= 1.55D-03 at cycle  15 NSaved=   5.
 NSaved= 5 IEnMin= 5 EnMin= -2293.15680589085     IErMin= 5 ErrMin= 1.55D-03
 ErrMax= 1.55D-03  0.00D+00 EMaxC= 1.00D+00 BMatC= 1.19D-04 BMatP= 1.43D-04
 IDIUse=1 WtCom= 1.00D+00 WtEn= 0.00D+00
 Coeff-Com:  0.327D+01-0.450D+01-0.527D+00-0.434D+01 0.710D+01
 Coeff:      0.327D+01-0.450D+01-0.527D+00-0.434D+01 0.710D+01
 Gap=     0.254 Goal=   None    Shift=    0.500
 Gap=     0.074 Goal=   None    Shift=    0.500
 GapD=    0.074 DampG=0.500 DampE=1.000 DampFc=0.5000 IDamp=-1.
 Damping current iteration by 5.00D-01
 RMSDP=8.71D-05 MaxDP=7.66D-03 DE=-3.71D-04 OVMax= 1.87D-02

 Cycle  16  Pass 1  IDiag  1:
 E= -2293.15708562142     Delta-E=       -0.000279730568 Rises=F Damp=T
 DIIS: error= 1.43D-03 at cycle  16 NSaved=   6.
 NSaved= 6 IEnMin= 6 EnMin= -2293.15708562142     IErMin= 6 ErrMin= 1.43D-03
 ErrMax= 1.43D-03  0.00D+00 EMaxC= 1.00D+00 BMatC= 1.30D-04 BMatP= 1.19D-04
 IDIUse=1 WtCom= 1.00D+00 WtEn= 0.00D+00
 Coeff-Com:  0.274D+01-0.251D+01-0.269D+01-0.232D+01 0.352D+01 0.225D+01
 Coeff:      0.274D+01-0.251D+01-0.269D+01-0.232D+01 0.352D+01 0.225D+01
 Gap=     0.254 Goal=   None    Shift=    0.500
 Gap=     0.073 Goal=   None    Shift=    0.500
 GapD=    0.073 DampG=0.500 DampE=1.000 DampFc=0.5000 IDamp=-1.
 Damping current iteration by 5.00D-01
 RMSDP=7.87D-05 MaxDP=6.67D-03 DE=-2.80D-04 OVMax= 1.60D-02

 Cycle  17  Pass 1  IDiag  1:
 E= -2293.15731818778     Delta-E=       -0.000232566359 Rises=F Damp=T
 DIIS: error= 1.32D-03 at cycle  17 NSaved=   7.
 NSaved= 7 IEnMin= 7 EnMin= -2293.15731818778     IErMin= 7 ErrMin= 1.32D-03
 ErrMax= 1.32D-03  0.00D+00 EMaxC= 1.00D+00 BMatC= 1.39D-04 BMatP= 1.19D-04
 IDIUse=1 WtCom= 1.00D+00 WtEn= 0.00D+00
 Coeff-Com:  0.146D+01-0.414D+00-0.330D+01-0.750D+00 0.337D+01-0.280D+01
 Coeff-Com:  0.343D+01
 Coeff:      0.146D+01-0.414D+00-0.330D+01-0.750D+00 0.337D+01-0.280D+01
 Coeff:      0.343D+01
 Gap=     0.254 Goal=   None    Shift=    0.500
 Gap=     0.073 Goal=   None    Shift=    0.500
 GapD=    0.073 DampG=0.500 DampE=1.000 DampFc=0.5000 IDamp=-1.
 Damping current iteration by 5.00D-01
 RMSDP=6.55D-05 MaxDP=5.32D-03 DE=-2.33D-04 OVMax= 1.36D-02

 Cycle  18  Pass 1  IDiag  1:
 E= -2293.15751245161     Delta-E=       -0.000194263836 Rises=F Damp=T
 DIIS: error= 1.17D-03 at cycle  18 NSaved=   8.
 NSaved= 8 IEnMin= 8 EnMin= -2293.15751245161     IErMin= 8 ErrMin= 1.17D-03
 ErrMax= 1.17D-03  0.00D+00 EMaxC= 1.00D+00 BMatC= 1.28D-04 BMatP= 1.19D-04
 IDIUse=1 WtCom= 1.00D+00 WtEn= 0.00D+00
 Coeff-Com:  0.401D+00-0.260D+00-0.648D+00-0.117D+01 0.379D+01-0.104D+01
 Coeff-Com: -0.707D+01 0.700D+01
 Coeff:      0.401D+00-0.260D+00-0.648D+00-0.117D+01 0.379D+01-0.104D+01
 Coeff:     -0.707D+01 0.700D+01
 Gap=     0.254 Goal=   None    Shift=    0.500
 Gap=     0.073 Goal=   None    Shift=    0.500
 GapD=    0.073 DampG=0.500 DampE=1.000 DampFc=0.5000 IDamp=-1.
 Damping current iteration by 5.00D-01
 RMSDP=5.71D-05 MaxDP=4.84D-03 DE=-1.94D-04 OVMax= 1.24D-02

 Cycle  19  Pass 1  IDiag  1:
 E= -2293.15766747248     Delta-E=       -0.000155020863 Rises=F Damp=T
 DIIS: error= 1.04D-03 at cycle  19 NSaved=   9.
 NSaved= 9 IEnMin= 9 EnMin= -2293.15766747248     IErMin= 9 ErrMin= 1.04D-03
 ErrMax= 1.04D-03  0.00D+00 EMaxC= 1.00D+00 BMatC= 1.10D-04 BMatP= 1.19D-04
 IDIUse=1 WtCom= 1.00D+00 WtEn= 0.00D+00
 Coeff-Com:  0.430D+00-0.631D+00 0.299D+00-0.229D+01 0.349D+01 0.161D+01
 Coeff-Com: -0.490D+01-0.292D+01 0.592D+01
 Coeff:      0.430D+00-0.631D+00 0.299D+00-0.229D+01 0.349D+01 0.161D+01
 Coeff:     -0.490D+01-0.292D+01 0.592D+01
 Gap=     0.255 Goal=   None    Shift=    0.500
 Gap=     0.073 Goal=   None    Shift=    0.500
 GapD=    0.073 DampG=0.500 DampE=1.000 DampFc=0.5000 IDamp=-1.
 Damping current iteration by 5.00D-01
 RMSDP=5.10D-05 MaxDP=4.50D-03 DE=-1.55D-04 OVMax= 1.12D-02

 Cycle  20  Pass 1  IDiag  1:
 E= -2293.15778744714     Delta-E=       -0.000119974663 Rises=F Damp=T
 DIIS: error= 9.07D-04 at cycle  20 NSaved=  10.
 NSaved=10 IEnMin=10 EnMin= -2293.15778744714     IErMin=10 ErrMin= 9.07D-04
 ErrMax= 9.07D-04  0.00D+00 EMaxC= 1.00D+00 BMatC= 9.43D-05 BMatP= 1.10D-04
 IDIUse=1 WtCom= 1.00D+00 WtEn= 0.00D+00
 Coeff-Com:  0.542D+00-0.716D-01-0.958D+00-0.199D+01 0.276D+01 0.701D+00
 Coeff-Com:  0.190D+01-0.668D+01 0.101D+01 0.379D+01
 Coeff:      0.542D+00-0.716D-01-0.958D+00-0.199D+01 0.276D+01 0.701D+00
 Coeff:      0.190D+01-0.668D+01 0.101D+01 0.379D+01
 Gap=     0.255 Goal=   None    Shift=    0.500
 Gap=     0.072 Goal=   None    Shift=    0.500
 RMSDP=4.20D-05 MaxDP=3.65D-03 DE=-1.20D-04 OVMax= 9.38D-03

 Cycle  21  Pass 1  IDiag  1:
 E= -2293.15801598317     Delta-E=       -0.000228536029 Rises=F Damp=F
 DIIS: error= 6.63D-04 at cycle  21 NSaved=  11.
 NSaved=11 IEnMin=11 EnMin= -2293.15801598317     IErMin=11 ErrMin= 6.63D-04
 ErrMax= 6.63D-04  0.00D+00 EMaxC= 1.00D+00 BMatC= 6.15D-05 BMatP= 9.43D-05
 IDIUse=1 WtCom= 1.00D+00 WtEn= 0.00D+00
 Coeff-Com:  0.653D+00-0.343D+00-0.108D+01-0.112D+01 0.218D+01-0.751D+00
 Coeff-Com:  0.285D+01-0.261D+01 0.474D+00-0.216D+01 0.290D+01
 Coeff:      0.653D+00-0.343D+00-0.108D+01-0.112D+01 0.218D+01-0.751D+00
 Coeff:      0.285D+01-0.261D+01 0.474D+00-0.216D+01 0.290D+01
 Gap=     0.255 Goal=   None    Shift=    0.500
 Gap=     0.072 Goal=   None    Shift=    0.500
 RMSDP=1.30D-05 MaxDP=1.07D-03 DE=-2.29D-04 OVMax= 7.78D-03

 Cycle  22  Pass 1  IDiag  1:
 E= -2293.15805213422     Delta-E=       -0.000036151047 Rises=F Damp=F
 DIIS: error= 5.62D-04 at cycle  22 NSaved=  12.
 NSaved=12 IEnMin=12 EnMin= -2293.15805213422     IErMin=12 ErrMin= 5.62D-04
 ErrMax= 5.62D-04  0.00D+00 EMaxC= 1.00D+00 BMatC= 4.52D-05 BMatP= 6.15D-05
 IDIUse=1 WtCom= 1.00D+00 WtEn= 0.00D+00
 Coeff-Com:  0.526D+00-0.590D+00-0.493D+00-0.504D+00 0.161D+01-0.994D+00
 Coeff-Com:  0.296D+00 0.169D+01 0.127D+01-0.548D+01 0.180D+01 0.187D+01
 Coeff:      0.526D+00-0.590D+00-0.493D+00-0.504D+00 0.161D+01-0.994D+00
 Coeff:      0.296D+00 0.169D+01 0.127D+01-0.548D+01 0.180D+01 0.187D+01
 Gap=     0.255 Goal=   None    Shift=    0.500
 Gap=     0.072 Goal=   None    Shift=    0.500
 RMSDP=1.07D-05 MaxDP=8.46D-04 DE=-3.62D-05 OVMax= 6.60D-03

 Cycle  23  Pass 1  IDiag  1:
 E= -2293.15807731199     Delta-E=       -0.000025177775 Rises=F Damp=F
 DIIS: error= 4.73D-04 at cycle  23 NSaved=  13.
 NSaved=13 IEnMin=13 EnMin= -2293.15807731199     IErMin=13 ErrMin= 4.73D-04
 ErrMax= 4.73D-04  0.00D+00 EMaxC= 1.00D+00 BMatC= 3.26D-05 BMatP= 4.52D-05
 IDIUse=1 WtCom= 1.00D+00 WtEn= 0.00D+00
 Coeff-Com:  0.429D+00-0.819D+00 0.314D+00-0.801D+00 0.148D+01 0.347D+00
 Coeff-Com: -0.264D+01 0.139D+01 0.173D+01-0.132D+01-0.135D+01-0.100D+01
 Coeff-Com:  0.324D+01
 Coeff:      0.429D+00-0.819D+00 0.314D+00-0.801D+00 0.148D+01 0.347D+00
 Coeff:     -0.264D+01 0.139D+01 0.173D+01-0.132D+01-0.135D+01-0.100D+01
 Coeff:      0.324D+01
 Gap=     0.255 Goal=   None    Shift=    0.500
 Gap=     0.072 Goal=   None    Shift=    0.500
 RMSDP=9.36D-06 MaxDP=7.27D-04 DE=-2.52D-05 OVMax= 5.69D-03

 Cycle  24  Pass 1  IDiag  1:
 E= -2293.15809447562     Delta-E=       -0.000017163629 Rises=F Damp=F
 DIIS: error= 4.00D-04 at cycle  24 NSaved=  14.
 NSaved=14 IEnMin=14 EnMin= -2293.15809447562     IErMin=14 ErrMin= 4.00D-04
 ErrMax= 4.00D-04  0.00D+00 EMaxC= 1.00D+00 BMatC= 2.54D-05 BMatP= 3.26D-05
 IDIUse=1 WtCom= 1.00D+00 WtEn= 0.00D+00
 Coeff-Com:  0.189D+00-0.353D+00 0.249D+00-0.860D+00 0.124D+01 0.767D+00
 Coeff-Com: -0.213D+01-0.921D+00 0.114D+01 0.236D+01-0.213D+01-0.252D+01
 Coeff-Com:  0.234D+01 0.163D+01
 Coeff:      0.189D+00-0.353D+00 0.249D+00-0.860D+00 0.124D+01 0.767D+00
 Coeff:     -0.213D+01-0.921D+00 0.114D+01 0.236D+01-0.213D+01-0.252D+01
 Coeff:      0.234D+01 0.163D+01
 Gap=     0.255 Goal=   None    Shift=    0.500
 Gap=     0.072 Goal=   None    Shift=    0.500
 RMSDP=7.53D-06 MaxDP=5.53D-04 DE=-1.72D-05 OVMax= 4.74D-03

 Cycle  25  Pass 1  IDiag  1:
 E= -2293.15810693276     Delta-E=       -0.000012457142 Rises=F Damp=F
 DIIS: error= 3.30D-04 at cycle  25 NSaved=  15.
 NSaved=15 IEnMin=15 EnMin= -2293.15810693276     IErMin=15 ErrMin= 3.30D-04
 ErrMax= 3.30D-04  0.00D+00 EMaxC= 1.00D+00 BMatC= 1.74D-05 BMatP= 2.54D-05
 IDIUse=1 WtCom= 1.00D+00 WtEn= 0.00D+00
 Coeff-Com:  0.168D+00 0.144D+00-0.589D+00-0.600D+00 0.897D+00-0.224D+00
 Coeff-Com:  0.215D+01-0.318D+01-0.320D+00 0.221D+01 0.159D+00-0.772D+00
 Coeff-Com: -0.122D+01-0.125D+01 0.343D+01
 Coeff:      0.168D+00 0.144D+00-0.589D+00-0.600D+00 0.897D+00-0.224D+00
 Coeff:      0.215D+01-0.318D+01-0.320D+00 0.221D+01 0.159D+00-0.772D+00
 Coeff:     -0.122D+01-0.125D+01 0.343D+01
 Gap=     0.256 Goal=   None    Shift=    0.500
 Gap=     0.072 Goal=   None    Shift=    0.500
 RMSDP=6.02D-06 MaxDP=4.49D-04 DE=-1.25D-05 OVMax= 3.87D-03

 Cycle  26  Pass 1  IDiag  1:
 E= -2293.15811551768     Delta-E=       -0.000008584913 Rises=F Damp=F
 DIIS: error= 2.73D-04 at cycle  26 NSaved=  16.
 NSaved=16 IEnMin=16 EnMin= -2293.15811551768     IErMin=16 ErrMin= 2.73D-04
 ErrMax= 2.73D-04  0.00D+00 EMaxC= 1.00D+00 BMatC= 1.17D-05 BMatP= 1.74D-05
 IDIUse=1 WtCom= 1.00D+00 WtEn= 0.00D+00
 Coeff-Com:  0.195D+00 0.331D-01-0.562D+00-0.364D+00 0.756D+00-0.771D+00
 Coeff-Com:  0.252D+01-0.173D+01-0.677D+00 0.479D-01 0.122D+01 0.592D+00
 Coeff-Com: -0.175D+01-0.178D+01 0.137D+01 0.190D+01
 Coeff:      0.195D+00 0.331D-01-0.562D+00-0.364D+00 0.756D+00-0.771D+00
 Coeff:      0.252D+01-0.173D+01-0.677D+00 0.479D-01 0.122D+01 0.592D+00
 Coeff:     -0.175D+01-0.178D+01 0.137D+01 0.190D+01
 Gap=     0.256 Goal=   None    Shift=    0.500
 Gap=     0.072 Goal=   None    Shift=    0.500
 RMSDP=4.68D-06 MaxDP=3.37D-04 DE=-8.58D-06 OVMax= 3.17D-03

 Cycle  27  Pass 1  IDiag  1:
 E= -2293.15812129821     Delta-E=       -0.000005780531 Rises=F Damp=F
 DIIS: error= 2.24D-04 at cycle  27 NSaved=  17.
 NSaved=17 IEnMin=17 EnMin= -2293.15812129821     IErMin=17 ErrMin= 2.24D-04
 ErrMax= 2.24D-04  0.00D+00 EMaxC= 1.00D+00 BMatC= 8.05D-06 BMatP= 1.17D-05
 IDIUse=1 WtCom= 1.00D+00 WtEn= 0.00D+00
 Coeff-Com:  0.172D+00-0.271D+00-0.611D-01-0.106D+00 0.515D+00-0.572D+00
 Coeff-Com:  0.197D+00 0.121D+01-0.209D+00-0.197D+01 0.928D+00 0.847D+00
 Coeff-Com: -0.511D-01-0.410D+00-0.191D+01-0.152D+00 0.283D+01
 Coeff:      0.172D+00-0.271D+00-0.611D-01-0.106D+00 0.515D+00-0.572D+00
 Coeff:      0.197D+00 0.121D+01-0.209D+00-0.197D+01 0.928D+00 0.847D+00
 Coeff:     -0.511D-01-0.410D+00-0.191D+01-0.152D+00 0.283D+01
 Gap=     0.256 Goal=   None    Shift=    0.500
 Gap=     0.072 Goal=   None    Shift=    0.500
 RMSDP=3.85D-06 MaxDP=3.04D-04 DE=-5.78D-06 OVMax= 2.61D-03

 Cycle  28  Pass 1  IDiag  1:
 E= -2293.15812532403     Delta-E=       -0.000004025826 Rises=F Damp=F
 DIIS: error= 1.85D-04 at cycle  28 NSaved=  18.
 NSaved=18 IEnMin=18 EnMin= -2293.15812532403     IErMin=18 ErrMin= 1.85D-04
 ErrMax= 1.85D-04  0.00D+00 EMaxC= 1.00D+00 BMatC= 5.66D-06 BMatP= 8.05D-06
 IDIUse=1 WtCom= 1.00D+00 WtEn= 0.00D+00
 Coeff-Com:  0.934D-01-0.189D+00 0.486D-01-0.119D+00 0.415D+00-0.171D+00
 Coeff-Com: -0.672D+00 0.103D+01 0.154D-01-0.662D+00-0.205D+00-0.221D-01
 Coeff-Com:  0.924D+00 0.584D+00-0.134D+01-0.163D+01 0.576D+00 0.233D+01
 Coeff:      0.934D-01-0.189D+00 0.486D-01-0.119D+00 0.415D+00-0.171D+00
 Coeff:     -0.672D+00 0.103D+01 0.154D-01-0.662D+00-0.205D+00-0.221D-01
 Coeff:      0.924D+00 0.584D+00-0.134D+01-0.163D+01 0.576D+00 0.233D+01
 Gap=     0.256 Goal=   None    Shift=    0.500
 Gap=     0.072 Goal=   None    Shift=    0.500
 RMSDP=3.16D-06 MaxDP=2.08D-04 DE=-4.03D-06 OVMax= 2.17D-03

 Cycle  29  Pass 1  IDiag  1:
 E= -2293.15812817502     Delta-E=       -0.000002850990 Rises=F Damp=F
 DIIS: error= 1.52D-04 at cycle  29 NSaved=  19.
 NSaved=19 IEnMin=19 EnMin= -2293.15812817502     IErMin=19 ErrMin= 1.52D-04
 ErrMax= 1.52D-04  0.00D+00 EMaxC= 1.00D+00 BMatC= 3.91D-06 BMatP= 5.66D-06
 IDIUse=1 WtCom= 1.00D+00 WtEn= 0.00D+00
 Coeff-Com:  0.462D-01 0.488D-01-0.184D+00-0.135D+00 0.313D+00-0.147D+00
 Coeff-Com:  0.263D+00-0.369D+00-0.173D+00 0.605D+00-0.394D+00-0.209D+00
 Coeff-Com:  0.251D+00 0.128D+00 0.536D+00-0.861D+00-0.590D+00-0.933D+00
 Coeff-Com:  0.280D+01
 Coeff:      0.462D-01 0.488D-01-0.184D+00-0.135D+00 0.313D+00-0.147D+00
 Coeff:      0.263D+00-0.369D+00-0.173D+00 0.605D+00-0.394D+00-0.209D+00
 Coeff:      0.251D+00 0.128D+00 0.536D+00-0.861D+00-0.590D+00-0.933D+00
 Coeff:      0.280D+01
 Gap=     0.256 Goal=   None    Shift=    0.500
 Gap=     0.072 Goal=   None    Shift=    0.500
 RMSDP=2.53D-06 MaxDP=1.71D-04 DE=-2.85D-06 OVMax= 1.76D-03

 Cycle  30  Pass 1  IDiag  1:
 E= -2293.15813017393     Delta-E=       -0.000001998905 Rises=F Damp=F
 DIIS: error= 1.23D-04 at cycle  30 NSaved=  20.
 NSaved=20 IEnMin=20 EnMin= -2293.15813017393     IErMin=20 ErrMin= 1.23D-04
 ErrMax= 1.23D-04  0.00D+00 EMaxC= 1.00D+00 BMatC= 2.54D-06 BMatP= 3.91D-06
 IDIUse=1 WtCom= 1.00D+00 WtEn= 0.00D+00
 Coeff-Com:  0.473D-01 0.859D-01-0.269D+00-0.880D-01 0.265D+00-0.392D+00
 Coeff-Com:  0.103D+01-0.648D+00-0.436D+00 0.384D+00 0.133D+00 0.215D+00
 Coeff-Com: -0.591D+00-0.458D+00 0.890D+00 0.392D+00-0.830D-01-0.274D+01
 Coeff-Com:  0.161D+01 0.165D+01
 Coeff:      0.473D-01 0.859D-01-0.269D+00-0.880D-01 0.265D+00-0.392D+00
 Coeff:      0.103D+01-0.648D+00-0.436D+00 0.384D+00 0.133D+00 0.215D+00
 Coeff:     -0.591D+00-0.458D+00 0.890D+00 0.392D+00-0.830D-01-0.274D+01
 Coeff:      0.161D+01 0.165D+01
 Gap=     0.256 Goal=   None    Shift=    0.500
 Gap=     0.072 Goal=   None    Shift=    0.500
 RMSDP=1.98D-06 MaxDP=1.59D-04 DE=-2.00D-06 OVMax= 1.39D-03

 Cycle  31  Pass 1  IDiag  1:
 E= -2293.15813150258     Delta-E=       -0.000001328657 Rises=F Damp=F
 DIIS: error= 9.93D-05 at cycle  31 NSaved=  20.
 NSaved=20 IEnMin=20 EnMin= -2293.15813150258     IErMin=20 ErrMin= 9.93D-05
 ErrMax= 9.93D-05  0.00D+00 EMaxC= 1.00D+00 BMatC= 1.60D-06 BMatP= 2.54D-06
 IDIUse=1 WtCom= 1.00D+00 WtEn= 0.00D+00
 Coeff-Com:  0.602D-01-0.128D+00-0.913D-02 0.124D+00-0.320D+00 0.601D+00
 Coeff-Com: -0.723D-01-0.344D+00-0.161D+00 0.377D+00 0.287D+00-0.495D+00
 Coeff-Com: -0.257D+00-0.914D-01 0.516D+00 0.764D+00-0.105D+01-0.367D+00
 Coeff-Com: -0.167D+01 0.323D+01
 Coeff:      0.602D-01-0.128D+00-0.913D-02 0.124D+00-0.320D+00 0.601D+00
 Coeff:     -0.723D-01-0.344D+00-0.161D+00 0.377D+00 0.287D+00-0.495D+00
 Coeff:     -0.257D+00-0.914D-01 0.516D+00 0.764D+00-0.105D+01-0.367D+00
 Coeff:     -0.167D+01 0.323D+01
 Gap=     0.256 Goal=   None    Shift=    0.500
 Gap=     0.072 Goal=   None    Shift=    0.500
 RMSDP=1.82D-06 MaxDP=1.37D-04 DE=-1.33D-06 OVMax= 1.16D-03

 Cycle  32  Pass 1  IDiag  1:
 E= -2293.15813236282     Delta-E=       -0.000000860234 Rises=F Damp=F
 DIIS: error= 8.11D-05 at cycle  32 NSaved=  20.
 NSaved=20 IEnMin=20 EnMin= -2293.15813236282     IErMin=20 ErrMin= 8.11D-05
 ErrMax= 8.11D-05  0.00D+00 EMaxC= 1.00D+00 BMatC= 1.16D-06 BMatP= 1.60D-06
 IDIUse=1 WtCom= 1.00D+00 WtEn= 0.00D+00
 Coeff-Com: -0.178D-01 0.732D-03 0.933D-01-0.123D+00-0.130D+00 0.462D+00
 Coeff-Com: -0.907D-01-0.417D+00 0.147D+00 0.137D+00 0.789D-01 0.196D+00
 Coeff-Com: -0.743D+00-0.192D+00 0.718D+00 0.779D+00-0.311D+00-0.307D+01
 Coeff-Com:  0.144D+01 0.204D+01
 Coeff:     -0.178D-01 0.732D-03 0.933D-01-0.123D+00-0.130D+00 0.462D+00
 Coeff:     -0.907D-01-0.417D+00 0.147D+00 0.137D+00 0.789D-01 0.196D+00
 Coeff:     -0.743D+00-0.192D+00 0.718D+00 0.779D+00-0.311D+00-0.307D+01
 Coeff:      0.144D+01 0.204D+01
 Gap=     0.256 Goal=   None    Shift=    0.500
 Gap=     0.072 Goal=   None    Shift=    0.500
 RMSDP=1.47D-06 MaxDP=1.14D-04 DE=-8.60D-07 OVMax= 9.35D-04

 >>>>>>>>>> Convergence criterion not met.
 SCF Done:  E(ULC-wHPBE) =  -2293.15813236     A.U. after   33 cycles
            NFock= 32  Conv=0.15D-05     -V/T= 2.0039
 <Sx>= 0.0000 <Sy>= 0.0000 <Sz>= 0.5000 <S**2>= 0.7671 S= 0.5085
 <L.S>= 0.000000000000E+00
 KE= 2.284263386599D+03 PE=-1.413017025127D+04 EE= 5.157606570361D+03
 Annihilation of the first spin contaminant:
 S**2 before annihilation     0.7671,   after     0.7503
 Leave Link  502 at Fri Jan 29 15:59:07 2021, MaxMem=  4026531840 cpu:           37148.3 elap:            4699.6
 (Enter /opt/ohpc/pub/libs/gaussian/g16-A.03/sandybridge/g16/l508.exe)
 Integral symmetry usage will be decided dynamically.
 Tight linear equation convergence will be used.
 ULC-wHPBE wavefunction.
 Quadratic Convergence SCF Method.
 Line search only if initial step raises energy.
 FoFJK:  IHMeth= 1 ICntrl=       0 DoSepK=T KAlg= 0 I1Cent=           0 FoldK=F
 IRaf=         1 NMat=       1 IRICut=       1 DoRegI=T DoRafI=F ISym2E= 1 IDoP0=0 IntGTp=1.
 FoFCou: FMM=T IPFlag=           0 FMFlag=      100000 FMFlg1=        2001
         NFxFlg=           0 DoJE=T BraDBF=F KetDBF=F FulRan=T
         wScrn=  0.000000 ICntrl=       500 IOpCl=  0 I1Cent=           0 NGrid=           0
         NMat0=    1 NMatS0=      1 NMatT0=    0 NMatD0=    1 NMtDS0=    0 NMtDT0=    0
 Petite list used in FoFCou.
 FMM levels:  10  Number of levels for PrismC:   9
 Iteration   1 EE= -2293.15813296496                                    Grad=6.325D-04 Max rot=    0.0137 deg.
 QCNR:  CnvC1=6.32D-09 CnvC2=6.32D-08
 LinEq1:  Iter=  0 NonCon=     1 RMS=6.16D-06 Max=2.27D-03 NDo=     1
 AX will form     1 AO Fock derivatives at one time.
 LinEq1:  Iter=  1 NonCon=     1 RMS=3.85D-06 Max=4.70D-04 NDo=     1
 LinEq1:  Iter=  2 NonCon=     1 RMS=4.18D-06 Max=1.17D-03 NDo=     1
 LinEq1:  Iter=  3 NonCon=     1 RMS=2.73D-06 Max=4.18D-04 NDo=     1
 LinEq1:  Iter=  4 NonCon=     1 RMS=2.70D-06 Max=4.23D-04 NDo=     1
 LinEq1:  Iter=  5 NonCon=     1 RMS=1.90D-06 Max=2.19D-04 NDo=     1
 LinEq1:  Iter=  6 NonCon=     1 RMS=1.06D-06 Max=1.62D-04 NDo=     1
 LinEq1:  Iter=  7 NonCon=     1 RMS=6.39D-07 Max=6.52D-05 NDo=     1
 LinEq1:  Iter=  8 NonCon=     1 RMS=3.21D-07 Max=3.31D-05 NDo=     1
 LinEq1:  Iter=  9 NonCon=     1 RMS=1.90D-07 Max=2.74D-05 NDo=     1
 LinEq1:  Iter= 10 NonCon=     1 RMS=1.28D-07 Max=1.59D-05 NDo=     1
 LinEq1:  Iter= 11 NonCon=     1 RMS=6.40D-08 Max=6.09D-06 NDo=     1
 LinEq1:  Iter= 12 NonCon=     1 RMS=3.75D-08 Max=3.30D-06 NDo=     1
 LinEq1:  Iter= 13 NonCon=     1 RMS=1.99D-08 Max=1.51D-06 NDo=     1
 LinEq1:  Iter= 14 NonCon=     1 RMS=1.01D-08 Max=1.19D-06 NDo=     1
 LinEq1:  Iter= 15 NonCon=     1 RMS=5.35D-09 Max=5.18D-07 NDo=     1
 LinEq1:  Iter= 16 NonCon=     1 RMS=3.07D-09 Max=2.81D-07 NDo=     1
 LinEq1:  Iter= 17 NonCon=     1 RMS=1.68D-09 Max=1.59D-07 NDo=     1
 LinEq1:  Iter= 18 NonCon=     1 RMS=8.82D-10 Max=9.67D-08 NDo=     1
 LinEq1:  Iter= 19 NonCon=     0 RMS=5.50D-10 Max=5.28D-08 NDo=     1
 Linear equations converged to 6.325D-09 6.325D-08 after    19 iterations.
 Angle between quadratic step and gradient=  92.76 degrees.
 Incorrect curvature in search direction -- initial direction reversed.
     ILin= 1 X=0.000D+00 Y=-2.293158132965D+03 DE= 0.00D+00 F= -7.08D-07
     ILin= 2 X=1.000D+00 Y=-2.293158134031D+03 DE=-1.07D-06 F= -1.43D-06
     ILin= 3 X=2.000D+00 Y=-2.293158135826D+03 DE=-2.86D-06 F= -2.16D-06
     ILin= 4 X=4.000D+00 Y=-2.293158141657D+03 DE=-8.69D-06 F= -3.67D-06
     ILin= 5 X=8.000D+00 Y=-2.293158162383D+03 DE=-2.94D-05 F= -6.67D-06
     ILin= 6 X=1.600D+01 Y=-2.293158236987D+03 DE=-1.04D-04 F= -1.16D-05
     ILin= 7 X=3.200D+01 Y=-2.293158436688D+03 DE=-3.04D-04 F= -9.54D-06
     ILin= 8 X=6.400D+01 Y=-2.293156973865D+03 DE= 1.16D-03 F=  1.60D-04
     An  expanding polynomial of degree  8 produced 38.6388
 Iteration   2 EE= -2293.15847089702     Delta-E=       -0.000337932061 Grad=2.868D-02 Max rot=    0.6471 deg.
 Gradient too large for Newton-Raphson -- use scaled steepest descent instead.
     ILin= 1 X=0.000D+00 Y=-2.293158470897D+03 DE= 0.00D+00 F= -1.52D-03
     ILin= 2 X=3.000D-01 Y=-2.293158857099D+03 DE=-3.86D-04 F= -1.06D-03
     ILin= 3 X=6.000D-01 Y=-2.293159104077D+03 DE=-6.33D-04 F= -5.91D-04
     ILin= 4 X=1.200D+00 Y=-2.293159180308D+03 DE=-7.09D-04 F=  3.37D-04
     Accept linear search using points  3 and  4.
     An  expanding polynomial of degree  4 produced  0.9338
 Iteration   3 EE= -2293.15921522112     Delta-E=       -0.000744324101 Grad=1.551D-02 Max rot=    0.3301 deg.
 Gradient too large for Newton-Raphson -- use scaled steepest descent instead.
     ILin= 1 X=0.000D+00 Y=-2.293159215221D+03 DE= 0.00D+00 F= -4.02D-04
     ILin= 2 X=5.000D-01 Y=-2.293159387618D+03 DE=-1.72D-04 F= -2.87D-04
     ILin= 3 X=1.100D+00 Y=-2.293159518526D+03 DE=-3.03D-04 F= -1.49D-04
     ILin= 4 X=2.100D+00 Y=-2.293159552298D+03 DE=-3.37D-04 F=  8.16D-05
     Accept linear search using points  3 and  4.
     An  expanding polynomial of degree  4 produced  1.7465
 Iteration   4 EE= -2293.15956672075     Delta-E=       -0.000351499623 Grad=1.903D-02 Max rot=    0.3575 deg.
 Gradient too large for Newton-Raphson -- use scaled steepest descent instead.
     ILin= 1 X=0.000D+00 Y=-2.293159566721D+03 DE= 0.00D+00 F= -5.43D-04
     ILin= 2 X=1.300D+00 Y=-2.293159782221D+03 DE=-2.16D-04 F=  2.11D-04
     Accept linear search using points  1 and  2.
     An  expanding polynomial of degree  2 produced  1.0246
 Iteration   5 EE= -2293.15981846896     Delta-E=       -0.000251748210 Grad=1.378D-02 Max rot=    0.2428 deg.
 Gradient too large for Newton-Raphson -- use scaled steepest descent instead.
     ILin= 1 X=0.000D+00 Y=-2.293159818469D+03 DE= 0.00D+00 F= -3.03D-04
     ILin= 2 X=1.300D+00 Y=-2.293160016860D+03 DE=-1.98D-04 F= -2.01D-06
     Reject lnstep minimum 1.304D+00 FVal=-2.293160016863D+03 Lims=  0.00D+00  1.30D+00
     ILin= 3 X=2.700D+00 Y=-2.293159792268D+03 DE= 2.62D-05 F=  3.23D-04
     An  expanding polynomial of degree  3 produced  1.3081
     Minimum is close to point  2 DX=  8.15D-03 DF= -7.70D-09 DXR=  6.23D-03 DFR=  3.88D-05 which will be used.
 Iteration   6 EE= -2293.16001686007     Delta-E=       -0.000198391116 Grad=1.333D-02 Max rot=    0.3000 deg.
 Gradient too large for Newton-Raphson -- use scaled steepest descent instead.
     ILin= 1 X=0.000D+00 Y=-2.293160016860D+03 DE= 0.00D+00 F= -3.08D-04
     ILin= 2 X=1.200D+00 Y=-2.293160195174D+03 DE=-1.78D-04 F=  1.04D-05
     Accept linear search using points  1 and  2.
     An  expanding polynomial of degree  2 produced  1.1755
     Minimum is close to point  2 DX= -2.45D-02 DF= -1.06D-07 DXR=  2.09D-02 DFR=  5.94D-04 which will be used.
 Iteration   7 EE= -2293.16019517355     Delta-E=       -0.000178313473 Grad=1.330D-02 Max rot=    0.2387 deg.
 Gradient too large for Newton-Raphson -- use scaled steepest descent instead.
     ILin= 1 X=0.000D+00 Y=-2.293160195174D+03 DE= 0.00D+00 F= -2.72D-04
     ILin= 2 X=1.200D+00 Y=-2.293160359637D+03 DE=-1.64D-04 F= -2.19D-06
     Reject lnstep minimum 1.206D+00 FVal=-2.293160359642D+03 Lims=  0.00D+00  1.20D+00
     ILin= 3 X=2.500D+00 Y=-2.293160172266D+03 DE= 2.29D-05 F=  2.91D-04
     An  expanding polynomial of degree  3 produced  1.2093
     Minimum is close to point  2 DX=  9.27D-03 DF= -9.66D-09 DXR=  7.66D-03 DFR=  5.87D-05 which will be used.
 Iteration   8 EE= -2293.16035963691     Delta-E=       -0.000164463363 Grad=1.164D-02 Max rot=    0.2923 deg.
 Gradient too large for Newton-Raphson -- use scaled steepest descent instead.
     ILin= 1 X=0.000D+00 Y=-2.293160359637D+03 DE= 0.00D+00 F= -2.43D-04
     ILin= 2 X=1.200D+00 Y=-2.293160513010D+03 DE=-1.53D-04 F= -1.32D-05
     Reject lnstep minimum 1.239D+00 FVal=-2.293160513224D+03 Lims=  0.00D+00  1.20D+00
     ILin= 3 X=2.400D+00 Y=-2.293160391427D+03 DE=-3.18D-05 F=  2.16D-04
     An  expanding polynomial of degree  3 produced  1.2694
     Minimum is close to point  2 DX=  6.94D-02 DF= -4.59D-07 DXR=  5.47D-02 DFR=  3.00D-03 which will be used.
 Iteration   9 EE= -2293.16051301046     Delta-E=       -0.000153373555 Grad=1.171D-02 Max rot=    0.2408 deg.
 Gradient too large for Newton-Raphson -- use scaled steepest descent instead.
     ILin= 1 X=0.000D+00 Y=-2.293160513010D+03 DE= 0.00D+00 F= -2.19D-04
     ILin= 2 X=1.200D+00 Y=-2.293160657773D+03 DE=-1.45D-04 F= -2.25D-05
     Reject lnstep minimum 1.273D+00 FVal=-2.293160658464D+03 Lims=  0.00D+00  1.20D+00
     ILin= 3 X=2.500D+00 Y=-2.293160548719D+03 DE=-3.57D-05 F=  1.90D-04
     An  expanding polynomial of degree  3 produced  1.3373
 Iteration  10 EE= -2293.16065932713     Delta-E=       -0.000146316666 Grad=1.202D-02 Max rot=    0.2921 deg.
 Gradient too large for Newton-Raphson -- use scaled steepest descent instead.
     ILin= 1 X=0.000D+00 Y=-2.293160659327D+03 DE= 0.00D+00 F= -2.43D-04
     ILin= 2 X=1.300D+00 Y=-2.293160795675D+03 DE=-1.36D-04 F=  3.34D-05
     Accept linear search using points  1 and  2.
     An  expanding polynomial of degree  2 produced  1.2074
     Minimum is close to point  2 DX= -9.26D-02 DF= -1.18D-06 DXR=  7.67D-02 DFR=  8.62D-03 which will be used.
 Iteration  11 EE= -2293.16079567515     Delta-E=       -0.000136348017 Grad=1.356D-02 Max rot=    0.2335 deg.
 Gradient too large for Newton-Raphson -- use scaled steepest descent instead.
     ILin= 1 X=0.000D+00 Y=-2.293160795675D+03 DE= 0.00D+00 F= -2.62D-04
     ILin= 2 X=1.300D+00 Y=-2.293160924477D+03 DE=-1.29D-04 F=  6.37D-05
     Accept linear search using points  1 and  2.
     An  expanding polynomial of degree  2 produced  1.1317
 Iteration  12 EE= -2293.16093164499     Delta-E=       -0.000135969839 Grad=1.086D-02 Max rot=    0.2874 deg.
 Gradient too large for Newton-Raphson -- use scaled steepest descent instead.
     ILin= 1 X=0.000D+00 Y=-2.293160931645D+03 DE= 0.00D+00 F= -2.06D-04
     ILin= 2 X=1.200D+00 Y=-2.293161058527D+03 DE=-1.27D-04 F= -5.86D-06
     Reject lnstep minimum 1.220D+00 FVal=-2.293161058577D+03 Lims=  0.00D+00  1.20D+00
     ILin= 3 X=2.300D+00 Y=-2.293160964429D+03 DE=-3.28D-05 F=  1.77D-04
     An  expanding polynomial of degree  3 produced  1.2357
     Minimum is close to point  2 DX=  3.57D-02 DF= -1.06D-07 DXR=  2.89D-02 DFR=  8.35D-04 which will be used.
 Iteration  13 EE= -2293.16105852696     Delta-E=       -0.000126881970 Grad=1.091D-02 Max rot=    0.2396 deg.
 Gradient too large for Newton-Raphson -- use scaled steepest descent instead.
     ILin= 1 X=0.000D+00 Y=-2.293161058527D+03 DE= 0.00D+00 F= -1.87D-04
     ILin= 2 X=1.200D+00 Y=-2.293161180633D+03 DE=-1.22D-04 F= -1.61D-05
     Reject lnstep minimum 1.261D+00 FVal=-2.293161181047D+03 Lims=  0.00D+00  1.20D+00
     ILin= 3 X=2.400D+00 Y=-2.293161097056D+03 DE=-3.85D-05 F=  1.56D-04
     An  expanding polynomial of degree  3 produced  1.3124
     Minimum is close to point  2 DX=  1.12D-01 DF= -9.02D-07 DXR=  8.56D-02 DFR=  7.39D-03 which will be used.
 Iteration  14 EE= -2293.16118063338     Delta-E=       -0.000122106420 Grad=9.616D-03 Max rot=    0.2820 deg.
 QCNR:  CnvC1=9.62D-08 CnvC2=9.62D-07
 LinEq1:  Iter=  0 NonCon=     1 RMS=1.24D-04 Max=5.45D-02 NDo=     1
 LinEq1:  Iter=  1 NonCon=     1 RMS=6.95D-05 Max=6.96D-03 NDo=     1
 LinEq1:  Iter=  2 NonCon=     1 RMS=2.67D-05 Max=4.75D-03 NDo=     1
 LinEq1:  Iter=  3 NonCon=     1 RMS=2.28D-05 Max=4.15D-03 NDo=     1
 LinEq1:  Iter=  4 NonCon=     1 RMS=1.41D-05 Max=2.20D-03 NDo=     1
 LinEq1:  Iter=  5 NonCon=     1 RMS=9.00D-06 Max=7.86D-04 NDo=     1
 LinEq1:  Iter=  6 NonCon=     1 RMS=5.64D-06 Max=7.42D-04 NDo=     1
 LinEq1:  Iter=  7 NonCon=     1 RMS=3.59D-06 Max=2.40D-04 NDo=     1
 LinEq1:  Iter=  8 NonCon=     1 RMS=1.78D-06 Max=1.63D-04 NDo=     1
 LinEq1:  Iter=  9 NonCon=     1 RMS=1.11D-06 Max=9.82D-05 NDo=     1
 LinEq1:  Iter= 10 NonCon=     1 RMS=6.48D-07 Max=6.55D-05 NDo=     1
 LinEq1:  Iter= 11 NonCon=     1 RMS=3.60D-07 Max=3.47D-05 NDo=     1
 LinEq1:  Iter= 12 NonCon=     1 RMS=1.98D-07 Max=1.56D-05 NDo=     1
 LinEq1:  Iter= 13 NonCon=     1 RMS=8.79D-08 Max=8.49D-06 NDo=     1
 LinEq1:  Iter= 14 NonCon=     1 RMS=5.37D-08 Max=3.41D-06 NDo=     1
 LinEq1:  Iter= 15 NonCon=     1 RMS=3.18D-08 Max=2.67D-06 NDo=     1
 LinEq1:  Iter= 16 NonCon=     1 RMS=1.78D-08 Max=1.68D-06 NDo=     1
 LinEq1:  Iter= 17 NonCon=     0 RMS=9.53D-09 Max=7.12D-07 NDo=     1
 Linear equations converged to 9.616D-08 9.616D-07 after    17 iterations.
 Angle between quadratic step and gradient=  59.16 degrees.
     ILin= 1 X=0.000D+00 Y=-2.293161180633D+03 DE= 0.00D+00 F= -3.69D-02
     ILin= 2 X=2.000D-01 Y=-2.293147693103D+03 DE= 1.35D-02 F=  3.33D-01
     ILin= 3 X=1.564D-01 Y=-2.293158200441D+03 DE= 2.98D-03 F=  1.60D-01
     ILin= 4 X=1.106D-01 Y=-2.293162614284D+03 DE=-1.43D-03 F=  4.40D-02
     A contracting polynomial of degree  4 produced  0.0857
 Iteration  15 EE= -2293.16320699355     Delta-E=       -0.002026360171 Grad=2.478D-02 Max rot=    0.1414 deg.
 Gradient too large for Newton-Raphson -- use scaled steepest descent instead.
     ILin= 1 X=0.000D+00 Y=-2.293163206994D+03 DE= 0.00D+00 F= -8.96D-04
     ILin= 2 X=1.300D+00 Y=-2.293163376368D+03 DE=-1.69D-04 F=  6.35D-04
     Accept linear search using points  1 and  2.
     An  expanding polynomial of degree  2 produced  0.8078
 Iteration  16 EE= -2293.16354626389     Delta-E=       -0.000339270345 Grad=8.274D-03 Max rot=    0.0888 deg.
 QCNR:  CnvC1=8.27D-08 CnvC2=8.27D-07
 LinEq1:  Iter=  0 NonCon=     1 RMS=4.10D-05 Max=1.18D-02 NDo=     1
 LinEq1:  Iter=  1 NonCon=     1 RMS=2.80D-05 Max=3.45D-03 NDo=     1
 LinEq1:  Iter=  2 NonCon=     1 RMS=1.80D-05 Max=1.78D-03 NDo=     1
 LinEq1:  Iter=  3 NonCon=     1 RMS=9.97D-06 Max=8.22D-04 NDo=     1
 LinEq1:  Iter=  4 NonCon=     1 RMS=6.38D-06 Max=9.73D-04 NDo=     1
 LinEq1:  Iter=  5 NonCon=     1 RMS=3.73D-06 Max=4.65D-04 NDo=     1
 LinEq1:  Iter=  6 NonCon=     1 RMS=2.47D-06 Max=3.30D-04 NDo=     1
 LinEq1:  Iter=  7 NonCon=     1 RMS=1.71D-06 Max=1.58D-04 NDo=     1
 LinEq1:  Iter=  8 NonCon=     1 RMS=1.09D-06 Max=1.53D-04 NDo=     1
 LinEq1:  Iter=  9 NonCon=     1 RMS=5.30D-07 Max=5.93D-05 NDo=     1
 LinEq1:  Iter= 10 NonCon=     1 RMS=3.24D-07 Max=2.86D-05 NDo=     1
 LinEq1:  Iter= 11 NonCon=     1 RMS=1.74D-07 Max=1.50D-05 NDo=     1
 LinEq1:  Iter= 12 NonCon=     1 RMS=9.14D-08 Max=6.77D-06 NDo=     1
 LinEq1:  Iter= 13 NonCon=     1 RMS=4.50D-08 Max=5.00D-06 NDo=     1
 LinEq1:  Iter= 14 NonCon=     1 RMS=2.76D-08 Max=2.56D-06 NDo=     1
 LinEq1:  Iter= 15 NonCon=     1 RMS=1.52D-08 Max=9.98D-07 NDo=     1
 LinEq1:  Iter= 16 NonCon=     0 RMS=9.39D-09 Max=5.29D-07 NDo=     1
 Linear equations converged to 8.274D-08 8.274D-07 after    16 iterations.
 Angle between quadratic step and gradient=  69.48 degrees.
     ILin= 1 X=0.000D+00 Y=-2.293163546264D+03 DE= 0.00D+00 F= -5.01D-04
     ILin= 2 X=1.000D+00 Y=-2.293163790164D+03 DE=-2.44D-04
 Iteration  17 EE= -2293.16379016390     Delta-E=       -0.000243900013 Grad=1.503D-03 Max rot=    0.0074 deg.
 QCNR:  CnvC1=1.50D-08 CnvC2=1.50D-07
 LinEq1:  Iter=  0 NonCon=     1 RMS=4.84D-06 Max=4.53D-04 NDo=     1
 LinEq1:  Iter=  1 NonCon=     1 RMS=4.54D-06 Max=1.08D-03 NDo=     1
 LinEq1:  Iter=  2 NonCon=     1 RMS=2.85D-06 Max=4.95D-04 NDo=     1
 LinEq1:  Iter=  3 NonCon=     1 RMS=1.67D-06 Max=3.14D-04 NDo=     1
 LinEq1:  Iter=  4 NonCon=     1 RMS=1.07D-06 Max=1.89D-04 NDo=     1
 LinEq1:  Iter=  5 NonCon=     1 RMS=5.55D-07 Max=5.92D-05 NDo=     1
 LinEq1:  Iter=  6 NonCon=     1 RMS=3.90D-07 Max=3.31D-05 NDo=     1
 LinEq1:  Iter=  7 NonCon=     1 RMS=2.20D-07 Max=2.14D-05 NDo=     1
 LinEq1:  Iter=  8 NonCon=     1 RMS=1.40D-07 Max=1.20D-05 NDo=     1
 LinEq1:  Iter=  9 NonCon=     1 RMS=8.58D-08 Max=7.96D-06 NDo=     1
 LinEq1:  Iter= 10 NonCon=     1 RMS=4.77D-08 Max=4.54D-06 NDo=     1
 LinEq1:  Iter= 11 NonCon=     1 RMS=2.70D-08 Max=2.19D-06 NDo=     1
 LinEq1:  Iter= 12 NonCon=     1 RMS=1.41D-08 Max=1.05D-06 NDo=     1
 LinEq1:  Iter= 13 NonCon=     1 RMS=8.05D-09 Max=5.80D-07 NDo=     1
 LinEq1:  Iter= 14 NonCon=     1 RMS=4.17D-09 Max=3.22D-07 NDo=     1
 LinEq1:  Iter= 15 NonCon=     1 RMS=2.45D-09 Max=2.35D-07 NDo=     1
 LinEq1:  Iter= 16 NonCon=     0 RMS=1.42D-09 Max=1.30D-07 NDo=     1
 Linear equations converged to 1.503D-08 1.503D-07 after    16 iterations.
 Angle between quadratic step and gradient=  68.75 degrees.
     ILin= 1 X=0.000D+00 Y=-2.293163790164D+03 DE= 0.00D+00 F= -4.09D-06
     ILin= 2 X=1.000D+00 Y=-2.293163792213D+03 DE=-2.05D-06
 Iteration  18 EE= -2293.16379221295     Delta-E=       -0.000002049045 Grad=3.128D-06 Max rot=    0.0001 deg.
 Rotation gradient small -- convergence achieved.
 SCF Done:  E(ULC-wHPBE) =  -2293.16379221     a.u. after   18 cycles
            Convg  =    0.3128D-05                   112 Fock formations.
              S**2 =  0.7745                  -V/T =  2.0039
 <Sx>= 0.0000 <Sy>= 0.0000 <Sz>= 0.5000 <S**2>= 0.7745 S= 0.5122
 <L.S>= 0.000000000000E+00
 Annihilation of the first spin contaminant:
 S**2 before annihilation     0.7745,   after     0.7505
 Leave Link  508 at Fri Jan 29 19:56:23 2021, MaxMem=  4026531840 cpu:          112678.9 elap:           14236.7
 (Enter /opt/ohpc/pub/libs/gaussian/g16-A.03/sandybridge/g16/l601.exe)
 Copying SCF densities to generalized density rwf, IOpCl= 1 IROHF=0.

 **********************************************************************

            Population analysis using the SCF density.

 **********************************************************************

 Orbital symmetries:
 Alpha Orbitals:
       Occupied  (A) (A) (A) (A) (A) (A) (A) (A) (A) (A) (A) (A)
                 (A) (A) (A) (A) (A) (A) (A) (A) (A) (A) (A) (A)
                 (A) (A) (A) (A) (A) (A) (A) (A) (A) (A) (A) (A)
                 (A) (A) (A) (A) (A) (A) (A) (A) (A) (A) (A) (A)
                 (A) (A) (A) (A) (A) (A) (A) (A) (A) (A) (A) (A)
                 (A) (A) (A) (A) (A) (A) (A) (A) (A) (A) (A) (A)
                 (A) (A) (A) (A) (A) (A) (A) (A) (A) (A) (A) (A)
                 (A) (A) (A) (A) (A) (A) (A) (A) (A) (A) (A) (A)
                 (A) (A) (A) (A) (A) (A) (A) (A) (A) (A) (A) (A)
                 (A) (A) (A) (A) (A) (A) (A) (A) (A) (A) (A) (A)
                 (A) (A) (A) (A) (A) (A) (A) (A) (A) (A) (A) (A)
                 (A) (A) (A) (A) (A) (A) (A) (A) (A) (A) (A) (A)
                 (A)
       Virtual   (A) (A) (A) (A) (A) (A) (A) (A) (A) (A) (A) (A)
                 (A) (A) (A) (A) (A) (A) (A) (A) (A) (A) (A) (A)
                 (A) (A) (A) (A) (A) (A) (A) (A) (A) (A) (A) (A)
                 (A) (A) (A) (A) (A) (A) (A) (A) (A) (A) (A) (A)
                 (A) (A) (A) (A) (A) (A) (A) (A) (A) (A) (A) (A)
                 (A) (A) (A) (A) (A) (A) (A) (A) (A) (A) (A) (A)
                 (A) (A) (A) (A) (A) (A) (A) (A) (A) (A) (A) (A)
                 (A) (A) (A) (A) (A) (A) (A) (A) (A) (A) (A) (A)
                 (A) (A) (A) (A) (A) (A) (A) (A) (A) (A) (A) (A)
                 (A) (A) (A) (A) (A) (A) (A) (A) (A) (A) (A) (A)
                 (A) (A) (A) (A) (A) (A) (A) (A) (A) (A) (A) (A)
                 (A) (A) (A) (A) (A) (A) (A) (A) (A) (A) (A) (A)
                 (A) (A) (A) (A) (A) (A) (A) (A) (A) (A) (A) (A)
                 (A) (A) (A) (A) (A) (A) (A) (A) (A) (A) (A) (A)
                 (A) (A) (A) (A) (A) (A) (A) (A) (A) (A) (A) (A)
                 (A) (A) (A) (A) (A) (A) (A) (A) (A) (A) (A) (A)
                 (A) (A) (A) (A) (A) (A) (A) (A) (A) (A) (A) (A)
                 (A) (A) (A) (A) (A) (A) (A) (A) (A) (A) (A) (A)
                 (A) (A) (A) (A) (A) (A) (A) (A) (A) (A) (A) (A)
                 (A) (A) (A) (A) (A) (A) (A) (A) (A) (A) (A) (A)
                 (A) (A) (A) (A) (A) (A) (A) (A) (A) (A) (A) (A)
                 (A) (A) (A) (A) (A) (A) (A) (A) (A) (A) (A) (A)
                 (A) (A) (A) (A) (A) (A) (A) (A) (A) (A) (A) (A)
                 (A) (A) (A) (A) (A) (A) (A) (A) (A) (A) (A) (A)
                 (A) (A) (A) (A) (A) (A) (A) (A) (A) (A) (A) (A)
                 (A) (A) (A) (A) (A) (A) (A) (A) (A) (A) (A) (A)
                 (A) (A) (A) (A) (A) (A) (A) (A) (A) (A) (A) (A)
                 (A) (A) (A) (A) (A) (A) (A) (A) (A) (A) (A) (A)
                 (A) (A) (A) (A) (A) (A) (A) (A) (A) (A) (A) (A)
                 (A) (A) (A) (A) (A) (A) (A) (A) (A) (A) (A) (A)
                 (A) (A) (A) (A) (A) (A) (A) (A) (A) (A) (A) (A)
                 (A) (A) (A) (A) (A) (A) (A) (A) (A) (A) (A) (A)
                 (A) (A) (A) (A) (A) (A) (A) (A) (A) (A) (A) (A)
                 (A) (A) (A) (A) (A) (A) (A) (A) (A) (A) (A) (A)
                 (A) (A) (A) (A) (A) (A) (A) (A) (A) (A) (A) (A)
                 (A) (A) (A) (A) (A) (A) (A) (A) (A) (A) (A) (A)
                 (A) (A) (A) (A) (A) (A) (A) (A) (A) (A) (A) (A)
                 (A) (A) (A) (A) (A) (A) (A) (A) (A) (A) (A) (A)
                 (A) (A) (A) (A) (A) (A) (A) (A) (A) (A) (A) (A)
                 (A) (A) (A) (A) (A) (A) (A) (A) (A) (A) (A) (A)
                 (A) (A) (A) (A) (A) (A) (A) (A) (A) (A) (A) (A)
                 (A) (A) (A) (A) (A) (A) (A) (A) (A) (A) (A) (A)
                 (A) (A) (A) (A) (A) (A) (A) (A) (A) (A) (A) (A)
                 (A) (A) (A) (A) (A) (A) (A) (A) (A) (A) (A) (A)
                 (A) (A) (A) (A) (A) (A) (A) (A) (A) (A) (A) (A)
                 (A) (A) (A) (A) (A) (A) (A) (A) (A) (A) (A) (A)
                 (A) (A) (A) (A) (A) (A) (A) (A) (A) (A) (A) (A)
                 (A) (A) (A) (A) (A) (A) (A) (A) (A) (A) (A) (A)
                 (A) (A) (A) (A) (A) (A) (A) (A) (A) (A) (A) (A)
                 (A) (A) (A) (A) (A) (A) (A) (A) (A) (A) (A) (A)
                 (A) (A) (A) (A) (A) (A) (A) (A) (A) (A) (A) (A)
                 (A) (A) (A) (A) (A) (A) (A) (A) (A) (A) (A) (A)
                 (A) (A) (A) (A) (A) (A) (A) (A) (A) (A) (A) (A)
                 (A) (A) (A) (A) (A) (A) (A) (A) (A) (A) (A) (A)
                 (A) (A) (A) (A) (A) (A) (A) (A) (A) (A) (A) (A)
                 (A) (A) (A) (A) (A) (A) (A) (A) (A) (A) (A) (A)
                 (A) (A) (A) (A) (A) (A) (A) (A) (A) (A) (A) (A)
                 (A) (A) (A) (A) (A) (A) (A) (A) (A) (A) (A) (A)
                 (A) (A) (A) (A) (A) (A) (A) (A) (A) (A) (A) (A)
                 (A) (A) (A) (A) (A) (A) (A) (A) (A) (A) (A) (A)
                 (A) (A) (A) (A) (A) (A) (A) (A) (A) (A) (A) (A)
                 (A) (A) (A) (A) (A) (A) (A) (A) (A) (A) (A) (A)
                 (A) (A) (A) (A) (A) (A) (A) (A) (A) (A) (A) (A)
                 (A) (A) (A) (A) (A) (A) (A) (A) (A) (A) (A) (A)
                 (A) (A) (A) (A) (A) (A) (A) (A) (A) (A) (A) (A)
                 (A) (A) (A) (A) (A) (A) (A) (A) (A)
 Beta  Orbitals:
       Occupied  (A) (A) (A) (A) (A) (A) (A) (A) (A) (A) (A) (A)
                 (A) (A) (A) (A) (A) (A) (A) (A) (A) (A) (A) (A)
                 (A) (A) (A) (A) (A) (A) (A) (A) (A) (A) (A) (A)
                 (A) (A) (A) (A) (A) (A) (A) (A) (A) (A) (A) (A)
                 (A) (A) (A) (A) (A) (A) (A) (A) (A) (A) (A) (A)
                 (A) (A) (A) (A) (A) (A) (A) (A) (A) (A) (A) (A)
                 (A) (A) (A) (A) (A) (A) (A) (A) (A) (A) (A) (A)
                 (A) (A) (A) (A) (A) (A) (A) (A) (A) (A) (A) (A)
                 (A) (A) (A) (A) (A) (A) (A) (A) (A) (A) (A) (A)
                 (A) (A) (A) (A) (A) (A) (A) (A) (A) (A) (A) (A)
[...]
     3 S(33)  Bbb    -0.1991    -8.161    -2.912    -2.722  0.7135 -0.6788 -0.1736
              Bcc     0.4178    17.131     6.113     5.714  0.3097  0.0833  0.9472
 
              Baa    -0.0050    -0.667    -0.238    -0.222  0.5591 -0.3022  0.7721
     4 C(13)  Bbb    -0.0025    -0.336    -0.120    -0.112  0.7352 -0.2498 -0.6302
              Bcc     0.0075     1.003     0.358     0.335  0.3833  0.9200  0.0825
 
              Baa    -0.0389    -5.216    -1.861    -1.740  0.1299  0.3820  0.9150
     5 C(13)  Bbb     0.0190     2.545     0.908     0.849  0.8638 -0.4967  0.0847
              Bcc     0.0199     2.671     0.953     0.891  0.4868  0.7794 -0.3945
 
              Baa    -0.0837   -11.231    -4.008    -3.746 -0.4879  0.8175 -0.3062
     6 C(13)  Bbb    -0.0759   -10.180    -3.633    -3.396  0.8716  0.4371 -0.2218
              Bcc     0.1596    21.412     7.640     7.142  0.0475  0.3751  0.9258
 
              Baa    -0.0019    -0.256    -0.091    -0.085  0.4051  0.7651 -0.5005
     7 C(13)  Bbb     0.0003     0.042     0.015     0.014  0.1983  0.4609  0.8650
              Bcc     0.0016     0.214     0.076     0.071  0.8925 -0.4497  0.0350
 
              Baa    -0.0027    -0.359    -0.128    -0.120  0.5259  0.6899 -0.4974
     8 C(13)  Bbb     0.0000     0.005     0.002     0.002  0.5417  0.1792  0.8213
              Bcc     0.0026     0.354     0.126     0.118 -0.6557  0.7014  0.2795
 
              Baa    -0.0006    -0.328    -0.117    -0.109 -0.4852  0.7229 -0.4919
     9 H(1)   Bbb    -0.0003    -0.150    -0.053    -0.050  0.7448  0.6364  0.2005
              Bcc     0.0009     0.477     0.170     0.159 -0.4580  0.2691  0.8472
 
              Baa    -0.0555    -7.448    -2.658    -2.484  0.3529  0.7784 -0.5191
    10 C(13)  Bbb    -0.0488    -6.550    -2.337    -2.185  0.9099 -0.1563  0.3842
              Bcc     0.1043    13.998     4.995     4.669 -0.2179  0.6079  0.7635
 
              Baa    -0.0382    -5.127    -1.829    -1.710  0.0231  0.3736  0.9273
    11 C(13)  Bbb     0.0176     2.359     0.842     0.787 -0.2375  0.9031 -0.3579
              Bcc     0.0206     2.768     0.988     0.923  0.9711  0.2119 -0.1096
 
              Baa    -0.0571    -7.660    -2.733    -2.555  0.9865 -0.0966  0.1320
    12 C(13)  Bbb    -0.0503    -6.751    -2.409    -2.252  0.1614  0.7048 -0.6908
              Bcc     0.1074    14.410     5.142     4.807 -0.0263  0.7028  0.7109
 
              Baa    -0.0279    -3.738    -1.334    -1.247 -0.4296  0.8992  0.0831
    13 C(13)  Bbb    -0.0038    -0.510    -0.182    -0.170  0.8692  0.4367 -0.2317
              Bcc     0.0317     4.248     1.516     1.417  0.2446  0.0273  0.9692
 
              Baa    -0.0046    -2.437    -0.870    -0.813  0.4539  0.5514  0.6999
    14 H(1)   Bbb    -0.0033    -1.736    -0.619    -0.579  0.8153  0.0600 -0.5760
              Bcc     0.0078     4.173     1.489     1.392 -0.3596  0.8321 -0.4223
 
              Baa    -0.0030    -1.583    -0.565    -0.528 -0.0089  0.4838  0.8752
    15 H(1)   Bbb     0.0004     0.196     0.070     0.065  0.3245  0.8292 -0.4551
              Bcc     0.0026     1.387     0.495     0.463  0.9459 -0.2799  0.1643
 
              Baa    -0.0046    -2.470    -0.881    -0.824 -0.3752  0.0974  0.9218
    16 H(1)   Bbb    -0.0034    -1.792    -0.640    -0.598  0.6700  0.7157  0.1970
              Bcc     0.0080     4.263     1.521     1.422 -0.6406  0.6915 -0.3338
 
              Baa    -0.0031    -0.417    -0.149    -0.139  0.3537  0.2901  0.8892
    17 C(13)  Bbb    -0.0019    -0.258    -0.092    -0.086  0.7382 -0.6704 -0.0749
              Bcc     0.0050     0.675     0.241     0.225  0.5744  0.6829 -0.4513
 
              Baa    -0.0012    -0.622    -0.222    -0.208 -0.4138 -0.1170  0.9028
    18 H(1)   Bbb    -0.0007    -0.377    -0.134    -0.126  0.1390  0.9719  0.1897
              Bcc     0.0019     0.999     0.356     0.333  0.8997 -0.2040  0.3860
 
              Baa    -0.0030    -1.588    -0.567    -0.530 -0.0412  0.5030  0.8633
    19 H(1)   Bbb     0.0005     0.255     0.091     0.085  0.9898 -0.0973  0.1039
              Bcc     0.0025     1.333     0.476     0.445  0.1363  0.8588 -0.4939
 
              Baa    -0.0004    -0.197    -0.070    -0.066  0.0234  0.7476 -0.6638
    20 H(1)   Bbb    -0.0003    -0.157    -0.056    -0.052  0.6856  0.4712  0.5549
              Bcc     0.0007     0.353     0.126     0.118  0.7276 -0.4681 -0.5015
 
              Baa    -0.0006    -0.312    -0.111    -0.104  0.3448  0.1495  0.9267
    21 H(1)   Bbb    -0.0002    -0.091    -0.032    -0.030  0.4691  0.8277 -0.3081
              Bcc     0.0008     0.402     0.144     0.134  0.8131 -0.5409 -0.2153
 
              Baa    -0.0040    -0.162    -0.058    -0.054  0.8103 -0.2748  0.5175
    22 S(33)  Bbb     0.0006     0.024     0.009     0.008  0.2720  0.9587  0.0831
              Bcc     0.0034     0.138     0.049     0.046 -0.5190  0.0734  0.8516
 
              Baa    -0.5039   -19.434    -6.935    -6.482 -0.3611  0.8881  0.2844
    23 N(14)  Bbb    -0.5029   -19.395    -6.920    -6.469  0.8687  0.4312 -0.2436
              Bcc     1.0068    38.829    13.855    12.952  0.3390 -0.1591  0.9272
 
              Baa    -0.0356    -4.784    -1.707    -1.596  0.2177  0.8056 -0.5509
    24 C(13)  Bbb     0.0127     1.706     0.609     0.569  0.7355  0.2357  0.6353
              Bcc     0.0229     3.078     1.098     1.027  0.6416 -0.5435 -0.5412
 
              Baa    -0.0572    -7.677    -2.739    -2.561 -0.1241  0.7009  0.7024
    25 C(13)  Bbb    -0.0503    -6.745    -2.407    -2.250  0.9314 -0.1618  0.3260
              Bcc     0.1075    14.422     5.146     4.811  0.3422  0.6946 -0.6328
 
              Baa    -0.0593    -7.954    -2.838    -2.653  0.9798 -0.1452  0.1375
    26 C(13)  Bbb    -0.0522    -7.011    -2.502    -2.338 -0.0347  0.5537  0.8320
              Bcc     0.1115    14.964     5.340     4.992  0.1969  0.8200 -0.5374
 
              Baa    -0.0469    -6.289    -2.244    -2.098 -0.0596 -0.6647  0.7448
    27 C(13)  Bbb     0.0210     2.823     1.007     0.942  0.7128  0.4940  0.4979
              Bcc     0.0258     3.466     1.237     1.156  0.6989 -0.5605 -0.4443
 
              Baa    -0.0492    -6.603    -2.356    -2.203 -0.1194 -0.6239  0.7723
    28 C(13)  Bbb     0.0220     2.958     1.055     0.987  0.5877  0.5825  0.5615
              Bcc     0.0272     3.645     1.301     1.216  0.8002 -0.5210 -0.2971
 
              Baa    -0.0663    -8.893    -3.173    -2.966  0.6534  0.5675  0.5010
    29 C(13)  Bbb    -0.0597    -8.011    -2.859    -2.672  0.7546 -0.5411 -0.3712
              Bcc     0.1260    16.904     6.032     5.639 -0.0605 -0.6206  0.7818
 
              Baa    -0.0042    -2.227    -0.795    -0.743 -0.3663  0.7810 -0.5058
    30 H(1)   Bbb    -0.0027    -1.414    -0.505    -0.472  0.7856 -0.0317 -0.6179
              Bcc     0.0068     3.642     1.300     1.215  0.4986  0.6237  0.6020
 
              Baa    -0.0042    -2.249    -0.803    -0.750 -0.3007 -0.4227  0.8550
    31 H(1)   Bbb    -0.0025    -1.331    -0.475    -0.444 -0.4981  0.8341  0.2372
              Bcc     0.0067     3.581     1.278     1.194  0.8133  0.3545  0.4613
 
              Baa    -0.0022    -1.196    -0.427    -0.399 -0.1648 -0.6943  0.7006
    32 H(1)   Bbb    -0.0002    -0.088    -0.031    -0.029  0.8770  0.2220  0.4262
              Bcc     0.0024     1.284     0.458     0.428 -0.4514  0.6846  0.5723
 
              Baa    -0.0023    -1.228    -0.438    -0.410  0.1542  0.7179 -0.6789
    33 H(1)   Bbb    -0.0004    -0.192    -0.069    -0.064  0.3399  0.6066  0.7187
              Bcc     0.0027     1.420     0.507     0.474  0.9277 -0.3416 -0.1505
 
              Baa    -0.0084    -4.494    -1.604    -1.499  0.6590  0.5408  0.5228
    34 H(1)   Bbb    -0.0008    -0.409    -0.146    -0.136 -0.0837 -0.6380  0.7654
              Bcc     0.0092     4.903     1.750     1.636  0.7475 -0.5481 -0.3752
 
              Baa    -0.0367    -4.921    -1.756    -1.641  0.9406 -0.2358  0.2441
    35 C(13)  Bbb     0.0126     1.693     0.604     0.565 -0.3117 -0.3157  0.8962
              Bcc     0.0241     3.228     1.152     1.077  0.1343  0.9191  0.3705
 
              Baa    -0.0578    -7.753    -2.767    -2.586 -0.1839  0.6667  0.7223
    36 C(13)  Bbb    -0.0510    -6.841    -2.441    -2.282  0.2205  0.7441 -0.6307
              Bcc     0.1088    14.594     5.207     4.868  0.9579 -0.0433  0.2838
 
              Baa    -0.0599    -8.036    -2.868    -2.681  0.3269  0.8128 -0.4822
    37 C(13)  Bbb    -0.0529    -7.105    -2.535    -2.370 -0.0678  0.5291  0.8458
              Bcc     0.1128    15.141     5.403     5.050  0.9426 -0.2438  0.2281
 
              Baa    -0.0476    -6.386    -2.279    -2.130  0.8412 -0.2101  0.4983
    38 C(13)  Bbb     0.0214     2.872     1.025     0.958 -0.5311 -0.1482  0.8342
              Bcc     0.0262     3.515     1.254     1.172  0.1014  0.9664  0.2362
 
              Baa    -0.0498    -6.679    -2.383    -2.228  0.8509 -0.1368  0.5072
    39 C(13)  Bbb     0.0223     2.992     1.068     0.998 -0.5077  0.0343  0.8609
              Bcc     0.0275     3.687     1.316     1.230  0.1351  0.9900  0.0402
 
              Baa    -0.0670    -8.984    -3.206    -2.997 -0.5549 -0.0441  0.8307
    40 C(13)  Bbb    -0.0603    -8.097    -2.889    -2.701  0.1237  0.9831  0.1348
              Bcc     0.1273    17.081     6.095     5.698  0.8226 -0.1776  0.5401
 
              Baa    -0.0042    -2.238    -0.799    -0.747 -0.6048  0.6686 -0.4326
    41 H(1)   Bbb    -0.0027    -1.431    -0.511    -0.477  0.6376  0.7320  0.2399
              Bcc     0.0069     3.670     1.309     1.224 -0.4770  0.1307  0.8691
 
              Baa    -0.0042    -2.267    -0.809    -0.756  0.8171  0.1615  0.5534
    42 H(1)   Bbb    -0.0025    -1.359    -0.485    -0.453 -0.3073  0.9342  0.1810
              Bcc     0.0068     3.625     1.294     1.209 -0.4878 -0.3180  0.8130
 
              Baa    -0.0023    -1.202    -0.429    -0.401  0.8960 -0.1598  0.4142
    43 H(1)   Bbb    -0.0002    -0.106    -0.038    -0.035 -0.4400 -0.4440  0.7806
              Bcc     0.0025     1.308     0.467     0.436 -0.0591  0.8817  0.4682
 
              Baa    -0.0023    -1.237    -0.441    -0.412  0.9012 -0.1868  0.3911
    44 H(1)   Bbb    -0.0004    -0.203    -0.072    -0.068 -0.3366  0.2667  0.9031
              Bcc     0.0027     1.440     0.514     0.480  0.2730  0.9455 -0.1775
 
              Baa    -0.0085    -4.538    -1.619    -1.514 -0.5290 -0.0607  0.8464
    45 H(1)   Bbb    -0.0008    -0.406    -0.145    -0.135  0.8408 -0.1726  0.5131
              Bcc     0.0093     4.944     1.764     1.649  0.1149  0.9831  0.1424
 
              Baa    -0.0004    -0.015    -0.005    -0.005  0.2032  0.9764  0.0728
    46 N(14)  Bbb    -0.0003    -0.013    -0.005    -0.004  0.1167 -0.0980  0.9883
              Bcc     0.0007     0.029     0.010     0.010  0.9722 -0.1923 -0.1339
 
              Baa    -0.0002    -0.031    -0.011    -0.010  0.3050  0.9523  0.0055
    47 C(13)  Bbb    -0.0001    -0.016    -0.006    -0.005 -0.1157  0.0313  0.9928
              Bcc     0.0003     0.047     0.017     0.016  0.9453 -0.3034  0.1197
 
              Baa    -0.0002    -0.022    -0.008    -0.007 -0.0939  0.3237  0.9415
    48 C(13)  Bbb    -0.0001    -0.016    -0.006    -0.005  0.3308  0.9021 -0.2772
              Bcc     0.0003     0.038     0.014     0.013  0.9390 -0.2854  0.1918
 
              Baa    -0.0002    -0.029    -0.011    -0.010  0.2383  0.7913  0.5631
    49 C(13)  Bbb    -0.0002    -0.026    -0.009    -0.009 -0.4182 -0.4397  0.7949
              Bcc     0.0004     0.055     0.020     0.018  0.8766 -0.4249  0.2261
 
              Baa    -0.0001    -0.016    -0.006    -0.005  0.3586  0.9297  0.0840
    50 C(13)  Bbb    -0.0001    -0.009    -0.003    -0.003 -0.1920 -0.0146  0.9813
              Bcc     0.0002     0.025     0.009     0.008  0.9135 -0.3681  0.1733
 
              Baa    -0.0002    -0.024    -0.009    -0.008  0.0864  0.3836  0.9195
    51 C(13)  Bbb    -0.0001    -0.018    -0.006    -0.006  0.5146  0.7731 -0.3709
              Bcc     0.0003     0.041     0.015     0.014  0.8531 -0.5052  0.1306
 
              Baa    -0.0001    -0.016    -0.006    -0.005  0.2633  0.6509  0.7120
    52 C(13)  Bbb    -0.0001    -0.013    -0.005    -0.004 -0.4034 -0.5962  0.6941
              Bcc     0.0002     0.029     0.010     0.010  0.8763 -0.4700  0.1056
 
              Baa    -0.0001    -0.065    -0.023    -0.022 -0.0185  0.4094  0.9122
    53 H(1)   Bbb    -0.0001    -0.059    -0.021    -0.020  0.2397  0.8875 -0.3935
              Bcc     0.0002     0.124     0.044     0.042  0.9707 -0.2114  0.1146
 
              Baa    -0.0004    -0.191    -0.068    -0.064  0.1252  0.4696  0.8740
    54 H(1)   Bbb    -0.0002    -0.107    -0.038    -0.036  0.4833  0.7404 -0.4671
              Bcc     0.0006     0.299     0.107     0.100  0.8664 -0.4809  0.1343
 
              Baa    -0.0001    -0.045    -0.016    -0.015  0.0519  0.4497  0.8917
    55 H(1)   Bbb    -0.0001    -0.040    -0.014    -0.013  0.3605  0.8242 -0.4367
              Bcc     0.0002     0.084     0.030     0.028  0.9313 -0.3442  0.1193
 
              Baa    -0.0002    -0.100    -0.036    -0.033  0.0450  0.2994  0.9531
    56 H(1)   Bbb    -0.0001    -0.072    -0.026    -0.024  0.5823  0.7674 -0.2685
              Bcc     0.0003     0.172     0.061     0.057  0.8117 -0.5670  0.1398
 
              Baa    -0.0001    -0.052    -0.019    -0.017  0.0438  0.3336  0.9417
    57 H(1)   Bbb    -0.0001    -0.042    -0.015    -0.014  0.5283  0.7923 -0.3052
              Bcc     0.0002     0.095     0.034     0.032  0.8479 -0.5109  0.1415
 
              Baa    -0.0003    -0.036    -0.013    -0.012 -0.0714  0.7176  0.6928
    58 C(13)  Bbb    -0.0002    -0.027    -0.010    -0.009 -0.2093 -0.6899  0.6930
              Bcc     0.0005     0.063     0.023     0.021  0.9752 -0.0955  0.1995
 
              Baa    -0.0002    -0.027    -0.010    -0.009 -0.2481  0.5380  0.8056
    59 C(13)  Bbb    -0.0002    -0.023    -0.008    -0.008  0.2546  0.8386 -0.4816
              Bcc     0.0004     0.050     0.018     0.017  0.9347 -0.0856  0.3450
 
              Baa    -0.0002    -0.031    -0.011    -0.010  0.0019 -0.6201  0.7846
    60 C(13)  Bbb    -0.0002    -0.026    -0.009    -0.009 -0.1440  0.7762  0.6138
              Bcc     0.0004     0.057     0.020     0.019  0.9896  0.1142  0.0878
 
              Baa    -0.0001    -0.019    -0.007    -0.006 -0.2392  0.8724  0.4262
    61 C(13)  Bbb    -0.0001    -0.018    -0.006    -0.006 -0.2892 -0.4831  0.8264
              Bcc     0.0003     0.037     0.013     0.012  0.9269  0.0744  0.3679
 
              Baa    -0.0002    -0.026    -0.009    -0.009 -0.0623 -0.4374  0.8971
    62 C(13)  Bbb    -0.0002    -0.021    -0.007    -0.007 -0.1936  0.8871  0.4190
              Bcc     0.0003     0.047     0.017     0.016  0.9791  0.1475  0.1400
 
              Baa    -0.0001    -0.020    -0.007    -0.007 -0.3267  0.7296  0.6008
    63 C(13)  Bbb    -0.0001    -0.018    -0.006    -0.006 -0.1003 -0.6588  0.7456
              Bcc     0.0003     0.038     0.014     0.013  0.9398  0.1833  0.2884
 
              Baa    -0.0002    -0.097    -0.035    -0.032 -0.2028  0.6662  0.7177
    64 H(1)   Bbb    -0.0001    -0.079    -0.028    -0.026  0.3576  0.7327 -0.5790
              Bcc     0.0003     0.176     0.063     0.059  0.9116 -0.1392  0.3868
 
              Baa    -0.0003    -0.153    -0.054    -0.051  0.0503 -0.1708  0.9840
    65 H(1)   Bbb    -0.0003    -0.138    -0.049    -0.046 -0.0450  0.9839  0.1731
              Bcc     0.0005     0.291     0.104     0.097  0.9977  0.0530 -0.0418
 
              Baa    -0.0001    -0.063    -0.023    -0.021 -0.2943  0.8460  0.4446
    66 H(1)   Bbb    -0.0001    -0.057    -0.020    -0.019 -0.3345 -0.5270  0.7813
              Bcc     0.0002     0.121     0.043     0.040  0.8953  0.0812  0.4380
 
              Baa    -0.0002    -0.084    -0.030    -0.028 -0.3093  0.8671  0.3905
    67 H(1)   Bbb    -0.0002    -0.082    -0.029    -0.027  0.0500 -0.3953  0.9172
              Bcc     0.0003     0.166     0.059     0.055  0.9497  0.3032  0.0789
 
              Baa    -0.0001    -0.059    -0.021    -0.020 -0.3116  0.9463  0.0859
    68 H(1)   Bbb    -0.0001    -0.056    -0.020    -0.019 -0.2709 -0.1751  0.9465
              Bcc     0.0002     0.115     0.041     0.038  0.9108  0.2717  0.3109
 

 ---------------------------------------------------------------------------------

 No NMR shielding tensors so no spin-rotation constants.
 Leave Link  601 at Fri Jan 29 19:56:25 2021, MaxMem=  4026531840 cpu:              14.7 elap:               2.0
 (Enter /opt/ohpc/pub/libs/gaussian/g16-A.03/sandybridge/g16/l9999.exe)

 Test job not archived.
 1\1\GINC-CNODE210\SP\ULC-wHPBE\TZVP\C36H28N2S2(1+,2)\RDU230\29-Jan-202
 1\0\\#P LC-wHPBE/TZVP iop(3/107=0221200000, 3/108=0221200000) scf=(con
 ver=6,fermi,ndamp=35,noincfock,novaracc,vshift=500,xqc)\\H28 C36 S2 N2
 \\1,2\C,0,-2.604951,0.985352,-0.477595\C,0,-1.595468,1.227646,-1.39689
 7\S,0,-0.459746,2.557842,-1.073663\C,0,-1.509976,0.467226,-2.564163\C,
 0,1.043777,0.455726,-0.021717\C,0,1.03833,1.682104,-0.668307\C,0,-3.55
 7585,-0.001751,-0.697168\C,0,-2.447111,-0.539154,-2.764444\H,0,-0.5963
 18,-0.14267,-4.605045\C,0,2.238728,-0.147647,0.319798\C,0,2.246539,2.2
 97832,-0.961919\C,0,3.442101,1.694718,-0.621166\C,0,3.453096,0.46292,0
 .023837\H,0,2.234263,-1.106243,0.827797\H,0,2.253931,3.248348,-1.48634
 6\H,0,4.381679,2.178238,-0.866461\C,0,-3.461673,-0.764082,-1.856276\H,
 0,-2.646669,1.585519,0.424718\H,0,0.106936,-0.032641,0.224382\H,0,-2.4
 04245,-1.146243,-3.663282\H,0,-4.192893,-1.542008,-2.047877\S,0,-0.233
 558,0.817463,-3.737465\N,0,4.673686,-0.159547,0.368747\C,0,5.732508,0.
 612661,0.896564\C,0,7.045695,0.37796,0.499452\C,0,5.475865,1.622329,1.
 819567\C,0,8.078745,1.133154,1.024558\C,0,6.512871,2.384632,2.326214\C
 ,0,7.820306,2.143178,1.9369\H,0,7.251646,-0.403669,-0.22406\H,0,4.4548
 3,1.807304,2.136118\H,0,9.097402,0.93653,0.704866\H,0,6.295127,3.16901
 3,3.044416\H,0,8.632202,2.738403,2.341339\C,0,4.837054,-1.548147,0.168
 533\C,0,5.516065,-2.321618,1.105787\C,0,4.319017,-2.163542,-0.967486\C
 ,0,5.679987,-3.679833,0.902534\C,0,4.472338,-3.525567,-1.15401\C,0,5.1
 56657,-4.292005,-0.224805\H,0,5.917204,-1.848815,1.995947\H,0,3.79167,
 -1.566068,-1.703651\H,0,6.213214,-4.268058,1.642948\H,0,4.061647,-3.98
 973,-2.045325\H,0,5.281223,-5.35883,-0.377899\N,0,-4.591369,-0.225236,
 0.235572\C,0,-4.996809,-1.544618,0.539366\C,0,-6.345932,-1.849462,0.69
 3639\C,0,-4.053605,-2.557013,0.688173\C,0,-6.738551,-3.140118,0.998819
 \C,0,-4.45592,-3.848924,0.975713\C,0,-5.798707,-4.148587,1.137139\H,0,
 -7.085839,-1.064984,0.575406\H,0,-2.999778,-2.324624,0.576668\H,0,-7.7
 94748,-3.361033,1.117399\H,0,-3.707423,-4.627077,1.088273\H,0,-6.11071
 1,-5.161215,1.369943\C,0,-5.228462,0.872905,0.859345\C,0,-5.548183,0.8
 24769,2.212595\C,0,-5.541916,2.014931,0.129127\C,0,-6.178047,1.897088,
 2.818017\C,0,-6.155123,3.090236,0.746513\C,0,-6.481192,3.037227,2.0917
 54\H,0,-5.300925,-0.061617,2.787177\H,0,-5.299559,2.056134,-0.927579\H
 ,0,-6.421719,1.844307,3.874525\H,0,-6.390696,3.975287,0.163884\H,0,-6.
 967632,3.87989,2.571608\\Version=EM64L-G16RevA.03\State=2-A\HF=-2293.1
 637922\S2=0.774536\S2-1=0.\S2A=0.750532\RMSD=6.549e-09\Dipole=6.075393
 7,-0.9158032,0.450439\Quadrupole=59.8919609,-21.2017217,-38.6902392,-1
 .6098503,10.2589126,7.6554433\PG=C01 [X(C36H28N2S2)]\\@


 HERE WE GO......
 SLIDING DOWN THE RAZOR BLADE OF LIFE......
                                 TOM LEHRER
 Job cpu time:       1 days 17 hours 39 minutes 58.6 seconds.
 Elapsed time:       0 days  5 hours 15 minutes 58.4 seconds.
 File lengths (MBytes):  RWF=    464 Int=      0 D2E=      0 Chk=     68 Scr=      8
 Normal termination of Gaussian 16 at Fri Jan 29 19:56:26 2021.
