 Entering Gaussian System, Link 0=g16
 Input=mol_ta_pa_whol_tune_c2.gjf
 Output=mol_ta_pa_whol_tune_c2.log
 Initial command:
 /opt/ohpc/pub/libs/gaussian/g16-A.03/sandybridge/g16/l1.exe "/mnt/gpfs2_4m/scratch/rdu230/ondemand/projects/init_structures/gaussian/wtuning/mol_ta_pa_whol/tuning_mol_ta_pa_whol_ocycle0/Gau-34167.inp" -scrdir="/mnt/gpfs2_4m/scratch/rdu230/ondemand/projects/init_structures/gaussian/wtuning/mol_ta_pa_whol/tuning_mol_ta_pa_whol_ocycle0/"
 Entering Link 1 = /opt/ohpc/pub/libs/gaussian/g16-A.03/sandybridge/g16/l1.exe PID=     34168.
  
 Copyright (c) 1988,1990,1992,1993,1995,1998,2003,2009,2016,
            Gaussian, Inc.  All Rights Reserved.
  
 This is part of the Gaussian(R) 16 program.  It is based on
 the Gaussian(R) 09 system (copyright 2009, Gaussian, Inc.),
 the Gaussian(R) 03 system (copyright 2003, Gaussian, Inc.),
 the Gaussian(R) 98 system (copyright 1998, Gaussian, Inc.),
 the Gaussian(R) 94 system (copyright 1995, Gaussian, Inc.),
 the Gaussian 92(TM) system (copyright 1992, Gaussian, Inc.),
 the Gaussian 90(TM) system (copyright 1990, Gaussian, Inc.),
 the Gaussian 88(TM) system (copyright 1988, Gaussian, Inc.),
 the Gaussian 86(TM) system (copyright 1986, Carnegie Mellon
 University), and the Gaussian 82(TM) system (copyright 1983,
 Carnegie Mellon University). Gaussian is a federally registered
 trademark of Gaussian, Inc.
  
 This software contains proprietary and confidential information,
 including trade secrets, belonging to Gaussian, Inc.
  
 This software is provided under written license and may be
 used, copied, transmitted, or stored only in accord with that
 written license.
  
 The following legend is applicable only to US Government
 contracts under FAR:
  
                    RESTRICTED RIGHTS LEGEND
  
 Use, reproduction and disclosure by the US Government is
 subject to restrictions as set forth in subparagraphs (a)
 and (c) of the Commercial Computer Software - Restricted
 Rights clause in FAR 52.227-19.
  
 Gaussian, Inc.
 340 Quinnipiac St., Bldg. 40, Wallingford CT 06492
  
  
 ---------------------------------------------------------------
 Warning -- This program may not be used in any manner that
 competes with the business of Gaussian, Inc. or will provide
 assistance to any competitor of Gaussian, Inc.  The licensee
 of this program is prohibited from giving any competitor of
 Gaussian, Inc. access to this program.  By using this program,
 the user acknowledges that Gaussian, Inc. is engaged in the
 business of creating and licensing software in the field of
 computational chemistry and represents and warrants to the
 licensee that it is not a competitor of Gaussian, Inc. and that
 it will not use this program in any manner prohibited above.
 ---------------------------------------------------------------
  

 Cite this work as:
 Gaussian 16, Revision A.03,
 M. J. Frisch, G. W. Trucks, H. B. Schlegel, G. E. Scuseria, 
 M. A. Robb, J. R. Cheeseman, G. Scalmani, V. Barone, 
 G. A. Petersson, H. Nakatsuji, X. Li, M. Caricato, A. V. Marenich, 
 J. Bloino, B. G. Janesko, R. Gomperts, B. Mennucci, H. P. Hratchian, 
 J. V. Ortiz, A. F. Izmaylov, J. L. Sonnenberg, D. Williams-Young, 
 F. Ding, F. Lipparini, F. Egidi, J. Goings, B. Peng, A. Petrone, 
 T. Henderson, D. Ranasinghe, V. G. Zakrzewski, J. Gao, N. Rega, 
 G. Zheng, W. Liang, M. Hada, M. Ehara, K. Toyota, R. Fukuda, 
 J. Hasegawa, M. Ishida, T. Nakajima, Y. Honda, O. Kitao, H. Nakai, 
 T. Vreven, K. Throssell, J. A. Montgomery, Jr., J. E. Peralta, 
 F. Ogliaro, M. J. Bearpark, J. J. Heyd, E. N. Brothers, K. N. Kudin, 
 V. N. Staroverov, T. A. Keith, R. Kobayashi, J. Normand, 
 K. Raghavachari, A. P. Rendell, J. C. Burant, S. S. Iyengar, 
 J. Tomasi, M. Cossi, J. M. Millam, M. Klene, C. Adamo, R. Cammi, 
 J. W. Ochterski, R. L. Martin, K. Morokuma, O. Farkas, 
 J. B. Foresman, and D. J. Fox, Gaussian, Inc., Wallingford CT, 2016.
 
 ******************************************
 Gaussian 16:  EM64L-G16RevA.03 25-Dec-2016
                27-Jan-2021 
 ******************************************
 %mem=30GB
 %nproc=8
 Will use up to    8 processors via shared memory.
 ----------------------------------------------------------------------
 #P LC-wHPBE/TZVP iop(3/107=0156200000, 3/108=0156200000) scf=(conver=6
 ,fermi,ndamp=35,noincfock,novaracc,vshift=500,xqc)
 ----------------------------------------------------------------------
 1/38=1,172=1/1;
 2/12=2,17=6,18=5,40=1/2;
 3/5=19,7=101,11=2,25=1,30=1,74=-71,107=156200000,108=156200000/1,2,3;
 4//1;
 5/5=100002,6=6,8=3,10=500,13=1,18=-1,22=13,38=1,93=35/2,8;
 6/7=2,8=2,9=2,10=2,28=1/1;
 99/5=1,9=1/99;
 Leave Link    1 at Wed Jan 27 15:53:11 2021, MaxMem=  4026531840 cpu:               1.3 elap:               0.2
 (Enter /opt/ohpc/pub/libs/gaussian/g16-A.03/sandybridge/g16/l101.exe)
 -------------
 H28 C36 S2 N2
 -------------
 Symbolic Z-matrix:
 Charge =  1 Multiplicity = 2
 C                    -2.60495   0.98535  -0.4776 
 C                    -1.59547   1.22765  -1.3969 
 S                    -0.45975   2.55784  -1.07366 
 C                    -1.50998   0.46723  -2.56416 
 C                     1.04378   0.45573  -0.02172 
 C                     1.03833   1.6821   -0.66831 
 C                    -3.55759  -0.00175  -0.69717 
 C                    -2.44711  -0.53915  -2.76444 
 H                    -0.59632  -0.14267  -4.60505 
 C                     2.23873  -0.14765   0.3198 
 C                     2.24654   2.29783  -0.96192 
 C                     3.4421    1.69472  -0.62117 
 C                     3.4531    0.46292   0.02384 
 H                     2.23426  -1.10624   0.8278 
 H                     2.25393   3.24835  -1.48635 
 H                     4.38168   2.17824  -0.86646 
 C                    -3.46167  -0.76408  -1.85628 
 H                    -2.64667   1.58552   0.42472 
 H                     0.10694  -0.03264   0.22438 
 H                    -2.40424  -1.14624  -3.66328 
 H                    -4.19289  -1.54201  -2.04788 
 S                    -0.23356   0.81746  -3.73747 
 N                     4.67369  -0.15955   0.36875 
 C                     5.73251   0.61266   0.89656 
 C                     7.0457    0.37796   0.49945 
 C                     5.47587   1.62233   1.81957 
 C                     8.07874   1.13315   1.02456 
 C                     6.51287   2.38463   2.32621 
 C                     7.82031   2.14318   1.9369 
 H                     7.25165  -0.40367  -0.22406 
 H                     4.45483   1.8073    2.13612 
 H                     9.0974    0.93653   0.70487 
 H                     6.29513   3.16901   3.04442 
 H                     8.6322    2.7384    2.34134 
 C                     4.83705  -1.54815   0.16853 
 C                     5.51607  -2.32162   1.10579 
 C                     4.31902  -2.16354  -0.96749 
 C                     5.67999  -3.67983   0.90253 
 C                     4.47234  -3.52557  -1.15401 
 C                     5.15666  -4.29201  -0.22481 
 H                     5.9172   -1.84882   1.99595 
 H                     3.79167  -1.56607  -1.70365 
 H                     6.21321  -4.26806   1.64295 
 H                     4.06165  -3.98973  -2.04533 
 H                     5.28122  -5.35883  -0.3779 
 N                    -4.59137  -0.22524   0.23557 
 C                    -4.99681  -1.54462   0.53937 
 C                    -6.34593  -1.84946   0.69364 
 C                    -4.05361  -2.55701   0.68817 
 C                    -6.73855  -3.14012   0.99882 
 C                    -4.45592  -3.84892   0.97571 
 C                    -5.79871  -4.14859   1.13714 
 H                    -7.08584  -1.06498   0.57541 
 H                    -2.99978  -2.32462   0.57667 
 H                    -7.79475  -3.36103   1.1174 
 H                    -3.70742  -4.62708   1.08827 
 H                    -6.11071  -5.16122   1.36994 
 C                    -5.22846   0.87291   0.85935 
 C                    -5.54818   0.82477   2.2126 
 C                    -5.54192   2.01493   0.12913 
 C                    -6.17805   1.89709   2.81802 
 C                    -6.15512   3.09024   0.74651 
 C                    -6.48119   3.03723   2.09175 
 H                    -5.30093  -0.06162   2.78718 
 H                    -5.29956   2.05613  -0.92758 
 H                    -6.42172   1.84431   3.87453 
 H                    -6.3907    3.97529   0.16388 
 H                    -6.96763   3.87989   2.57161 
 
 ITRead=  0  0  0  0  0  0  0  0  0  0  0  0  0  0  0  0  0  0  0  0
 ITRead=  0  0  0  0  0  0  0  0  0  0  0  0  0  0  0  0  0  0  0  0
 ITRead=  0  0  0  0  0  0  0  0  0  0  0  0  0  0  0  0  0  0  0  0
 ITRead=  0  0  0  0  0  0  0  0
 MicOpt= -1 -1 -1 -1 -1 -1 -1 -1 -1 -1 -1 -1 -1 -1 -1 -1 -1 -1 -1 -1
 MicOpt= -1 -1 -1 -1 -1 -1 -1 -1 -1 -1 -1 -1 -1 -1 -1 -1 -1 -1 -1 -1
 MicOpt= -1 -1 -1 -1 -1 -1 -1 -1 -1 -1 -1 -1 -1 -1 -1 -1 -1 -1 -1 -1
 MicOpt= -1 -1 -1 -1 -1 -1 -1 -1
 NAtoms=     68 NQM=       68 NQMF=       0 NMMI=      0 NMMIF=      0
                NMic=       0 NMicF=      0.
                    Isotopes and Nuclear Properties:
 (Nuclear quadrupole moments (NQMom) in fm**2, nuclear magnetic moments (NMagM)
  in nuclear magnetons)

  Atom         1           2           3           4           5           6           7           8           9          10
 IAtWgt=          12          12          32          12          12          12          12          12           1          12
 AtmWgt=  12.0000000  12.0000000  31.9720718  12.0000000  12.0000000  12.0000000  12.0000000  12.0000000   1.0078250  12.0000000
 NucSpn=           0           0           0           0           0           0           0           0           1           0
 AtZEff=  -0.0000000  -0.0000000  -0.0000000  -0.0000000  -0.0000000  -0.0000000  -0.0000000  -0.0000000  -0.0000000  -0.0000000
 NQMom=    0.0000000   0.0000000   0.0000000   0.0000000   0.0000000   0.0000000   0.0000000   0.0000000   0.0000000   0.0000000
 NMagM=    0.0000000   0.0000000   0.0000000   0.0000000   0.0000000   0.0000000   0.0000000   0.0000000   2.7928460   0.0000000
 AtZNuc=   6.0000000   6.0000000  16.0000000   6.0000000   6.0000000   6.0000000   6.0000000   6.0000000   1.0000000   6.0000000

  Atom        11          12          13          14          15          16          17          18          19          20
 IAtWgt=          12          12          12           1           1           1          12           1           1           1
 AtmWgt=  12.0000000  12.0000000  12.0000000   1.0078250   1.0078250   1.0078250  12.0000000   1.0078250   1.0078250   1.0078250
 NucSpn=           0           0           0           1           1           1           0           1           1           1
 AtZEff=  -0.0000000  -0.0000000  -0.0000000  -0.0000000  -0.0000000  -0.0000000  -0.0000000  -0.0000000  -0.0000000  -0.0000000
 NQMom=    0.0000000   0.0000000   0.0000000   0.0000000   0.0000000   0.0000000   0.0000000   0.0000000   0.0000000   0.0000000
 NMagM=    0.0000000   0.0000000   0.0000000   2.7928460   2.7928460   2.7928460   0.0000000   2.7928460   2.7928460   2.7928460
 AtZNuc=   6.0000000   6.0000000   6.0000000   1.0000000   1.0000000   1.0000000   6.0000000   1.0000000   1.0000000   1.0000000

  Atom        21          22          23          24          25          26          27          28          29          30
 IAtWgt=           1          32          14          12          12          12          12          12          12           1
 AtmWgt=   1.0078250  31.9720718  14.0030740  12.0000000  12.0000000  12.0000000  12.0000000  12.0000000  12.0000000   1.0078250
 NucSpn=           1           0           2           0           0           0           0           0           0           1
 AtZEff=  -0.0000000  -0.0000000  -0.0000000  -0.0000000  -0.0000000  -0.0000000  -0.0000000  -0.0000000  -0.0000000  -0.0000000
 NQMom=    0.0000000   0.0000000   2.0440000   0.0000000   0.0000000   0.0000000   0.0000000   0.0000000   0.0000000   0.0000000
 NMagM=    2.7928460   0.0000000   0.4037610   0.0000000   0.0000000   0.0000000   0.0000000   0.0000000   0.0000000   2.7928460
 AtZNuc=   1.0000000  16.0000000   7.0000000   6.0000000   6.0000000   6.0000000   6.0000000   6.0000000   6.0000000   1.0000000

  Atom        31          32          33          34          35          36          37          38          39          40
 IAtWgt=           1           1           1           1          12          12          12          12          12          12
 AtmWgt=   1.0078250   1.0078250   1.0078250   1.0078250  12.0000000  12.0000000  12.0000000  12.0000000  12.0000000  12.0000000
 NucSpn=           1           1           1           1           0           0           0           0           0           0
 AtZEff=  -0.0000000  -0.0000000  -0.0000000  -0.0000000  -0.0000000  -0.0000000  -0.0000000  -0.0000000  -0.0000000  -0.0000000
 NQMom=    0.0000000   0.0000000   0.0000000   0.0000000   0.0000000   0.0000000   0.0000000   0.0000000   0.0000000   0.0000000
 NMagM=    2.7928460   2.7928460   2.7928460   2.7928460   0.0000000   0.0000000   0.0000000   0.0000000   0.0000000   0.0000000
 AtZNuc=   1.0000000   1.0000000   1.0000000   1.0000000   6.0000000   6.0000000   6.0000000   6.0000000   6.0000000   6.0000000

  Atom        41          42          43          44          45          46          47          48          49          50
 IAtWgt=           1           1           1           1           1          14          12          12          12          12
 AtmWgt=   1.0078250   1.0078250   1.0078250   1.0078250   1.0078250  14.0030740  12.0000000  12.0000000  12.0000000  12.0000000
 NucSpn=           1           1           1           1           1           2           0           0           0           0
 AtZEff=  -0.0000000  -0.0000000  -0.0000000  -0.0000000  -0.0000000  -0.0000000  -0.0000000  -0.0000000  -0.0000000  -0.0000000
 NQMom=    0.0000000   0.0000000   0.0000000   0.0000000   0.0000000   2.0440000   0.0000000   0.0000000   0.0000000   0.0000000
 NMagM=    2.7928460   2.7928460   2.7928460   2.7928460   2.7928460   0.4037610   0.0000000   0.0000000   0.0000000   0.0000000
 AtZNuc=   1.0000000   1.0000000   1.0000000   1.0000000   1.0000000   7.0000000   6.0000000   6.0000000   6.0000000   6.0000000

  Atom        51          52          53          54          55          56          57          58          59          60
 IAtWgt=          12          12           1           1           1           1           1          12          12          12
 AtmWgt=  12.0000000  12.0000000   1.0078250   1.0078250   1.0078250   1.0078250   1.0078250  12.0000000  12.0000000  12.0000000
 NucSpn=           0           0           1           1           1           1           1           0           0           0
 AtZEff=  -0.0000000  -0.0000000  -0.0000000  -0.0000000  -0.0000000  -0.0000000  -0.0000000  -0.0000000  -0.0000000  -0.0000000
 NQMom=    0.0000000   0.0000000   0.0000000   0.0000000   0.0000000   0.0000000   0.0000000   0.0000000   0.0000000   0.0000000
 NMagM=    0.0000000   0.0000000   2.7928460   2.7928460   2.7928460   2.7928460   2.7928460   0.0000000   0.0000000   0.0000000
 AtZNuc=   6.0000000   6.0000000   1.0000000   1.0000000   1.0000000   1.0000000   1.0000000   6.0000000   6.0000000   6.0000000

  Atom        61          62          63          64          65          66          67          68
 IAtWgt=          12          12          12           1           1           1           1           1
 AtmWgt=  12.0000000  12.0000000  12.0000000   1.0078250   1.0078250   1.0078250   1.0078250   1.0078250
 NucSpn=           0           0           0           1           1           1           1           1
 AtZEff=  -0.0000000  -0.0000000  -0.0000000  -0.0000000  -0.0000000  -0.0000000  -0.0000000  -0.0000000
 NQMom=    0.0000000   0.0000000   0.0000000   0.0000000   0.0000000   0.0000000   0.0000000   0.0000000
 NMagM=    0.0000000   0.0000000   0.0000000   2.7928460   2.7928460   2.7928460   2.7928460   2.7928460
 AtZNuc=   6.0000000   6.0000000   6.0000000   1.0000000   1.0000000   1.0000000   1.0000000   1.0000000
 Leave Link  101 at Wed Jan 27 15:53:11 2021, MaxMem=  4026531840 cpu:               0.8 elap:               0.1
 (Enter /opt/ohpc/pub/libs/gaussian/g16-A.03/sandybridge/g16/l202.exe)
 Stoichiometry    C36H28N2S2(1+,2)
 Framework group  C1[X(C36H28N2S2)]
 Deg. of freedom   198
 Full point group                 C1      NOp   1
 Largest Abelian subgroup         C1      NOp   1
 Largest concise Abelian subgroup C1      NOp   1
                         Standard orientation:                         
 ---------------------------------------------------------------------
 Center     Atomic      Atomic             Coordinates (Angstroms)
 Number     Number       Type             X           Y           Z
 ---------------------------------------------------------------------
      1          6           0       -2.604951   -0.985352    0.477595
      2          6           0       -1.595468   -1.227646    1.396897
      3         16           0       -0.459746   -2.557842    1.073663
      4          6           0       -1.509976   -0.467226    2.564163
      5          6           0        1.043777   -0.455726    0.021717
      6          6           0        1.038330   -1.682104    0.668307
      7          6           0       -3.557585    0.001751    0.697168
      8          6           0       -2.447111    0.539154    2.764444
      9          1           0       -0.596318    0.142670    4.605045
     10          6           0        2.238728    0.147647   -0.319798
     11          6           0        2.246539   -2.297832    0.961919
     12          6           0        3.442101   -1.694718    0.621166
     13          6           0        3.453096   -0.462920   -0.023837
     14          1           0        2.234263    1.106243   -0.827797
     15          1           0        2.253931   -3.248348    1.486346
     16          1           0        4.381679   -2.178238    0.866461
     17          6           0       -3.461673    0.764082    1.856276
     18          1           0       -2.646669   -1.585519   -0.424718
     19          1           0        0.106936    0.032641   -0.224382
     20          1           0       -2.404245    1.146243    3.663282
     21          1           0       -4.192893    1.542008    2.047877
     22         16           0       -0.233558   -0.817463    3.737465
     23          7           0        4.673686    0.159547   -0.368747
     24          6           0        5.732508   -0.612661   -0.896564
     25          6           0        7.045695   -0.377960   -0.499452
     26          6           0        5.475865   -1.622329   -1.819567
     27          6           0        8.078745   -1.133154   -1.024558
     28          6           0        6.512871   -2.384632   -2.326214
     29          6           0        7.820306   -2.143178   -1.936900
     30          1           0        7.251646    0.403669    0.224060
     31          1           0        4.454830   -1.807304   -2.136118
     32          1           0        9.097402   -0.936530   -0.704866
     33          1           0        6.295127   -3.169013   -3.044416
     34          1           0        8.632202   -2.738403   -2.341339
     35          6           0        4.837054    1.548147   -0.168533
     36          6           0        5.516065    2.321618   -1.105787
     37          6           0        4.319017    2.163542    0.967486
     38          6           0        5.679987    3.679833   -0.902534
     39          6           0        4.472338    3.525567    1.154010
     40          6           0        5.156657    4.292005    0.224805
     41          1           0        5.917204    1.848815   -1.995947
     42          1           0        3.791670    1.566068    1.703651
     43          1           0        6.213214    4.268058   -1.642948
     44          1           0        4.061647    3.989730    2.045325
     45          1           0        5.281223    5.358830    0.377899
     46          7           0       -4.591369    0.225236   -0.235572
     47          6           0       -4.996809    1.544618   -0.539366
     48          6           0       -6.345932    1.849462   -0.693639
     49          6           0       -4.053605    2.557013   -0.688173
     50          6           0       -6.738551    3.140118   -0.998819
     51          6           0       -4.455920    3.848924   -0.975713
     52          6           0       -5.798707    4.148587   -1.137139
     53          1           0       -7.085839    1.064984   -0.575406
     54          1           0       -2.999778    2.324624   -0.576668
     55          1           0       -7.794748    3.361033   -1.117399
     56          1           0       -3.707423    4.627077   -1.088273
     57          1           0       -6.110711    5.161215   -1.369943
     58          6           0       -5.228462   -0.872905   -0.859345
     59          6           0       -5.548183   -0.824769   -2.212595
     60          6           0       -5.541916   -2.014931   -0.129127
     61          6           0       -6.178047   -1.897088   -2.818017
     62          6           0       -6.155123   -3.090236   -0.746513
     63          6           0       -6.481192   -3.037227   -2.091754
     64          1           0       -5.300925    0.061617   -2.787177
     65          1           0       -5.299559   -2.056134    0.927579
     66          1           0       -6.421719   -1.844307   -3.874525
     67          1           0       -6.390696   -3.975287   -0.163884
     68          1           0       -6.967632   -3.879890   -2.571608
 ---------------------------------------------------------------------
 Rotational constants (GHZ):           0.1314912           0.0372042           0.0344004
 Leave Link  202 at Wed Jan 27 15:53:11 2021, MaxMem=  4026531840 cpu:               0.1 elap:               0.0
 (Enter /opt/ohpc/pub/libs/gaussian/g16-A.03/sandybridge/g16/l301.exe)
 Standard basis: TZVP (5D, 7F)
 Ernie: Thresh=  0.10000D-02 Tol=  0.10000D-05 Strict=F.
 There are   974 symmetry adapted cartesian basis functions of A   symmetry.
 There are   934 symmetry adapted basis functions of A   symmetry.
   934 basis functions,  1648 primitive gaussians,   974 cartesian basis functions
   145 alpha electrons      144 beta electrons
       nuclear repulsion energy      4395.1421619507 Hartrees.
 IExCor=33909 DFT=T Ex+Corr=LC-wHPBE ExCW=0 ScaHFX=  1.000000
 ScaDFX=  1.000000  1.000000  1.000000  1.000000 ScalE2=  1.000000  1.000000
 IRadAn=      5 IRanWt=     -1 IRanGd=            0 ICorTp=0 IEmpDi=  4
 HFx  wShort=  0.000000 wLong=  0.156200 cFull=  0.000000 cShort=  0.000000 cLong=  1.000000
 DFx  wShort=  0.000000 wLong=  0.156200 cFull=  0.000000 cShort=  1.000000 cLong=  0.000000
 NAtoms=   68 NActive=   68 NUniq=   68 SFac= 1.00D+00 NAtFMM=   60 NAOKFM=T Big=T
 Integral buffers will be    131072 words long.
 Raffenetti 2 integral format.
 Two-electron integral symmetry is turned on.
 Leave Link  301 at Wed Jan 27 15:53:11 2021, MaxMem=  4026531840 cpu:               0.4 elap:               0.1
 (Enter /opt/ohpc/pub/libs/gaussian/g16-A.03/sandybridge/g16/l302.exe)
 NPDir=0 NMtPBC=     1 NCelOv=     1 NCel=       1 NClECP=     1 NCelD=      1
         NCelK=      1 NCelE2=     1 NClLst=     1 CellRange=     0.0.
 One-electron integrals computed using PRISM.
 One-electron integral symmetry used in STVInt
 NBasis=   934 RedAO= T EigKep=  5.84D-06  NBF=   934
 NBsUse=   934 1.00D-06 EigRej= -1.00D+00 NBFU=   934
 Precomputing XC quadrature grid using
 IXCGrd= 4 IRadAn=           5 IRanWt=          -1 IRanGd=           0 AccXCQ= 0.00D+00.
 Generated NRdTot=       0 NPtTot=           0 NUsed=           0 NTot=          32
 NSgBfM=   919   919   919   919   919 MxSgAt=    68 MxSgA2=    68.
 Leave Link  302 at Wed Jan 27 15:53:14 2021, MaxMem=  4026531840 cpu:              25.5 elap:               3.2
 (Enter /opt/ohpc/pub/libs/gaussian/g16-A.03/sandybridge/g16/l303.exe)
 DipDrv:  MaxL=1.
 Leave Link  303 at Wed Jan 27 15:53:15 2021, MaxMem=  4026531840 cpu:               1.8 elap:               0.3
 (Enter /opt/ohpc/pub/libs/gaussian/g16-A.03/sandybridge/g16/l401.exe)
 ExpMin= 9.52D-02 ExpMax= 6.07D+04 ExpMxC= 2.07D+03 IAcc=3 IRadAn=         5 AccDes= 0.00D+00
 Harris functional with IExCor=33909 and IRadAn=       5 diagonalized for initial guess.
 HarFok:  IExCor=33909 AccDes= 0.00D+00 IRadAn=         5 IDoV= 1 UseB2=F ITyADJ=14
 ICtDFT=  3500011 ScaDFX=  1.000000  1.000000  1.000000  1.000000
 FoFCou: FMM=F IPFlag=           0 FMFlag=      100000 FMFlg1=        2001
         NFxFlg=           0 DoJE=T BraDBF=F KetDBF=T FulRan=T
         wScrn=  0.000000 ICntrl=       500 IOpCl=  0 I1Cent=   200000004 NGrid=           0
         NMat0=    1 NMatS0=      1 NMatT0=    0 NMatD0=    1 NMtDS0=    0 NMtDT0=    0
 Petite list used in FoFCou.
 Harris En= -2268.70813343833    
 JPrj=0 DoOrth=F DoCkMO=F.
 Initial guess <Sx>= 0.0000 <Sy>= 0.0000 <Sz>= 0.5000 <S**2>= 0.7500 S= 0.5000
 Leave Link  401 at Wed Jan 27 15:53:30 2021, MaxMem=  4026531840 cpu:             124.5 elap:              15.7
 (Enter /opt/ohpc/pub/libs/gaussian/g16-A.03/sandybridge/g16/l502.exe)
 Integral symmetry usage will be decided dynamically.
 UHF open shell SCF:
 Using DIIS extrapolation, IDIIS=    10.
 NGot=  4026531840 LenX=  4024617300 LenY=  4023667650
 Requested convergence on RMS density matrix=1.00D-06 within  32 cycles.
 Requested convergence on MAX density matrix=1.00D-04.
 Requested convergence on             energy=1.00D-04.
 Virtual orbitals will be shifted by   0.500 hartree.
 No special actions if energy rises.
 Dynamic level shift is on during FON iterations.

 Cycle   1  Pass 1  IDiag  1:
 FoFJK:  IHMeth= 1 ICntrl=       0 DoSepK=T KAlg= 0 I1Cent=           0 FoldK=F
 IRaf=         1 NMat=       1 IRICut=       1 DoRegI=T DoRafI=F ISym2E= 0 IDoP0=0 IntGTp=1.
 FoFCou: FMM=T IPFlag=           0 FMFlag=      100000 FMFlg1=        2001
         NFxFlg=           0 DoJE=T BraDBF=F KetDBF=F FulRan=T
         wScrn=  0.000000 ICntrl=       500 IOpCl=  0 I1Cent=           0 NGrid=           0
         NMat0=    1 NMatS0=      1 NMatT0=    0 NMatD0=    1 NMtDS0=    0 NMtDT0=    0
 Symmetry not used in FoFCou.
 FMM levels:  10  Number of levels for PrismC:   9
 E= -2292.20315392485    
 DIIS: error= 3.24D-02 at cycle   1 NSaved=   1.
 NSaved= 1 IEnMin= 1 EnMin= -2292.20315392485     IErMin= 1 ErrMin= 3.24D-02
 ErrMax= 3.24D-02  0.00D+00 EMaxC= 1.00D+00 BMatC= 3.12D+00 BMatP= 3.12D+00
 IDIUse=1 WtCom= 1.00D+00 WtEn= 0.00D+00
 Coeff-Com:  0.100D+01
 Coeff:      0.100D+01
 Gap=     0.472 Goal=   None    Shift=    0.500
 T= 1543. Gap= 0.558 NK=0 IS=  146 IE=  934 IFin=  145
          NO(<0.9)=   0  NV(>0.1)=   0    145.00e < EF      0.00e >EF  Err=0.0D+00
 Gap=     0.108 Goal=   None    Shift=    0.500
 T= 1543. Gap= 0.408 NK=0 IS=  145 IE=  934 IFin=  144
          NO(<0.9)=   0  NV(>0.1)=   0    144.00e < EF      0.00e >EF  Err=0.0D+00
 GapD=    0.108 DampG=1.000 DampE=0.500 DampFc=0.5000 IDamp=-1.
 Damping current iteration by 5.00D-01
 RMSDP=2.55D-03 MaxDP=2.21D-01              OVMax= 1.04D-01

 Cycle   2  Pass 1  IDiag  1:
 E= -2292.71278369249     Delta-E=       -0.509629767643 Rises=F Damp=T
 DIIS: error= 1.43D-02 at cycle   2 NSaved=   2.
 NSaved= 2 IEnMin= 2 EnMin= -2292.71278369249     IErMin= 2 ErrMin= 1.43D-02
 ErrMax= 1.43D-02  0.00D+00 EMaxC= 1.00D+00 BMatC= 4.58D-01 BMatP= 3.12D+00
 IDIUse=1 WtCom= 1.00D+00 WtEn= 0.00D+00
 Coeff-Com: -0.489D+00 0.149D+01
 Coeff:     -0.489D+00 0.149D+01
 Gap=     0.214 Goal=   None    Shift=    0.500
 T= 1419. Gap= 0.668 NK=0 IS=  146 IE=  934 IFin=  145
          NO(<0.9)=   0  NV(>0.1)=   0    145.00e < EF      0.00e >EF  Err=0.0D+00
 Gap=     0.056 Goal=   None    Shift=    0.500
 T= 1419. Gap= 0.535 NK=0 IS=  145 IE=  934 IFin=  144
          NO(<0.9)=   0  NV(>0.1)=   0    144.00e < EF      0.00e >EF  Err=0.0D+00
 GapD=    0.056 DampG=0.500 DampE=0.500 DampFc=0.2500 IDamp=-1.
 Damping current iteration by 2.50D-01
 RMSDP=1.40D-03 MaxDP=1.20D-01 DE=-5.10D-01 OVMax= 4.99D-02

 Cycle   3  Pass 1  IDiag  1:
 E= -2292.80053641733     Delta-E=       -0.087752724845 Rises=F Damp=T
 DIIS: error= 1.02D-02 at cycle   3 NSaved=   3.
 NSaved= 3 IEnMin= 3 EnMin= -2292.80053641733     IErMin= 3 ErrMin= 1.02D-02
 ErrMax= 1.02D-02  0.00D+00 EMaxC= 1.00D+00 BMatC= 2.25D-01 BMatP= 4.58D-01
 IDIUse=1 WtCom= 1.00D+00 WtEn= 0.00D+00
 Coeff-Com:  0.885D-01-0.271D+01 0.362D+01
 Coeff:      0.885D-01-0.271D+01 0.362D+01
 Gap=     0.206 Goal=   None    Shift=    0.500
 T= 1221. Gap= 0.704 NK=4 IS=  146 IE=  163 IFin=  145
          NO(<0.9)=   0  NV(>0.1)=   0    145.00e < EF      0.00e >EF  Err=0.0D+00
 Gap=     0.067 Goal=   None    Shift=    0.500
 T= 1221. Gap= 0.566 NK=4 IS=  145 IE=  162 IFin=  144
          NO(<0.9)=   0  NV(>0.1)=   0    144.00e < EF      0.00e >EF  Err=0.0D+00
 GapD=    0.067 DampG=0.500 DampE=0.500 DampFc=0.2500 IDamp=-1.
 Damping current iteration by 2.50D-01
 RMSDP=1.16D-03 MaxDP=1.11D-01 DE=-8.78D-02 OVMax= 2.49D-02

 Cycle   4  Pass 1  IDiag  1:
 E= -2292.85965408027     Delta-E=       -0.059117662931 Rises=F Damp=T
 DIIS: error= 8.59D-03 at cycle   4 NSaved=   4.
 NSaved= 4 IEnMin= 4 EnMin= -2292.85965408027     IErMin= 4 ErrMin= 8.59D-03
 ErrMax= 8.59D-03  0.00D+00 EMaxC= 1.00D+00 BMatC= 1.20D-01 BMatP= 2.25D-01
 IDIUse=1 WtCom= 1.00D+00 WtEn= 0.00D+00
 Coeff-Com:  0.869D-01-0.338D+00-0.264D+01 0.389D+01
 Coeff:      0.869D-01-0.338D+00-0.264D+01 0.389D+01
 Gap=     0.206 Goal=   None    Shift=    0.500
 T=  896. Gap= 0.705 NK=4 IS=  146 IE=  163 IFin=  145
          NO(<0.9)=   0  NV(>0.1)=   0    145.00e < EF      0.00e >EF  Err=0.0D+00
 Gap=     0.066 Goal=   None    Shift=    0.500
 T=  896. Gap= 0.567 NK=4 IS=  145 IE=  162 IFin=  144
          NO(<0.9)=   0  NV(>0.1)=   0    144.00e < EF      0.00e >EF  Err=0.0D+00
 GapD=    0.066 DampG=0.500 DampE=1.000 DampFc=0.5000 IDamp=-1.
 Damping current iteration by 5.00D-01
 RMSDP=9.06D-04 MaxDP=9.39D-02 DE=-5.91D-02 OVMax= 2.69D-02

 Cycle   5  Pass 1  IDiag  1:
 E= -2292.94208111746     Delta-E=       -0.082427037197 Rises=F Damp=T
 DIIS: error= 6.22D-03 at cycle   5 NSaved=   5.
 NSaved= 5 IEnMin= 5 EnMin= -2292.94208111746     IErMin= 5 ErrMin= 6.22D-03
 ErrMax= 6.22D-03  0.00D+00 EMaxC= 1.00D+00 BMatC= 2.92D-02 BMatP= 1.20D-01
 IDIUse=1 WtCom= 1.00D+00 WtEn= 0.00D+00
 Coeff-Com: -0.142D-02 0.410D+00-0.190D+00-0.176D+01 0.254D+01
 Coeff:     -0.142D-02 0.410D+00-0.190D+00-0.176D+01 0.254D+01
 Gap=     0.210 Goal=   None    Shift=    0.500
 T=  728. Gap= 0.710 NK=4 IS=  146 IE=  163 IFin=  145
          NO(<0.9)=   0  NV(>0.1)=   0    145.00e < EF      0.00e >EF  Err=0.0D+00
 Gap=     0.069 Goal=   None    Shift=    0.500
 T=  728. Gap= 0.570 NK=4 IS=  145 IE=  162 IFin=  144
          NO(<0.9)=   0  NV(>0.1)=   0    144.00e < EF      0.00e >EF  Err=0.0D+00
 GapD=    0.069 DampG=0.500 DampE=1.000 DampFc=0.5000 IDamp=-1.
 Damping current iteration by 5.00D-01
 RMSDP=4.87D-04 MaxDP=5.21D-02 DE=-8.24D-02 OVMax= 2.47D-02

 Cycle   6  Pass 1  IDiag  1:
 E= -2292.98161084741     Delta-E=       -0.039529729946 Rises=F Damp=T
 DIIS: error= 4.88D-03 at cycle   6 NSaved=   6.
 NSaved= 6 IEnMin= 6 EnMin= -2292.98161084741     IErMin= 6 ErrMin= 4.88D-03
 ErrMax= 4.88D-03  0.00D+00 EMaxC= 1.00D+00 BMatC= 7.94D-03 BMatP= 2.92D-02
 IDIUse=1 WtCom= 1.00D+00 WtEn= 0.00D+00
 Coeff-Com: -0.271D-01 0.214D+00 0.525D+00-0.629D+00-0.246D+01 0.337D+01
 Coeff:     -0.271D-01 0.214D+00 0.525D+00-0.629D+00-0.246D+01 0.337D+01
 Gap=     0.214 Goal=   None    Shift=    0.500
 T=  584. Gap= 0.714 NK=4 IS=  146 IE=  163 IFin=  145
          NO(<0.9)=   0  NV(>0.1)=   0    145.00e < EF      0.00e >EF  Err=0.0D+00
 Gap=     0.070 Goal=   None    Shift=    0.500
 T=  584. Gap= 0.571 NK=4 IS=  145 IE=  162 IFin=  144
          NO(<0.9)=   0  NV(>0.1)=   0    144.00e < EF      0.00e >EF  Err=0.0D+00
 GapD=    0.070 DampG=0.500 DampE=1.000 DampFc=0.5000 IDamp=-1.
 Damping current iteration by 5.00D-01
 RMSDP=2.96D-04 MaxDP=3.50D-02 DE=-3.95D-02 OVMax= 2.46D-02

 Cycle   7  Pass 1  IDiag  1:
 E= -2293.00157021932     Delta-E=       -0.019959371907 Rises=F Damp=T
 DIIS: error= 4.07D-03 at cycle   7 NSaved=   7.
 NSaved= 7 IEnMin= 7 EnMin= -2293.00157021932     IErMin= 7 ErrMin= 4.07D-03
 ErrMax= 4.07D-03  0.00D+00 EMaxC= 1.00D+00 BMatC= 2.61D-03 BMatP= 7.94D-03
 IDIUse=1 WtCom= 1.00D+00 WtEn= 0.00D+00
 Coeff-Com: -0.900D-02-0.142D+00 0.390D+00 0.622D+00-0.178D+01-0.178D+01
 Coeff-Com:  0.370D+01
 Coeff:     -0.900D-02-0.142D+00 0.390D+00 0.622D+00-0.178D+01-0.178D+01
 Coeff:      0.370D+01
 Gap=     0.216 Goal=   None    Shift=    0.500
 T=  428. Gap= 0.716 NK=4 IS=  146 IE=  164 IFin=  145
          NO(<0.9)=   0  NV(>0.1)=   0    145.00e < EF      0.00e >EF  Err=0.0D+00
 Gap=     0.070 Goal=   None    Shift=    0.500
 T=  428. Gap= 0.571 NK=4 IS=  145 IE=  162 IFin=  144
          NO(<0.9)=   0  NV(>0.1)=   0    144.00e < EF      0.00e >EF  Err=0.0D+00
 GapD=    0.070 DampG=0.500 DampE=1.000 DampFc=0.5000 IDamp=-1.
 Damping current iteration by 5.00D-01
 RMSDP=2.24D-04 MaxDP=2.46D-02 DE=-2.00D-02 OVMax= 2.49D-02

 Cycle   8  Pass 1  IDiag  1:
 E= -2293.01204437700     Delta-E=       -0.010474157680 Rises=F Damp=T
 DIIS: error= 3.52D-03 at cycle   8 NSaved=   8.
 NSaved= 8 IEnMin= 8 EnMin= -2293.01204437700     IErMin= 8 ErrMin= 3.52D-03
 ErrMax= 3.52D-03  0.00D+00 EMaxC= 1.00D+00 BMatC= 1.13D-03 BMatP= 2.61D-03
 IDIUse=1 WtCom= 1.00D+00 WtEn= 0.00D+00
 Coeff-Com:  0.638D-02-0.170D+00 0.118D+00 0.160D+00 0.814D+00-0.160D+01
 Coeff-Com: -0.247D+01 0.414D+01
 Coeff:      0.638D-02-0.170D+00 0.118D+00 0.160D+00 0.814D+00-0.160D+01
 Coeff:     -0.247D+01 0.414D+01
 Gap=     0.218 Goal=   None    Shift=    0.500
 T=  310. Gap= 0.718 NK=4 IS=  146 IE=  164 IFin=  145
          NO(<0.9)=   0  NV(>0.1)=   0    145.00e < EF      0.00e >EF  Err=0.0D+00
 Gap=     0.071 Goal=   None    Shift=    0.500
 T=  310. Gap= 0.571 NK=4 IS=  145 IE=  162 IFin=  144
          NO(<0.9)=   0  NV(>0.1)=   0    144.00e < EF      0.00e >EF  Err=0.0D+00
 GapD=    0.071 DampG=0.500 DampE=1.000 DampFc=0.5000 IDamp=-1.
 Damping current iteration by 5.00D-01
 RMSDP=1.85D-04 MaxDP=2.29D-02 DE=-1.05D-02 OVMax= 2.37D-02

 Cycle   9  Pass 1  IDiag  1:
 E= -2293.01774646020     Delta-E=       -0.005702083201 Rises=F Damp=T
 DIIS: error= 3.09D-03 at cycle   9 NSaved=   9.
 NSaved= 9 IEnMin= 9 EnMin= -2293.01774646020     IErMin= 9 ErrMin= 3.09D-03
 ErrMax= 3.09D-03  0.00D+00 EMaxC= 1.00D+00 BMatC= 6.30D-04 BMatP= 1.13D-03
 IDIUse=1 WtCom= 1.00D+00 WtEn= 0.00D+00
 Coeff-Com:  0.392D-02-0.342D-01 0.963D-01-0.574D+00 0.152D+01 0.606D-01
 Coeff-Com: -0.235D+01-0.207D+01 0.435D+01
 Coeff:      0.392D-02-0.342D-01 0.963D-01-0.574D+00 0.152D+01 0.606D-01
 Coeff:     -0.235D+01-0.207D+01 0.435D+01
 Gap=     0.220 Goal=   None    Shift=    0.500
 T=  217. Gap= 0.720 NK=4 IS=  146 IE=  164 IFin=  145
          NO(<0.9)=   0  NV(>0.1)=   0    145.00e < EF      0.00e >EF  Err=0.0D+00
 Gap=     0.071 Goal=   None    Shift=    0.500
 T=  217. Gap= 0.571 NK=4 IS=  145 IE=  162 IFin=  144
          NO(<0.9)=   0  NV(>0.1)=   0    144.00e < EF      0.00e >EF  Err=0.0D+00
 GapD=    0.071 DampG=0.500 DampE=1.000 DampFc=0.5000 IDamp=-1.
 Damping current iteration by 5.00D-01
 RMSDP=1.57D-04 MaxDP=2.20D-02 DE=-5.70D-03 OVMax= 2.27D-02

 Cycle  10  Pass 1  IDiag  1:
 E= -2293.02098559392     Delta-E=       -0.003239133724 Rises=F Damp=T
 DIIS: error= 2.74D-03 at cycle  10 NSaved=  10.
 NSaved=10 IEnMin=10 EnMin= -2293.02098559392     IErMin=10 ErrMin= 2.74D-03
 ErrMax= 2.74D-03  0.00D+00 EMaxC= 1.00D+00 BMatC= 4.25D-04 BMatP= 6.30D-04
 IDIUse=1 WtCom= 1.00D+00 WtEn= 0.00D+00
 Coeff-Com: -0.102D-01 0.694D-01 0.482D+00-0.965D+00-0.490D+00 0.215D+01
 Coeff-Com:  0.261D+01-0.708D+01-0.132D+01 0.555D+01
 Coeff:     -0.102D-01 0.694D-01 0.482D+00-0.965D+00-0.490D+00 0.215D+01
 Coeff:      0.261D+01-0.708D+01-0.132D+01 0.555D+01
 Gap=     0.224 Goal=   None    Shift=    0.500
 T=  137. Gap= 0.724 NK=4 IS=  146 IE=  164 IFin=  145
          NO(<0.9)=   0  NV(>0.1)=   0    145.00e < EF      0.00e >EF  Err=0.0D+00
 Gap=     0.070 Goal=   None    Shift=    0.500
 T=  137. Gap= 0.571 NK=4 IS=  145 IE=  162 IFin=  144
          NO(<0.9)=   0  NV(>0.1)=   0    144.00e < EF      0.00e >EF  Err=0.0D+00
 GapD=    0.070 DampG=0.500 DampE=1.000 DampFc=0.5000 IDamp=-1.
 Damping current iteration by 5.00D-01
 RMSDP=1.46D-04 MaxDP=2.10D-02 DE=-3.24D-03 OVMax= 2.33D-02

 Cycle  11  Pass 1  IDiag  1:
 E= -2293.02292580634     Delta-E=       -0.001940212414 Rises=F Damp=T
 DIIS: error= 2.43D-03 at cycle  11 NSaved=  11.
 NSaved=11 IEnMin=11 EnMin= -2293.02292580634     IErMin=11 ErrMin= 2.43D-03
 ErrMax= 2.43D-03  0.00D+00 EMaxC= 1.00D+00 BMatC= 3.35D-04 BMatP= 4.25D-04
 IDIUse=1 WtCom= 1.00D+00 WtEn= 0.00D+00
 Coeff-Com: -0.121D-01 0.236D-01 0.730D+00-0.104D+01-0.117D+01 0.240D+01
 Coeff-Com:  0.352D+01-0.631D+01-0.258D+01 0.350D+01 0.193D+01
 Coeff:     -0.121D-01 0.236D-01 0.730D+00-0.104D+01-0.117D+01 0.240D+01
 Coeff:      0.352D+01-0.631D+01-0.258D+01 0.350D+01 0.193D+01
 Gap=     0.224 Goal=   None    Shift=    0.500
 T=   63. Gap= 0.724 NK=4 IS=  146 IE=  163 IFin=  145
          NO(<0.9)=   0  NV(>0.1)=   0    145.00e < EF      0.00e >EF  Err=0.0D+00
 Gap=     0.071 Goal=   None    Shift=    0.500
 T=   63. Gap= 0.571 NK=4 IS=  145 IE=  162 IFin=  144
          NO(<0.9)=   0  NV(>0.1)=   0    144.00e < EF      0.00e >EF  Err=0.0D+00
 GapD=    0.071 DampG=0.500 DampE=1.000 DampFc=0.5000 IDamp=-1.
 Damping current iteration by 5.00D-01
 RMSDP=1.19D-04 MaxDP=1.61D-02 DE=-1.94D-03 OVMax= 2.00D-02

 Cycle  12  Pass 1  IDiag  1:
 E= -2293.02416117107     Delta-E=       -0.001235364733 Rises=F Damp=T
 DIIS: error= 2.14D-03 at cycle  12 NSaved=  12.
 NSaved=12 IEnMin=12 EnMin= -2293.02416117107     IErMin=12 ErrMin= 2.14D-03
 ErrMax= 2.14D-03  0.00D+00 EMaxC= 1.00D+00 BMatC= 2.73D-04 BMatP= 3.35D-04
 IDIUse=1 WtCom= 1.00D+00 WtEn= 0.00D+00
 Coeff-Com: -0.383D-02-0.112D+00 0.610D+00-0.318D+00-0.124D+01 0.667D+00
 Coeff-Com:  0.153D+01 0.860D+00-0.259D+01 0.232D+01-0.951D+01 0.879D+01
 Coeff:     -0.383D-02-0.112D+00 0.610D+00-0.318D+00-0.124D+01 0.667D+00
 Coeff:      0.153D+01 0.860D+00-0.259D+01 0.232D+01-0.951D+01 0.879D+01
 Gap=     0.228 Goal=   None    Shift=    0.500
 Gap=     0.069 Goal=   None    Shift=    0.500
 GapD=    0.069 DampG=0.500 DampE=1.000 DampFc=0.5000 IDamp=-1.
 Damping current iteration by 5.00D-01
 RMSDP=1.16D-04 MaxDP=1.56D-02 DE=-1.24D-03 OVMax= 2.16D-02

 Cycle  13  Pass 1  IDiag  1:
 E= -2293.02498424046     Delta-E=       -0.000823069387 Rises=F Damp=T
 DIIS: error= 1.88D-03 at cycle  13 NSaved=  13.
 NSaved=13 IEnMin=13 EnMin= -2293.02498424046     IErMin=13 ErrMin= 1.88D-03
 ErrMax= 1.88D-03  0.00D+00 EMaxC= 1.00D+00 BMatC= 2.57D-04 BMatP= 2.73D-04
 IDIUse=1 WtCom= 1.00D+00 WtEn= 0.00D+00
 Large coefficients: NSaved= 13 BigCof=   11.15 CofMax=   10.00 Det=-3.40D-07
 Inversion failed.  Reducing to 12 matrices.
 Large coefficients: NSaved= 12 BigCof=   11.43 CofMax=   10.00 Det=-3.98D-07
 Inversion failed.  Reducing to 11 matrices.
 Large coefficients: NSaved= 11 BigCof=   11.39 CofMax=   10.00 Det=-3.98D-07
 Inversion failed.  Reducing to 10 matrices.
 Large coefficients: NSaved= 10 BigCof=   13.68 CofMax=   10.00 Det=-4.66D-07
 Inversion failed.  Reducing to  9 matrices.
 Large coefficients: NSaved=  9 BigCof=   13.67 CofMax=   10.00 Det=-4.66D-07
 Inversion failed.  Reducing to  8 matrices.
 Large coefficients: NSaved=  8 BigCof=   13.29 CofMax=   10.00 Det=-5.85D-07
 Inversion failed.  Reducing to  7 matrices.
 Large coefficients: NSaved=  7 BigCof=   13.06 CofMax=   10.00 Det=-6.25D-07
 Inversion failed.  Reducing to  6 matrices.
 Large coefficients: NSaved=  6 BigCof=   11.34 CofMax=   10.00 Det=-7.75D-07
 Inversion failed.  Reducing to  5 matrices.
 Large coefficients: NSaved=  5 BigCof=   10.94 CofMax=   10.00 Det=-8.00D-07
 Inversion failed.  Reducing to  4 matrices.
 Large coefficients: NSaved=  4 BigCof=   11.03 CofMax=   10.00 Det=-8.01D-07
 Inversion failed.  Reducing to  3 matrices.
 Coeff-Com: -0.358D+01 0.557D+01-0.990D+00
 Coeff:     -0.358D+01 0.557D+01-0.990D+00
 Gap=     0.224 Goal=   None    Shift=    0.500
 Gap=     0.072 Goal=   None    Shift=    0.500
 GapD=    0.072 DampG=0.500 DampE=1.000 DampFc=0.5000 IDamp=-1.
 Damping current iteration by 5.00D-01
 RMSDP=6.70D-05 MaxDP=7.99D-03 DE=-8.23D-04 OVMax= 1.17D-02

 Cycle  14  Pass 1  IDiag  1:
 E= -2293.02557560195     Delta-E=       -0.000591361490 Rises=F Damp=T
 DIIS: error= 1.56D-03 at cycle  14 NSaved=   4.
 NSaved= 4 IEnMin= 4 EnMin= -2293.02557560195     IErMin= 4 ErrMin= 1.56D-03
 ErrMax= 1.56D-03  0.00D+00 EMaxC= 1.00D+00 BMatC= 1.59D-04 BMatP= 2.57D-04
 IDIUse=1 WtCom= 1.00D+00 WtEn= 0.00D+00
 Coeff-Com: -0.232D+01 0.279D+01-0.129D+01 0.182D+01
 Coeff:     -0.232D+01 0.279D+01-0.129D+01 0.182D+01
 Gap=     0.228 Goal=   None    Shift=    0.500
 Gap=     0.071 Goal=   None    Shift=    0.500
 GapD=    0.071 DampG=0.500 DampE=1.000 DampFc=0.5000 IDamp=-1.
 Damping current iteration by 5.00D-01
 RMSDP=6.67D-05 MaxDP=7.81D-03 DE=-5.91D-04 OVMax= 1.33D-02

 Cycle  15  Pass 1  IDiag  1:
 E= -2293.02597616974     Delta-E=       -0.000400567795 Rises=F Damp=T
 DIIS: error= 1.36D-03 at cycle  15 NSaved=   5.
 NSaved= 5 IEnMin= 5 EnMin= -2293.02597616974     IErMin= 5 ErrMin= 1.36D-03
 ErrMax= 1.36D-03  0.00D+00 EMaxC= 1.00D+00 BMatC= 1.29D-04 BMatP= 1.59D-04
 IDIUse=1 WtCom= 1.00D+00 WtEn= 0.00D+00
 Coeff-Com:  0.126D+01-0.186D+01-0.624D+00-0.308D+01 0.530D+01
 Coeff:      0.126D+01-0.186D+01-0.624D+00-0.308D+01 0.530D+01
 Gap=     0.232 Goal=   None    Shift=    0.500
 Gap=     0.070 Goal=   None    Shift=    0.500
 GapD=    0.070 DampG=0.500 DampE=1.000 DampFc=0.5000 IDamp=-1.
 Damping current iteration by 5.00D-01
 RMSDP=7.46D-05 MaxDP=8.62D-03 DE=-4.01D-04 OVMax= 1.52D-02

 Cycle  16  Pass 1  IDiag  1:
 E= -2293.02626919386     Delta-E=       -0.000293024116 Rises=F Damp=T
 DIIS: error= 1.23D-03 at cycle  16 NSaved=   6.
 NSaved= 6 IEnMin= 6 EnMin= -2293.02626919386     IErMin= 6 ErrMin= 1.23D-03
 ErrMax= 1.23D-03  0.00D+00 EMaxC= 1.00D+00 BMatC= 1.35D-04 BMatP= 1.29D-04
 IDIUse=1 WtCom= 1.00D+00 WtEn= 0.00D+00
 Coeff-Com:  0.192D+01-0.155D+01-0.233D+01-0.229D+01 0.286D+01 0.239D+01
 Coeff:      0.192D+01-0.155D+01-0.233D+01-0.229D+01 0.286D+01 0.239D+01
 Gap=     0.232 Goal=   None    Shift=    0.500
 Gap=     0.069 Goal=   None    Shift=    0.500
 GapD=    0.069 DampG=0.500 DampE=1.000 DampFc=0.5000 IDamp=-1.
 Damping current iteration by 5.00D-01
 RMSDP=6.98D-05 MaxDP=7.97D-03 DE=-2.93D-04 OVMax= 1.37D-02

 Cycle  17  Pass 1  IDiag  1:
 E= -2293.02650085688     Delta-E=       -0.000231663022 Rises=F Damp=T
 DIIS: error= 1.10D-03 at cycle  17 NSaved=   7.
 NSaved= 7 IEnMin= 7 EnMin= -2293.02650085688     IErMin= 7 ErrMin= 1.10D-03
 ErrMax= 1.10D-03  0.00D+00 EMaxC= 1.00D+00 BMatC= 1.48D-04 BMatP= 1.29D-04
 IDIUse=1 WtCom= 1.00D+00 WtEn= 0.00D+00
 Coeff-Com:  0.124D+01 0.181D-01-0.337D+01-0.961D+00 0.247D+01-0.932D+00
 Coeff-Com:  0.253D+01
 Coeff:      0.124D+01 0.181D-01-0.337D+01-0.961D+00 0.247D+01-0.932D+00
 Coeff:      0.253D+01
 Gap=     0.233 Goal=   None    Shift=    0.500
 Gap=     0.069 Goal=   None    Shift=    0.500
 GapD=    0.069 DampG=0.500 DampE=1.000 DampFc=0.5000 IDamp=-1.
 Damping current iteration by 5.00D-01
 RMSDP=5.83D-05 MaxDP=6.27D-03 DE=-2.32D-04 OVMax= 1.16D-02

 Cycle  18  Pass 1  IDiag  1:
 E= -2293.02669158222     Delta-E=       -0.000190725345 Rises=F Damp=T
 DIIS: error= 1.08D-03 at cycle  18 NSaved=   8.
 NSaved= 8 IEnMin= 8 EnMin= -2293.02669158222     IErMin= 8 ErrMin= 1.08D-03
 ErrMax= 1.08D-03  0.00D+00 EMaxC= 1.00D+00 BMatC= 1.43D-04 BMatP= 1.29D-04
 IDIUse=1 WtCom= 1.00D+00 WtEn= 0.00D+00
 Coeff-Com:  0.523D+00 0.504D+00-0.236D+01-0.576D+00 0.199D+01 0.957D+00
 Coeff-Com: -0.493D+01 0.489D+01
 Coeff:      0.523D+00 0.504D+00-0.236D+01-0.576D+00 0.199D+01 0.957D+00
 Coeff:     -0.493D+01 0.489D+01
 Gap=     0.234 Goal=   None    Shift=    0.500
 Gap=     0.069 Goal=   None    Shift=    0.500
 GapD=    0.069 DampG=0.500 DampE=1.000 DampFc=0.5000 IDamp=-1.
 Damping current iteration by 5.00D-01
 RMSDP=4.95D-05 MaxDP=5.10D-03 DE=-1.91D-04 OVMax= 1.00D-02

 Cycle  19  Pass 1  IDiag  1:
 E= -2293.02684659804     Delta-E=       -0.000155015821 Rises=F Damp=T
 DIIS: error= 1.06D-03 at cycle  19 NSaved=   9.
 NSaved= 9 IEnMin= 9 EnMin= -2293.02684659804     IErMin= 9 ErrMin= 1.06D-03
 ErrMax= 1.06D-03  0.00D+00 EMaxC= 1.00D+00 BMatC= 1.24D-04 BMatP= 1.29D-04
 IDIUse=1 WtCom= 1.00D+00 WtEn= 0.00D+00
 Coeff-Com: -0.119D-01 0.348D-01-0.144D-01-0.135D+01 0.203D+01 0.311D+01
 Coeff-Com: -0.737D+01-0.381D+00 0.495D+01
 Coeff:     -0.119D-01 0.348D-01-0.144D-01-0.135D+01 0.203D+01 0.311D+01
 Coeff:     -0.737D+01-0.381D+00 0.495D+01
 Gap=     0.235 Goal=   None    Shift=    0.500
 Gap=     0.069 Goal=   None    Shift=    0.500
 GapD=    0.069 DampG=0.500 DampE=1.000 DampFc=0.5000 IDamp=-1.
 Damping current iteration by 5.00D-01
 RMSDP=4.42D-05 MaxDP=4.78D-03 DE=-1.55D-04 OVMax= 8.74D-03

 Cycle  20  Pass 1  IDiag  1:
 E= -2293.02697033895     Delta-E=       -0.000123740902 Rises=F Damp=T
 DIIS: error= 1.06D-03 at cycle  20 NSaved=  10.
 NSaved=10 IEnMin=10 EnMin= -2293.02697033895     IErMin=10 ErrMin= 1.06D-03
 ErrMax= 1.06D-03  0.00D+00 EMaxC= 1.00D+00 BMatC= 1.06D-04 BMatP= 1.24D-04
 IDIUse=1 WtCom= 1.00D+00 WtEn= 0.00D+00
 Coeff-Com: -0.472D-01 0.724D-01 0.755D-01-0.184D+01 0.282D+01 0.115D+01
 Coeff-Com: -0.316D+01-0.134D+01-0.169D+00 0.344D+01
 Coeff:     -0.472D-01 0.724D-01 0.755D-01-0.184D+01 0.282D+01 0.115D+01
 Coeff:     -0.316D+01-0.134D+01-0.169D+00 0.344D+01
 Gap=     0.235 Goal=   None    Shift=    0.500
 Gap=     0.069 Goal=   None    Shift=    0.500
 GapD=    0.069 DampG=0.500 DampE=1.000 DampFc=0.5000 IDamp=-1.
 Damping current iteration by 5.00D-01
 RMSDP=3.80D-05 MaxDP=4.13D-03 DE=-1.24D-04 OVMax= 7.21D-03

 Cycle  21  Pass 1  IDiag  1:
 E= -2293.02706999118     Delta-E=       -0.000099652238 Rises=F Damp=T
 DIIS: error= 1.03D-03 at cycle  21 NSaved=  11.
 NSaved=11 IEnMin=11 EnMin= -2293.02706999118     IErMin=11 ErrMin= 1.03D-03
 ErrMax= 1.03D-03  0.00D+00 EMaxC= 1.00D+00 BMatC= 8.89D-05 BMatP= 1.06D-04
 IDIUse=1 WtCom= 1.00D+00 WtEn= 0.00D+00
 Coeff-Com:  0.154D+00 0.179D+00-0.592D+00-0.143D+01 0.245D+01-0.117D+01
 Coeff-Com:  0.199D+01-0.821D+00-0.128D+01-0.480D+01 0.632D+01
 Coeff:      0.154D+00 0.179D+00-0.592D+00-0.143D+01 0.245D+01-0.117D+01
 Coeff:      0.199D+01-0.821D+00-0.128D+01-0.480D+01 0.632D+01
 Gap=     0.237 Goal=   None    Shift=    0.500
 Gap=     0.069 Goal=   None    Shift=    0.500
 GapD=    0.069 DampG=0.500 DampE=1.000 DampFc=0.5000 IDamp=-1.
 Damping current iteration by 5.00D-01
 RMSDP=3.57D-05 MaxDP=3.99D-03 DE=-9.97D-05 OVMax= 6.65D-03

 Cycle  22  Pass 1  IDiag  1:
 E= -2293.02714961115     Delta-E=       -0.000079619968 Rises=F Damp=T
 DIIS: error= 1.03D-03 at cycle  22 NSaved=  12.
 NSaved=12 IEnMin=12 EnMin= -2293.02714961115     IErMin=12 ErrMin= 1.03D-03
 ErrMax= 1.03D-03  0.00D+00 EMaxC= 1.00D+00 BMatC= 7.76D-05 BMatP= 8.89D-05
 IDIUse=1 WtCom= 1.00D+00 WtEn= 0.00D+00
 Coeff-Com:  0.202D+00 0.283D+00-0.980D+00-0.100D+01 0.219D+01-0.149D+01
 Coeff-Com:  0.158D+01 0.551D+00 0.112D+01-0.840D+01 0.461D+01 0.234D+01
 Coeff:      0.202D+00 0.283D+00-0.980D+00-0.100D+01 0.219D+01-0.149D+01
 Coeff:      0.158D+01 0.551D+00 0.112D+01-0.840D+01 0.461D+01 0.234D+01
 Gap=     0.237 Goal=   None    Shift=    0.500
 Gap=     0.069 Goal=   None    Shift=    0.500
 GapD=    0.069 DampG=0.500 DampE=1.000 DampFc=0.5000 IDamp=-1.
 Damping current iteration by 5.00D-01
 RMSDP=3.07D-05 MaxDP=3.05D-03 DE=-7.96D-05 OVMax= 6.23D-03

 Cycle  23  Pass 1  IDiag  1:
 E= -2293.02721607685     Delta-E=       -0.000066465695 Rises=F Damp=T
 DIIS: error= 1.01D-03 at cycle  23 NSaved=  13.
 NSaved=13 IEnMin=13 EnMin= -2293.02721607685     IErMin=13 ErrMin= 1.01D-03
 ErrMax= 1.01D-03  0.00D+00 EMaxC= 1.00D+00 BMatC= 6.46D-05 BMatP= 7.76D-05
 IDIUse=1 WtCom= 1.00D+00 WtEn= 0.00D+00
 Large coefficients: NSaved= 13 BigCof=   10.31 CofMax=   10.00 Det=-1.11D-08
 Inversion failed.  Reducing to 12 matrices.
 Large coefficients: NSaved= 12 BigCof=   10.25 CofMax=   10.00 Det=-1.11D-08
 Inversion failed.  Reducing to 11 matrices.
 Large coefficients: NSaved= 11 BigCof=   10.04 CofMax=   10.00 Det=-1.43D-08
 Inversion failed.  Reducing to 10 matrices.
 Coeff-Com: -0.520D+00 0.110D+01 0.295D+00-0.264D+01 0.123D+01 0.424D+01
 Coeff-Com: -0.664D+01 0.578D+01-0.983D+01 0.799D+01
 Coeff:     -0.520D+00 0.110D+01 0.295D+00-0.264D+01 0.123D+01 0.424D+01
 Coeff:     -0.664D+01 0.578D+01-0.983D+01 0.799D+01
 Gap=     0.239 Goal=   None    Shift=    0.500
 Gap=     0.069 Goal=   None    Shift=    0.500
 GapD=    0.069 DampG=0.500 DampE=1.000 DampFc=0.5000 IDamp=-1.
 Damping current iteration by 5.00D-01
 RMSDP=3.12D-05 MaxDP=3.36D-03 DE=-6.65D-05 OVMax= 6.60D-03

 Cycle  24  Pass 1  IDiag  1:
 E= -2293.02727016337     Delta-E=       -0.000054086527 Rises=F Damp=T
 DIIS: error= 1.01D-03 at cycle  24 NSaved=  11.
 NSaved=11 IEnMin=11 EnMin= -2293.02727016337     IErMin=10 ErrMin= 1.01D-03
 ErrMax= 1.01D-03  0.00D+00 EMaxC= 1.00D+00 BMatC= 5.84D-05 BMatP= 6.46D-05
 IDIUse=1 WtCom= 1.00D+00 WtEn= 0.00D+00
 Large coefficients: NSaved= 11 BigCof=   12.58 CofMax=   10.00 Det=-9.82D-09
 Inversion failed.  Reducing to 10 matrices.
 Large coefficients: NSaved= 10 BigCof=   14.40 CofMax=   10.00 Det=-1.09D-08
 Inversion failed.  Reducing to  9 matrices.
 Large coefficients: NSaved=  9 BigCof=   14.41 CofMax=   10.00 Det=-1.09D-08
 Inversion failed.  Reducing to  8 matrices.
 Large coefficients: NSaved=  8 BigCof=   16.49 CofMax=   10.00 Det=-1.14D-08
 Inversion failed.  Reducing to  7 matrices.
 Large coefficients: NSaved=  7 BigCof=   15.16 CofMax=   10.00 Det=-1.52D-08
 Inversion failed.  Reducing to  6 matrices.
 Large coefficients: NSaved=  6 BigCof=   14.47 CofMax=   10.00 Det=-1.78D-08
 Inversion failed.  Reducing to  5 matrices.
 Large coefficients: NSaved=  5 BigCof=   20.98 CofMax=   10.00 Det=-3.38D-08
 Inversion failed.  Reducing to  4 matrices.
 Large coefficients: NSaved=  4 BigCof=   22.76 CofMax=   10.00 Det=-3.91D-08
 Inversion failed.  Reducing to  3 matrices.
 Large coefficients: NSaved=  3 BigCof=   14.02 CofMax=   10.00 Det=-9.82D-08
 Inversion failed.  Reducing to  2 matrices.
 Coeff-Com: -0.223D+01 0.323D+01
 Coeff:     -0.223D+01 0.323D+01
 Gap=     0.236 Goal=   None    Shift=    0.500
 Gap=     0.069 Goal=   None    Shift=    0.500
 GapD=    0.069 DampG=0.500 DampE=1.000 DampFc=0.5000 IDamp=-1.
 Damping current iteration by 5.00D-01
 RMSDP=1.99D-05 MaxDP=1.35D-03 DE=-5.41D-05 OVMax= 6.07D-03

 Cycle  25  Pass 1  IDiag  1:
 E= -2293.02732520149     Delta-E=       -0.000055038113 Rises=F Damp=T
 DIIS: error= 8.58D-04 at cycle  25 NSaved=   3.
 NSaved= 3 IEnMin= 3 EnMin= -2293.02732520149     IErMin= 3 ErrMin= 8.58D-04
 ErrMax= 8.58D-04  0.00D+00 EMaxC= 1.00D+00 BMatC= 2.12D-05 BMatP= 5.84D-05
 IDIUse=1 WtCom= 1.00D+00 WtEn= 0.00D+00
 Coeff-Com: -0.172D+01 0.131D+01 0.142D+01
 Coeff:     -0.172D+01 0.131D+01 0.142D+01
 Gap=     0.238 Goal=   None    Shift=    0.500
 Gap=     0.069 Goal=   None    Shift=    0.500
 RMSDP=1.79D-05 MaxDP=1.18D-03 DE=-5.50D-05 OVMax= 4.87D-03

 Cycle  26  Pass 1  IDiag  1:
 E= -2293.02740871926     Delta-E=       -0.000083517770 Rises=F Damp=F
 DIIS: error= 7.31D-04 at cycle  26 NSaved=   4.
 NSaved= 4 IEnMin= 4 EnMin= -2293.02740871926     IErMin= 4 ErrMin= 7.31D-04
 ErrMax= 7.31D-04  0.00D+00 EMaxC= 1.00D+00 BMatC= 1.20D-05 BMatP= 2.12D-05
 IDIUse=1 WtCom= 1.00D+00 WtEn= 0.00D+00
 Coeff-Com: -0.116D+01 0.122D+01-0.240D+00 0.118D+01
 Coeff:     -0.116D+01 0.122D+01-0.240D+00 0.118D+01
 Gap=     0.239 Goal=   None    Shift=    0.500
 Gap=     0.069 Goal=   None    Shift=    0.500
 RMSDP=1.12D-05 MaxDP=1.58D-03 DE=-8.35D-05 OVMax= 4.71D-03

 Cycle  27  Pass 1  IDiag  1:
 E= -2293.02743215057     Delta-E=       -0.000023431313 Rises=F Damp=F
 DIIS: error= 7.67D-04 at cycle  27 NSaved=   5.
 NSaved= 5 IEnMin= 5 EnMin= -2293.02743215057     IErMin= 4 ErrMin= 7.31D-04
 ErrMax= 7.67D-04  0.00D+00 EMaxC= 1.00D+00 BMatC= 1.20D-05 BMatP= 1.20D-05
 IDIUse=1 WtCom= 1.00D+00 WtEn= 0.00D+00
 Coeff-Com: -0.734D-01-0.159D+00-0.448D+00-0.133D+00 0.181D+01
 Coeff:     -0.734D-01-0.159D+00-0.448D+00-0.133D+00 0.181D+01
 Gap=     0.240 Goal=   None    Shift=    0.500
 Gap=     0.069 Goal=   None    Shift=    0.500
 RMSDP=1.28D-05 MaxDP=1.74D-03 DE=-2.34D-05 OVMax= 4.99D-03

 Cycle  28  Pass 1  IDiag  1:
 E= -2293.02745486458     Delta-E=       -0.000022714014 Rises=F Damp=F
 DIIS: error= 8.14D-04 at cycle  28 NSaved=   6.
 NSaved= 6 IEnMin= 6 EnMin= -2293.02745486458     IErMin= 4 ErrMin= 7.31D-04
 ErrMax= 8.14D-04  0.00D+00 EMaxC= 1.00D+00 BMatC= 1.65D-05 BMatP= 1.20D-05
 IDIUse=1 WtCom= 1.00D+00 WtEn= 0.00D+00
 Coeff-Com:  0.133D+01-0.217D+01-0.142D-01-0.434D+00 0.544D+00 0.174D+01
 Coeff:      0.133D+01-0.217D+01-0.142D-01-0.434D+00 0.544D+00 0.174D+01
 Gap=     0.241 Goal=   None    Shift=    0.500
 Gap=     0.069 Goal=   None    Shift=    0.500
 RMSDP=1.30D-05 MaxDP=1.75D-03 DE=-2.27D-05 OVMax= 5.20D-03

 Cycle  29  Pass 1  IDiag  1:
 E= -2293.02747706805     Delta-E=       -0.000022203462 Rises=F Damp=F
 DIIS: error= 8.48D-04 at cycle  29 NSaved=   7.
 NSaved= 7 IEnMin= 7 EnMin= -2293.02747706805     IErMin= 4 ErrMin= 7.31D-04
 ErrMax= 8.48D-04  0.00D+00 EMaxC= 1.00D+00 BMatC= 2.18D-05 BMatP= 1.20D-05
 IDIUse=1 WtCom= 1.00D+00 WtEn= 0.00D+00
 Coeff-Com:  0.183D+01-0.277D+01 0.271D-01-0.201D+00 0.466D+00 0.639D+00
 Coeff-Com:  0.101D+01
 Coeff:      0.183D+01-0.277D+01 0.271D-01-0.201D+00 0.466D+00 0.639D+00
 Coeff:      0.101D+01
 Gap=     0.241 Goal=   None    Shift=    0.500
 Gap=     0.069 Goal=   None    Shift=    0.500
 RMSDP=8.80D-06 MaxDP=9.44D-04 DE=-2.22D-05 OVMax= 4.80D-03

 Cycle  30  Pass 1  IDiag  1:
 E= -2293.02749835213     Delta-E=       -0.000021284081 Rises=F Damp=F
 DIIS: error= 8.25D-04 at cycle  30 NSaved=   8.
 NSaved= 8 IEnMin= 8 EnMin= -2293.02749835213     IErMin= 4 ErrMin= 7.31D-04
 ErrMax= 8.25D-04  0.00D+00 EMaxC= 1.00D+00 BMatC= 1.91D-05 BMatP= 1.20D-05
 IDIUse=1 WtCom= 1.00D+00 WtEn= 0.00D+00
 Coeff-Com:  0.831D+00-0.112D+01-0.237D+00-0.651D-02 0.609D+00 0.526D+00
 Coeff-Com: -0.348D+01 0.387D+01
 Coeff:      0.831D+00-0.112D+01-0.237D+00-0.651D-02 0.609D+00 0.526D+00
 Coeff:     -0.348D+01 0.387D+01
 Gap=     0.242 Goal=   None    Shift=    0.500
 Gap=     0.069 Goal=   None    Shift=    0.500
 RMSDP=1.06D-05 MaxDP=1.21D-03 DE=-2.13D-05 OVMax= 5.02D-03

 Cycle  31  Pass 1  IDiag  1:
 E= -2293.02751913657     Delta-E=       -0.000020784443 Rises=F Damp=F
 DIIS: error= 8.28D-04 at cycle  31 NSaved=   9.
 NSaved= 9 IEnMin= 9 EnMin= -2293.02751913657     IErMin= 4 ErrMin= 7.31D-04
 ErrMax= 8.28D-04  0.00D+00 EMaxC= 1.00D+00 BMatC= 2.03D-05 BMatP= 1.20D-05
 IDIUse=1 WtCom= 1.00D+00 WtEn= 0.00D+00
 Coeff-Com:  0.375D+00-0.422D+00-0.361D+00 0.349D-01 0.875D+00 0.561D+00
 Coeff-Com: -0.455D+01 0.365D+01 0.837D+00
 Coeff:      0.375D+00-0.422D+00-0.361D+00 0.349D-01 0.875D+00 0.561D+00
 Coeff:     -0.455D+01 0.365D+01 0.837D+00
 Gap=     0.242 Goal=   None    Shift=    0.500
 Gap=     0.070 Goal=   None    Shift=    0.500
 RMSDP=7.91D-06 MaxDP=8.06D-04 DE=-2.08D-05 OVMax= 4.65D-03

 Cycle  32  Pass 1  IDiag  1:
 E= -2293.02753891361     Delta-E=       -0.000019777042 Rises=F Damp=F
 DIIS: error= 7.93D-04 at cycle  32 NSaved=  10.
 NSaved=10 IEnMin=10 EnMin= -2293.02753891361     IErMin= 4 ErrMin= 7.31D-04
 ErrMax= 7.93D-04  0.00D+00 EMaxC= 1.00D+00 BMatC= 1.65D-05 BMatP= 1.20D-05
 IDIUse=1 WtCom= 1.00D+00 WtEn= 0.00D+00
 Coeff-Com: -0.385D+00 0.320D+00-0.543D-01-0.652D+00-0.249D+00 0.259D+01
 Coeff-Com: -0.112D-01-0.277D+01-0.681D+01 0.902D+01
 Coeff:     -0.385D+00 0.320D+00-0.543D-01-0.652D+00-0.249D+00 0.259D+01
 Coeff:     -0.112D-01-0.277D+01-0.681D+01 0.902D+01
 Gap=     0.245 Goal=   None    Shift=    0.500
 Gap=     0.069 Goal=   None    Shift=    0.500
 RMSDP=3.15D-05 MaxDP=4.44D-03 DE=-1.98D-05 OVMax= 7.70D-03

 >>>>>>>>>> Convergence criterion not met.
 SCF Done:  E(ULC-wHPBE) =  -2293.02753891     A.U. after   33 cycles
            NFock= 32  Conv=0.31D-04     -V/T= 2.0037
 <Sx>= 0.0000 <Sy>= 0.0000 <Sz>= 0.5000 <S**2>= 0.7601 S= 0.5050
 <L.S>= 0.000000000000E+00
 KE= 2.284605356616D+03 PE=-1.413050934298D+04 EE= 5.157734285498D+03
 Annihilation of the first spin contaminant:
 S**2 before annihilation     0.7601,   after     0.7501
 Leave Link  502 at Wed Jan 27 17:10:46 2021, MaxMem=  4026531840 cpu:           36742.8 elap:            4635.2
 (Enter /opt/ohpc/pub/libs/gaussian/g16-A.03/sandybridge/g16/l508.exe)
 Integral symmetry usage will be decided dynamically.
 Tight linear equation convergence will be used.
 ULC-wHPBE wavefunction.
 Quadratic Convergence SCF Method.
 Line search only if initial step raises energy.
 FoFJK:  IHMeth= 1 ICntrl=       0 DoSepK=T KAlg= 0 I1Cent=           0 FoldK=F
 IRaf=         1 NMat=       1 IRICut=       1 DoRegI=T DoRafI=F ISym2E= 1 IDoP0=0 IntGTp=1.
 FoFCou: FMM=T IPFlag=           0 FMFlag=      100000 FMFlg1=        2001
         NFxFlg=           0 DoJE=T BraDBF=F KetDBF=F FulRan=T
         wScrn=  0.000000 ICntrl=       500 IOpCl=  0 I1Cent=           0 NGrid=           0
         NMat0=    1 NMatS0=      1 NMatT0=    0 NMatD0=    1 NMtDS0=    0 NMtDT0=    0
 Petite list used in FoFCou.
 FMM levels:  10  Number of levels for PrismC:   9
 Iteration   1 EE= -2293.02755357606                                    Grad=6.376D-03 Max rot=    0.1693 deg.
 QCNR:  CnvC1=6.38D-08 CnvC2=6.38D-07
 LinEq1:  Iter=  0 NonCon=     1 RMS=9.08D-05 Max=4.25D-02 NDo=     1
 AX will form     1 AO Fock derivatives at one time.
 LinEq1:  Iter=  1 NonCon=     1 RMS=5.90D-05 Max=5.34D-03 NDo=     1
 LinEq1:  Iter=  2 NonCon=     1 RMS=3.76D-05 Max=3.25D-03 NDo=     1
 LinEq1:  Iter=  3 NonCon=     1 RMS=2.29D-05 Max=2.46D-03 NDo=     1
 LinEq1:  Iter=  4 NonCon=     1 RMS=1.36D-05 Max=1.36D-03 NDo=     1
 LinEq1:  Iter=  5 NonCon=     1 RMS=9.15D-06 Max=8.19D-04 NDo=     1
 LinEq1:  Iter=  6 NonCon=     1 RMS=7.11D-06 Max=1.62D-03 NDo=     1
 LinEq1:  Iter=  7 NonCon=     1 RMS=5.18D-06 Max=5.33D-04 NDo=     1
 LinEq1:  Iter=  8 NonCon=     1 RMS=3.83D-06 Max=5.07D-04 NDo=     1
 LinEq1:  Iter=  9 NonCon=     1 RMS=2.30D-06 Max=1.60D-04 NDo=     1
 LinEq1:  Iter= 10 NonCon=     1 RMS=1.35D-06 Max=1.75D-04 NDo=     1
 LinEq1:  Iter= 11 NonCon=     1 RMS=7.92D-07 Max=6.64D-05 NDo=     1
 LinEq1:  Iter= 12 NonCon=     1 RMS=3.96D-07 Max=2.58D-05 NDo=     1
 LinEq1:  Iter= 13 NonCon=     1 RMS=2.69D-07 Max=4.07D-05 NDo=     1
 LinEq1:  Iter= 14 NonCon=     1 RMS=1.71D-07 Max=1.57D-05 NDo=     1
 LinEq1:  Iter= 15 NonCon=     1 RMS=1.05D-07 Max=9.39D-06 NDo=     1
 LinEq1:  Iter= 16 NonCon=     1 RMS=6.69D-08 Max=5.71D-06 NDo=     1
 LinEq1:  Iter= 17 NonCon=     1 RMS=3.55D-08 Max=2.77D-06 NDo=     1
 LinEq1:  Iter= 18 NonCon=     1 RMS=2.25D-08 Max=2.09D-06 NDo=     1
 LinEq1:  Iter= 19 NonCon=     1 RMS=1.18D-08 Max=1.04D-06 NDo=     1
 LinEq1:  Iter= 20 NonCon=     1 RMS=5.82D-09 Max=6.96D-07 NDo=     1
 LinEq1:  Iter= 21 NonCon=     0 RMS=4.03D-09 Max=4.52D-07 NDo=     1
 Linear equations converged to 6.376D-08 6.376D-07 after    21 iterations.
 Angle between quadratic step and gradient=  72.65 degrees.
     ILin= 1 X=0.000D+00 Y=-2.293027553576D+03 DE= 0.00D+00 F= -1.06D-03
     ILin= 2 X=1.000D+00 Y=-2.293028065554D+03 DE=-5.12D-04
 Iteration   2 EE= -2293.02806555414     Delta-E=       -0.000511978073 Grad=5.178D-03 Max rot=    0.0476 deg.
 QCNR:  CnvC1=5.18D-08 CnvC2=5.18D-07
 LinEq1:  Iter=  0 NonCon=     1 RMS=3.19D-05 Max=1.21D-02 NDo=     1
 LinEq1:  Iter=  1 NonCon=     1 RMS=2.10D-05 Max=5.41D-03 NDo=     1
 LinEq1:  Iter=  2 NonCon=     1 RMS=1.47D-05 Max=2.57D-03 NDo=     1
 LinEq1:  Iter=  3 NonCon=     1 RMS=9.82D-06 Max=2.23D-03 NDo=     1
 LinEq1:  Iter=  4 NonCon=     1 RMS=1.03D-05 Max=1.53D-03 NDo=     1
 LinEq1:  Iter=  5 NonCon=     1 RMS=5.84D-06 Max=7.09D-04 NDo=     1
 LinEq1:  Iter=  6 NonCon=     1 RMS=5.52D-06 Max=8.42D-04 NDo=     1
 LinEq1:  Iter=  7 NonCon=     1 RMS=3.29D-06 Max=4.01D-04 NDo=     1
 LinEq1:  Iter=  8 NonCon=     1 RMS=2.28D-06 Max=2.23D-04 NDo=     1
 LinEq1:  Iter=  9 NonCon=     1 RMS=1.36D-06 Max=9.78D-05 NDo=     1
 LinEq1:  Iter= 10 NonCon=     1 RMS=7.87D-07 Max=7.33D-05 NDo=     1
 LinEq1:  Iter= 11 NonCon=     1 RMS=4.92D-07 Max=8.63D-05 NDo=     1
 LinEq1:  Iter= 12 NonCon=     1 RMS=3.10D-07 Max=5.92D-05 NDo=     1
 LinEq1:  Iter= 13 NonCon=     1 RMS=1.94D-07 Max=2.14D-05 NDo=     1
 LinEq1:  Iter= 14 NonCon=     1 RMS=1.02D-07 Max=1.18D-05 NDo=     1
 LinEq1:  Iter= 15 NonCon=     1 RMS=6.99D-08 Max=5.05D-06 NDo=     1
 LinEq1:  Iter= 16 NonCon=     1 RMS=3.60D-08 Max=2.14D-06 NDo=     1
 LinEq1:  Iter= 17 NonCon=     1 RMS=2.15D-08 Max=1.37D-06 NDo=     1
 LinEq1:  Iter= 18 NonCon=     1 RMS=1.33D-08 Max=1.24D-06 NDo=     1
 LinEq1:  Iter= 19 NonCon=     1 RMS=7.74D-09 Max=6.17D-07 NDo=     1
 LinEq1:  Iter= 20 NonCon=     0 RMS=4.49D-09 Max=3.85D-07 NDo=     1
 Linear equations converged to 5.178D-08 5.178D-07 after    20 iterations.
 Angle between quadratic step and gradient=  73.51 degrees.
     ILin= 1 X=0.000D+00 Y=-2.293028065554D+03 DE= 0.00D+00 F= -4.81D-05
     ILin= 2 X=1.000D+00 Y=-2.293028089883D+03 DE=-2.43D-05
 Iteration   3 EE= -2293.02808988314     Delta-E=       -0.000024329004 Grad=5.824D-05 Max rot=    0.0016 deg.
 Rotation gradient small -- convergence achieved.
 SCF Done:  E(ULC-wHPBE) =  -2293.02808988     a.u. after    3 cycles
            Convg  =    0.5824D-04                    44 Fock formations.
              S**2 =  0.7614                  -V/T =  2.0037
 <Sx>= 0.0000 <Sy>= 0.0000 <Sz>= 0.5000 <S**2>= 0.7614 S= 0.5057
 <L.S>= 0.000000000000E+00
 Annihilation of the first spin contaminant:
 S**2 before annihilation     0.7614,   after     0.7501
 Leave Link  508 at Wed Jan 27 18:38:35 2021, MaxMem=  4026531840 cpu:           41603.0 elap:            5269.8
 (Enter /opt/ohpc/pub/libs/gaussian/g16-A.03/sandybridge/g16/l601.exe)
 Copying SCF densities to generalized density rwf, IOpCl= 1 IROHF=0.

 **********************************************************************

            Population analysis using the SCF density.

 **********************************************************************

 Orbital symmetries:
 Alpha Orbitals:
       Occupied  (A) (A) (A) (A) (A) (A) (A) (A) (A) (A) (A) (A)
                 (A) (A) (A) (A) (A) (A) (A) (A) (A) (A) (A) (A)
                 (A) (A) (A) (A) (A) (A) (A) (A) (A) (A) (A) (A)
                 (A) (A) (A) (A) (A) (A) (A) (A) (A) (A) (A) (A)
                 (A) (A) (A) (A) (A) (A) (A) (A) (A) (A) (A) (A)
                 (A) (A) (A) (A) (A) (A) (A) (A) (A) (A) (A) (A)
                 (A) (A) (A) (A) (A) (A) (A) (A) (A) (A) (A) (A)
                 (A) (A) (A) (A) (A) (A) (A) (A) (A) (A) (A) (A)
                 (A) (A) (A) (A) (A) (A) (A) (A) (A) (A) (A) (A)
                 (A) (A) (A) (A) (A) (A) (A) (A) (A) (A) (A) (A)
                 (A) (A) (A) (A) (A) (A) (A) (A) (A) (A) (A) (A)
                 (A) (A) (A) (A) (A) (A) (A) (A) (A) (A) (A) (A)
                 (A)
       Virtual   (A) (A) (A) (A) (A) (A) (A) (A) (A) (A) (A) (A)
                 (A) (A) (A) (A) (A) (A) (A) (A) (A) (A) (A) (A)
                 (A) (A) (A) (A) (A) (A) (A) (A) (A) (A) (A) (A)
                 (A) (A) (A) (A) (A) (A) (A) (A) (A) (A) (A) (A)
                 (A) (A) (A) (A) (A) (A) (A) (A) (A) (A) (A) (A)
                 (A) (A) (A) (A) (A) (A) (A) (A) (A) (A) (A) (A)
                 (A) (A) (A) (A) (A) (A) (A) (A) (A) (A) (A) (A)
                 (A) (A) (A) (A) (A) (A) (A) (A) (A) (A) (A) (A)
                 (A) (A) (A) (A) (A) (A) (A) (A) (A) (A) (A) (A)
                 (A) (A) (A) (A) (A) (A) (A) (A) (A) (A) (A) (A)
                 (A) (A) (A) (A) (A) (A) (A) (A) (A) (A) (A) (A)
                 (A) (A) (A) (A) (A) (A) (A) (A) (A) (A) (A) (A)
                 (A) (A) (A) (A) (A) (A) (A) (A) (A) (A) (A) (A)
                 (A) (A) (A) (A) (A) (A) (A) (A) (A) (A) (A) (A)
                 (A) (A) (A) (A) (A) (A) (A) (A) (A) (A) (A) (A)
                 (A) (A) (A) (A) (A) (A) (A) (A) (A) (A) (A) (A)
                 (A) (A) (A) (A) (A) (A) (A) (A) (A) (A) (A) (A)
                 (A) (A) (A) (A) (A) (A) (A) (A) (A) (A) (A) (A)
                 (A) (A) (A) (A) (A) (A) (A) (A) (A) (A) (A) (A)
                 (A) (A) (A) (A) (A) (A) (A) (A) (A) (A) (A) (A)
                 (A) (A) (A) (A) (A) (A) (A) (A) (A) (A) (A) (A)
                 (A) (A) (A) (A) (A) (A) (A) (A) (A) (A) (A) (A)
                 (A) (A) (A) (A) (A) (A) (A) (A) (A) (A) (A) (A)
                 (A) (A) (A) (A) (A) (A) (A) (A) (A) (A) (A) (A)
                 (A) (A) (A) (A) (A) (A) (A) (A) (A) (A) (A) (A)
                 (A) (A) (A) (A) (A) (A) (A) (A) (A) (A) (A) (A)
                 (A) (A) (A) (A) (A) (A) (A) (A) (A) (A) (A) (A)
                 (A) (A) (A) (A) (A) (A) (A) (A) (A) (A) (A) (A)
                 (A) (A) (A) (A) (A) (A) (A) (A) (A) (A) (A) (A)
                 (A) (A) (A) (A) (A) (A) (A) (A) (A) (A) (A) (A)
                 (A) (A) (A) (A) (A) (A) (A) (A) (A) (A) (A) (A)
                 (A) (A) (A) (A) (A) (A) (A) (A) (A) (A) (A) (A)
                 (A) (A) (A) (A) (A) (A) (A) (A) (A) (A) (A) (A)
                 (A) (A) (A) (A) (A) (A) (A) (A) (A) (A) (A) (A)
                 (A) (A) (A) (A) (A) (A) (A) (A) (A) (A) (A) (A)
                 (A) (A) (A) (A) (A) (A) (A) (A) (A) (A) (A) (A)
                 (A) (A) (A) (A) (A) (A) (A) (A) (A) (A) (A) (A)
                 (A) (A) (A) (A) (A) (A) (A) (A) (A) (A) (A) (A)
                 (A) (A) (A) (A) (A) (A) (A) (A) (A) (A) (A) (A)
                 (A) (A) (A) (A) (A) (A) (A) (A) (A) (A) (A) (A)
                 (A) (A) (A) (A) (A) (A) (A) (A) (A) (A) (A) (A)
                 (A) (A) (A) (A) (A) (A) (A) (A) (A) (A) (A) (A)
                 (A) (A) (A) (A) (A) (A) (A) (A) (A) (A) (A) (A)
                 (A) (A) (A) (A) (A) (A) (A) (A) (A) (A) (A) (A)
                 (A) (A) (A) (A) (A) (A) (A) (A) (A) (A) (A) (A)
                 (A) (A) (A) (A) (A) (A) (A) (A) (A) (A) (A) (A)
                 (A) (A) (A) (A) (A) (A) (A) (A) (A) (A) (A) (A)
                 (A) (A) (A) (A) (A) (A) (A) (A) (A) (A) (A) (A)
                 (A) (A) (A) (A) (A) (A) (A) (A) (A) (A) (A) (A)
                 (A) (A) (A) (A) (A) (A) (A) (A) (A) (A) (A) (A)
                 (A) (A) (A) (A) (A) (A) (A) (A) (A) (A) (A) (A)
                 (A) (A) (A) (A) (A) (A) (A) (A) (A) (A) (A) (A)
                 (A) (A) (A) (A) (A) (A) (A) (A) (A) (A) (A) (A)
                 (A) (A) (A) (A) (A) (A) (A) (A) (A) (A) (A) (A)
                 (A) (A) (A) (A) (A) (A) (A) (A) (A) (A) (A) (A)
                 (A) (A) (A) (A) (A) (A) (A) (A) (A) (A) (A) (A)
                 (A) (A) (A) (A) (A) (A) (A) (A) (A) (A) (A) (A)
                 (A) (A) (A) (A) (A) (A) (A) (A) (A) (A) (A) (A)
                 (A) (A) (A) (A) (A) (A) (A) (A) (A) (A) (A) (A)
                 (A) (A) (A) (A) (A) (A) (A) (A) (A) (A) (A) (A)
                 (A) (A) (A) (A) (A) (A) (A) (A) (A) (A) (A) (A)
                 (A) (A) (A) (A) (A) (A) (A) (A) (A) (A) (A) (A)
                 (A) (A) (A) (A) (A) (A) (A) (A) (A) (A) (A) (A)
                 (A) (A) (A) (A) (A) (A) (A) (A) (A) (A) (A) (A)
                 (A) (A) (A) (A) (A) (A) (A) (A) (A) (A) (A) (A)
                 (A) (A) (A) (A) (A) (A) (A) (A) (A)
 Beta  Orbitals:
       Occupied  (A) (A) (A) (A) (A) (A) (A) (A) (A) (A) (A) (A)
                 (A) (A) (A) (A) (A) (A) (A) (A) (A) (A) (A) (A)
                 (A) (A) (A) (A) (A) (A) (A) (A) (A) (A) (A) (A)
                 (A) (A) (A) (A) (A) (A) (A) (A) (A) (A) (A) (A)
                 (A) (A) (A) (A) (A) (A) (A) (A) (A) (A) (A) (A)
                 (A) (A) (A) (A) (A) (A) (A) (A) (A) (A) (A) (A)
                 (A) (A) (A) (A) (A) (A) (A) (A) (A) (A) (A) (A)
                 (A) (A) (A) (A) (A) (A) (A) (A) (A) (A) (A) (A)
                 (A) (A) (A) (A) (A) (A) (A) (A) (A) (A) (A) (A)
                 (A) (A) (A) (A) (A) (A) (A) (A) (A) (A) (A) (A)
                 (A) (A) (A) (A) (A) (A) (A) (A) (A) (A) (A) (A)
                 (A) (A) (A) (A) (A) (A) (A) (A) (A) (A) (A) (A)
       Virtual   (A) (A) (A) (A) (A) (A) (A) (A) (A) (A) (A) (A)
                 (A) (A) (A) (A) (A) (A) (A) (A) (A) (A) (A) (A)
                 (A) (A) (A) (A) (A) (A) (A) (A) (A) (A) (A) (A)
                 (A) (A) (A) (A) (A) (A) (A) (A) (A) (A) (A) (A)
                 (A) (A) (A) (A) (A) (A) (A) (A) (A) (A) (A) (A)
                 (A) (A) (A) (A) (A) (A) (A) (A) (A) (A) (A) (A)
                 (A) (A) (A) (A) (A) (A) (A) (A) (A) (A) (A) (A)
                 (A) (A) (A) (A) (A) (A) (A) (A) (A) (A) (A) (A)
                 (A) (A) (A) (A) (A) (A) (A) (A) (A) (A) (A) (A)
                 (A) (A) (A) (A) (A) (A) (A) (A) (A) (A) (A) (A)
                 (A) (A) (A) (A) (A) (A) (A) (A) (A) (A) (A) (A)
                 (A) (A) (A) (A) (A) (A) (A) (A) (A) (A) (A) (A)
                 (A) (A) (A) (A) (A) (A) (A) (A) (A) (A) (A) (A)
                 (A) (A) (A) (A) (A) (A) (A) (A) (A) (A) (A) (A)
                 (A) (A) (A) (A) (A) (A) (A) (A) (A) (A) (A) (A)
                 (A) (A) (A) (A) (A) (A) (A) (A) (A) (A) (A) (A)
                 (A) (A) (A) (A) (A) (A) (A) (A) (A) (A) (A) (A)
                 (A) (A) (A) (A) (A) (A) (A) (A) (A) (A) (A) (A)
                 (A) (A) (A) (A) (A) (A) (A) (A) (A) (A) (A) (A)
                 (A) (A) (A) (A) (A) (A) (A) (A) (A) (A) (A) (A)
                 (A) (A) (A) (A) (A) (A) (A) (A) (A) (A) (A) (A)
                 (A) (A) (A) (A) (A) (A) (A) (A) (A) (A) (A) (A)
                 (A) (A) (A) (A) (A) (A) (A) (A) (A) (A) (A) (A)
                 (A) (A) (A) (A) (A) (A) (A) (A) (A) (A) (A) (A)
                 (A) (A) (A) (A) (A) (A) (A) (A) (A) (A) (A) (A)
                 (A) (A) (A) (A) (A) (A) (A) (A) (A) (A) (A) (A)
                 (A) (A) (A) (A) (A) (A) (A) (A) (A) (A) (A) (A)
                 (A) (A) (A) (A) (A) (A) (A) (A) (A) (A) (A) (A)
                 (A) (A) (A) (A) (A) (A) (A) (A) (A) (A) (A) (A)
                 (A) (A) (A) (A) (A) (A) (A) (A) (A) (A) (A) (A)
                 (A) (A) (A) (A) (A) (A) (A) (A) (A) (A) (A) (A)
                 (A) (A) (A) (A) (A) (A) (A) (A) (A) (A) (A) (A)
                 (A) (A) (A) (A) (A) (A) (A) (A) (A) (A) (A) (A)
                 (A) (A) (A) (A) (A) (A) (A) (A) (A) (A) (A) (A)
                 (A) (A) (A) (A) (A) (A) (A) (A) (A) (A) (A) (A)
                 (A) (A) (A) (A) (A) (A) (A) (A) (A) (A) (A) (A)
                 (A) (A) (A) (A) (A) (A) (A) (A) (A) (A) (A) (A)
                 (A) (A) (A) (A) (A) (A) (A) (A) (A) (A) (A) (A)
                 (A) (A) (A) (A) (A) (A) (A) (A) (A) (A) (A) (A)
                 (A) (A) (A) (A) (A) (A) (A) (A) (A) (A) (A) (A)
                 (A) (A) (A) (A) (A) (A) (A) (A) (A) (A) (A) (A)
                 (A) (A) (A) (A) (A) (A) (A) (A) (A) (A) (A) (A)
                 (A) (A) (A) (A) (A) (A) (A) (A) (A) (A) (A) (A)
                 (A) (A) (A) (A) (A) (A) (A) (A) (A) (A) (A) (A)
                 (A) (A) (A) (A) (A) (A) (A) (A) (A) (A) (A) (A)
                 (A) (A) (A) (A) (A) (A) (A) (A) (A) (A) (A) (A)
                 (A) (A) (A) (A) (A) (A) (A) (A) (A) (A) (A) (A)
                 (A) (A) (A) (A) (A) (A) (A) (A) (A) (A) (A) (A)
                 (A) (A) (A) (A) (A) (A) (A) (A) (A) (A) (A) (A)
                 (A) (A) (A) (A) (A) (A) (A) (A) (A) (A) (A) (A)
                 (A) (A) (A) (A) (A) (A) (A) (A) (A) (A) (A) (A)
                 (A) (A) (A) (A) (A) (A) (A) (A) (A) (A) (A) (A)
                 (A) (A) (A) (A) (A) (A) (A) (A) (A) (A) (A) (A)
                 (A) (A) (A) (A) (A) (A) (A) (A) (A) (A) (A) (A)
                 (A) (A) (A) (A) (A) (A) (A) (A) (A) (A) (A) (A)
                 (A) (A) (A) (A) (A) (A) (A) (A) (A) (A) (A) (A)
                 (A) (A) (A) (A) (A) (A) (A) (A) (A) (A) (A) (A)
                 (A) (A) (A) (A) (A) (A) (A) (A) (A) (A) (A) (A)
                 (A) (A) (A) (A) (A) (A) (A) (A) (A) (A) (A) (A)
                 (A) (A) (A) (A) (A) (A) (A) (A) (A) (A) (A) (A)
                 (A) (A) (A) (A) (A) (A) (A) (A) (A) (A) (A) (A)
                 (A) (A) (A) (A) (A) (A) (A) (A) (A) (A) (A) (A)
                 (A) (A) (A) (A) (A) (A) (A) (A) (A) (A) (A) (A)
                 (A) (A) (A) (A) (A) (A) (A) (A) (A) (A) (A) (A)
                 (A) (A) (A) (A) (A) (A) (A) (A) (A) (A) (A) (A)
                 (A) (A) (A) (A) (A) (A) (A) (A) (A) (A)
 The electronic state is 2-A.
 Alpha  occ. eigenvalues --  -88.30062 -88.27986 -14.26890 -14.20585 -10.14535
 Alpha  occ. eigenvalues --  -10.13600 -10.13486 -10.13199 -10.12040 -10.11605
 Alpha  occ. eigenvalues --  -10.11596 -10.10202 -10.10155 -10.09752 -10.09751
 Alpha  occ. eigenvalues --  -10.09700 -10.09543 -10.09147 -10.09041 -10.09025
 Alpha  occ. eigenvalues --  -10.08931 -10.08423 -10.08386 -10.08340 -10.08257
 Alpha  occ. eigenvalues --  -10.08225 -10.08199 -10.08196 -10.08021 -10.07905
 Alpha  occ. eigenvalues --  -10.05470 -10.05201 -10.05184 -10.05134 -10.05076
 Alpha  occ. eigenvalues --  -10.04997 -10.04937 -10.04887 -10.04705 -10.04547
 Alpha  occ. eigenvalues --   -7.89112  -7.87216  -5.91330  -5.90838  -5.90263
 Alpha  occ. eigenvalues --   -5.89446  -5.88967  -5.88263  -1.12492  -1.07674
 Alpha  occ. eigenvalues --   -1.01273  -0.99685  -0.99453  -0.97898  -0.95740
 Alpha  occ. eigenvalues --   -0.94765  -0.93574  -0.91134  -0.90401  -0.89894
 Alpha  occ. eigenvalues --   -0.89135  -0.88216  -0.88042  -0.86534  -0.85843
 Alpha  occ. eigenvalues --   -0.85495  -0.84561  -0.84307  -0.83029  -0.80819
 Alpha  occ. eigenvalues --   -0.78333  -0.77593  -0.76104  -0.75285  -0.74720
 Alpha  occ. eigenvalues --   -0.74615  -0.73988  -0.72831  -0.72091  -0.71243
 Alpha  occ. eigenvalues --   -0.71065  -0.69623  -0.69202  -0.68770  -0.66368
 Alpha  occ. eigenvalues --   -0.65759  -0.64742  -0.63978  -0.63056  -0.63008
 Alpha  occ. eigenvalues --   -0.62306  -0.61587  -0.60981  -0.60525  -0.60147
 Alpha  occ. eigenvalues --   -0.59463  -0.59354  -0.58547  -0.58414  -0.58307
 Alpha  occ. eigenvalues --   -0.57900  -0.57495  -0.57291  -0.56965  -0.56308
 Alpha  occ. eigenvalues --   -0.56048  -0.55324  -0.55172  -0.54762  -0.54508
 Alpha  occ. eigenvalues --   -0.54268  -0.53818  -0.53685  -0.53479  -0.53175
 Alpha  occ. eigenvalues --   -0.51726  -0.51419  -0.50909  -0.50723  -0.50609
 Alpha  occ. eigenvalues --   -0.50210  -0.49947  -0.49258  -0.49108  -0.48896
 Alpha  occ. eigenvalues --   -0.47983  -0.47571  -0.47372  -0.46859  -0.46053
 Alpha  occ. eigenvalues --   -0.45898  -0.45165  -0.43758  -0.43184  -0.42990
 Alpha  occ. eigenvalues --   -0.42244  -0.42107  -0.41810  -0.39654  -0.39552
 Alpha  occ. eigenvalues --   -0.38893  -0.38506  -0.37670  -0.36410  -0.32442
 Alpha virt. eigenvalues --   -0.10419  -0.10023  -0.09286  -0.08812  -0.07973
 Alpha virt. eigenvalues --   -0.07428  -0.07023  -0.05734  -0.05388  -0.04885
 Alpha virt. eigenvalues --   -0.03926  -0.03628  -0.02538  -0.01208  -0.00546
 Alpha virt. eigenvalues --   -0.00033   0.00767   0.01112   0.02275   0.02794
 Alpha virt. eigenvalues --    0.02871   0.03319   0.03461   0.03760   0.03996
 Alpha virt. eigenvalues --    0.04330   0.04554   0.04792   0.05410   0.05629
 Alpha virt. eigenvalues --    0.05737   0.06033   0.06296   0.06604   0.06835
 Alpha virt. eigenvalues --    0.06940   0.07252   0.07368   0.07481   0.08182
 Alpha virt. eigenvalues --    0.08372   0.08545   0.08633   0.09243   0.09413
 Alpha virt. eigenvalues --    0.09819   0.09920   0.10457   0.11302   0.11549
 Alpha virt. eigenvalues --    0.11730   0.12233   0.12435   0.13085   0.13427
 Alpha virt. eigenvalues --    0.13668   0.13896   0.14357   0.14483   0.14850
 Alpha virt. eigenvalues --    0.15178   0.15382   0.16015   0.16145   0.16371
 Alpha virt. eigenvalues --    0.16555   0.16713   0.16924   0.17191   0.17238
 Alpha virt. eigenvalues --    0.17487   0.17619   0.17727   0.18112   0.18226
 Alpha virt. eigenvalues --    0.18365   0.18578   0.18723   0.19155   0.19246
 Alpha virt. eigenvalues --    0.19384   0.19798   0.19968   0.20315   0.20363
 Alpha virt. eigenvalues --    0.20690   0.20961   0.21151   0.21232   0.21588
 Alpha virt. eigenvalues --    0.21740   0.22009   0.22234   0.22477   0.22544
 Alpha virt. eigenvalues --    0.22876   0.22977   0.23199   0.23381   0.23573
 Alpha virt. eigenvalues --    0.23919   0.24228   0.24740   0.24918   0.25116
 Alpha virt. eigenvalues --    0.25331   0.25538   0.25982   0.26044   0.26228
 Alpha virt. eigenvalues --    0.26561   0.26746   0.26907   0.27262   0.27485
 Alpha virt. eigenvalues --    0.27938   0.28164   0.28253   0.28649   0.29074
 Alpha virt. eigenvalues --    0.29526   0.29648   0.29858   0.30346   0.30575
 Alpha virt. eigenvalues --    0.30864   0.30908   0.31000   0.31445   0.31754
 Alpha virt. eigenvalues --    0.32002   0.32320   0.32825   0.33272   0.33316
 Alpha virt. eigenvalues --    0.33435   0.33752   0.33930   0.34044   0.34194
 Alpha virt. eigenvalues --    0.34445   0.34592   0.34710   0.35018   0.35398
 Alpha virt. eigenvalues --    0.35737   0.35890   0.36257   0.36401   0.36540
 Alpha virt. eigenvalues --    0.36813   0.37045   0.37229   0.37373   0.37764
 Alpha virt. eigenvalues --    0.37938   0.38109   0.38166   0.38258   0.38470
 Alpha virt. eigenvalues --    0.38552   0.38805   0.39184   0.39463   0.39956
 Alpha virt. eigenvalues --    0.40171   0.40386   0.40569   0.40668   0.40902
 Alpha virt. eigenvalues --    0.40960   0.41785   0.41910   0.42204   0.42494
 Alpha virt. eigenvalues --    0.42726   0.43131   0.43191   0.43256   0.43723
 Alpha virt. eigenvalues --    0.43875   0.43895   0.44111   0.44633   0.44719
 Alpha virt. eigenvalues --    0.45036   0.45352   0.45500   0.45913   0.46050
 Alpha virt. eigenvalues --    0.46172   0.46378   0.46447   0.47009   0.47160
 Alpha virt. eigenvalues --    0.47369   0.47876   0.47966   0.48325   0.48688
 Alpha virt. eigenvalues --    0.48839   0.49171   0.49474   0.49550   0.49920
 Alpha virt. eigenvalues --    0.50340   0.51204   0.51411   0.51550   0.51948
 Alpha virt. eigenvalues --    0.52280   0.52641   0.52757   0.54276   0.54427
 Alpha virt. eigenvalues --    0.55385   0.55547   0.56061   0.56422   0.56651
 Alpha virt. eigenvalues --    0.57754   0.58045   0.58512   0.58872   0.59443
 Alpha virt. eigenvalues --    0.60156   0.60426   0.60787   0.61065   0.61812
 Alpha virt. eigenvalues --    0.62013   0.62582   0.63027   0.63291   0.63500
 Alpha virt. eigenvalues --    0.63660   0.63788   0.64431   0.64439   0.64682
 Alpha virt. eigenvalues --    0.64856   0.65516   0.65672   0.65979   0.66101
 Alpha virt. eigenvalues --    0.66273   0.66470   0.67111   0.67301   0.68045
 Alpha virt. eigenvalues --    0.68109   0.68330   0.68621   0.69739   0.70119
 Alpha virt. eigenvalues --    0.71117   0.71289   0.71710   0.71845   0.72522
 Alpha virt. eigenvalues --    0.72652   0.72781   0.73861   0.74486   0.75209
 Alpha virt. eigenvalues --    0.76180   0.76675   0.77457   0.77656   0.78594
 Alpha virt. eigenvalues --    0.79354   0.80031   0.80910   0.81630   0.81929
 Alpha virt. eigenvalues --    0.82830   0.83935   0.84743   0.85228   0.85924
 Alpha virt. eigenvalues --    0.86721   0.87289   0.88448   0.89445   0.91175
 Alpha virt. eigenvalues --    0.91983   0.94318   0.96312   1.01587   1.05515
 Alpha virt. eigenvalues --    1.07206   1.08839   1.09372   1.10706   1.11523
 Alpha virt. eigenvalues --    1.12383   1.13021   1.13776   1.14376   1.14538
 Alpha virt. eigenvalues --    1.15049   1.15543   1.15938   1.16184   1.16759
[...]
 
              Baa    -0.2558   -10.488    -3.742    -3.498  0.4436  0.8814 -0.1622
     3 S(33)  Bbb    -0.2407    -9.867    -3.521    -3.291  0.8342 -0.4722 -0.2848
              Bcc     0.4965    20.355     7.263     6.790  0.3276  0.0090  0.9448
 
              Baa    -0.0281    -3.767    -1.344    -1.256  0.2523  0.1629  0.9538
     4 C(13)  Bbb    -0.0268    -3.591    -1.281    -1.198  0.7827 -0.6139 -0.1022
              Bcc     0.0548     7.357     2.625     2.454  0.5689  0.7724 -0.2824
 
              Baa    -0.0147    -1.969    -0.703    -0.657  0.2666  0.1420  0.9533
     5 C(13)  Bbb     0.0051     0.681     0.243     0.227  0.8838  0.3585 -0.3005
              Bcc     0.0096     1.288     0.460     0.430 -0.3845  0.9227 -0.0299
 
              Baa    -0.0583    -7.820    -2.791    -2.609 -0.4351  0.8500 -0.2970
     6 C(13)  Bbb    -0.0539    -7.233    -2.581    -2.413  0.9004  0.4094 -0.1475
              Bcc     0.1122    15.053     5.371     5.021  0.0038  0.3316  0.9434
 
              Baa    -0.0074    -0.996    -0.355    -0.332 -0.1283  0.9808  0.1471
     7 C(13)  Bbb    -0.0014    -0.188    -0.067    -0.063  0.5721 -0.0480  0.8188
              Bcc     0.0088     1.184     0.423     0.395  0.8101  0.1892 -0.5549
 
              Baa    -0.0086    -1.156    -0.412    -0.385  0.3763  0.7831 -0.4952
     8 C(13)  Bbb     0.0021     0.276     0.099     0.092  0.2844  0.4110  0.8661
              Bcc     0.0066     0.879     0.314     0.293  0.8818 -0.4667 -0.0680
 
              Baa    -0.0011    -0.569    -0.203    -0.190 -0.5658  0.6057 -0.5595
     9 H(1)   Bbb    -0.0004    -0.230    -0.082    -0.077  0.7842  0.6050 -0.1381
              Bcc     0.0015     0.799     0.285     0.267 -0.2548  0.5169  0.8172
 
              Baa    -0.0326    -4.373    -1.560    -1.459  0.1608  0.7649 -0.6237
    10 C(13)  Bbb    -0.0283    -3.797    -1.355    -1.267  0.9551  0.0387  0.2938
              Bcc     0.0609     8.170     2.915     2.725 -0.2488  0.6429  0.7244
 
              Baa    -0.0131    -1.751    -0.625    -0.584  0.0913  0.2239  0.9703
    11 C(13)  Bbb     0.0055     0.742     0.265     0.248 -0.0536  0.9741 -0.2197
              Bcc     0.0075     1.009     0.360     0.337  0.9944  0.0319 -0.1009
 
              Baa    -0.0388    -5.201    -1.856    -1.735  0.9476 -0.1984  0.2503
    12 C(13)  Bbb    -0.0347    -4.659    -1.662    -1.554 -0.3177 -0.6664  0.6745
              Bcc     0.0735     9.860     3.518     3.289 -0.0330  0.7187  0.6945
 
              Baa    -0.0275    -3.694    -1.318    -1.232 -0.4805  0.8727 -0.0867
    13 C(13)  Bbb    -0.0121    -1.619    -0.578    -0.540  0.8591  0.4485 -0.2466
              Bcc     0.0396     5.313     1.896     1.772  0.1763  0.1930  0.9652
 
              Baa    -0.0035    -1.852    -0.661    -0.618  0.1844  0.5244  0.8312
    14 H(1)   Bbb    -0.0016    -0.859    -0.307    -0.287  0.8879  0.2737 -0.3697
              Bcc     0.0051     2.711     0.967     0.904 -0.4214  0.8063 -0.4152
 
              Baa    -0.0025    -1.313    -0.468    -0.438  0.0241  0.4366  0.8993
    15 H(1)   Bbb     0.0004     0.212     0.076     0.071  0.6667  0.6633 -0.3399
              Bcc     0.0021     1.101     0.393     0.367  0.7449 -0.6078  0.2751
 
              Baa    -0.0035    -1.857    -0.663    -0.619 -0.1703  0.2807  0.9446
    16 H(1)   Bbb    -0.0023    -1.215    -0.434    -0.405  0.7490  0.6597 -0.0610
              Bcc     0.0058     3.072     1.096     1.025 -0.6403  0.6972 -0.3226
 
              Baa    -0.0206    -2.764    -0.986    -0.922  0.2691  0.1819  0.9458
    17 C(13)  Bbb    -0.0201    -2.703    -0.964    -0.901  0.7874 -0.6070 -0.1073
              Bcc     0.0407     5.467     1.951     1.824  0.5545  0.7736 -0.3065
 
              Baa    -0.0021    -1.124    -0.401    -0.375  0.4864  0.8278 -0.2796
    18 H(1)   Bbb    -0.0005    -0.251    -0.089    -0.084 -0.1381  0.3888  0.9109
              Bcc     0.0026     1.375     0.491     0.459  0.8627 -0.4045  0.3034
 
              Baa    -0.0024    -1.307    -0.466    -0.436  0.0341  0.5163  0.8557
    19 H(1)   Bbb     0.0005     0.263     0.094     0.088  0.8594  0.4218 -0.2888
              Bcc     0.0020     1.044     0.372     0.348 -0.5101  0.7453 -0.4293
 
              Baa    -0.0011    -0.582    -0.208    -0.194  0.4207  0.7487 -0.5124
    20 H(1)   Bbb    -0.0001    -0.065    -0.023    -0.022  0.6863  0.1067  0.7194
              Bcc     0.0012     0.647     0.231     0.216 -0.5933  0.6543  0.4689
 
              Baa    -0.0021    -1.104    -0.394    -0.368  0.3611 -0.0639  0.9303
    21 H(1)   Bbb    -0.0010    -0.516    -0.184    -0.172  0.7043  0.6726 -0.2272
              Bcc     0.0030     1.620     0.578     0.540 -0.6112  0.7373  0.2879
 
              Baa    -0.0527    -2.160    -0.771    -0.721  0.7548 -0.3688  0.5424
    22 S(33)  Bbb    -0.0418    -1.712    -0.611    -0.571 -0.1867  0.6718  0.7168
              Bcc     0.0944     3.872     1.382     1.292  0.6288  0.6423 -0.4383
 
              Baa    -0.3506   -13.523    -4.825    -4.511 -0.3847  0.8766  0.2890
    23 N(14)  Bbb    -0.3496   -13.481    -4.810    -4.497  0.8585  0.4548 -0.2368
              Bcc     0.7002    27.004     9.636     9.008  0.3391 -0.1570  0.9276
 
              Baa    -0.0187    -2.513    -0.897    -0.838  0.2911  0.8672 -0.4040
    24 C(13)  Bbb     0.0058     0.774     0.276     0.258  0.7651  0.0425  0.6425
              Bcc     0.0130     1.739     0.621     0.580 -0.5743  0.4961  0.6511
 
              Baa    -0.0385    -5.171    -1.845    -1.725 -0.0547  0.6817  0.7296
    25 C(13)  Bbb    -0.0338    -4.537    -1.619    -1.513  0.9321 -0.2271  0.2821
              Bcc     0.0723     9.708     3.464     3.238  0.3580  0.6955 -0.6230
 
              Baa    -0.0402    -5.398    -1.926    -1.801  0.9688 -0.1017  0.2262
    26 C(13)  Bbb    -0.0356    -4.780    -1.706    -1.595 -0.1351  0.5482  0.8254
              Bcc     0.0758    10.178     3.632     3.395  0.2079  0.8301 -0.5173
 
              Baa    -0.0256    -3.436    -1.226    -1.146 -0.0448 -0.6606  0.7494
    27 C(13)  Bbb     0.0112     1.501     0.536     0.501  0.6845  0.5261  0.5047
              Bcc     0.0144     1.935     0.690     0.645  0.7276 -0.5355 -0.4287
 
              Baa    -0.0277    -3.711    -1.324    -1.238 -0.1130 -0.6171  0.7787
    28 C(13)  Bbb     0.0121     1.617     0.577     0.540  0.6041  0.5796  0.5470
              Bcc     0.0156     2.094     0.747     0.698  0.7889 -0.5322 -0.3072
 
              Baa    -0.0459    -6.162    -2.199    -2.056  0.6479  0.5761  0.4984
    29 C(13)  Bbb    -0.0415    -5.564    -1.985    -1.856  0.7598 -0.5359 -0.3682
              Bcc     0.0874    11.726     4.184     3.911 -0.0550 -0.6172  0.7849
 
              Baa    -0.0030    -1.624    -0.579    -0.542 -0.2219  0.7673 -0.6016
    30 H(1)   Bbb    -0.0016    -0.864    -0.308    -0.288  0.8224 -0.1842 -0.5383
              Bcc     0.0047     2.488     0.888     0.830  0.5239  0.6142  0.5901
 
              Baa    -0.0031    -1.673    -0.597    -0.558 -0.2113 -0.5630  0.7990
    31 H(1)   Bbb    -0.0014    -0.744    -0.265    -0.248 -0.5438  0.7470  0.3826
              Bcc     0.0045     2.417     0.862     0.806  0.8122  0.3536  0.4640
 
              Baa    -0.0016    -0.871    -0.311    -0.291 -0.1428 -0.6937  0.7060
    32 H(1)   Bbb     0.0004     0.201     0.072     0.067  0.7930  0.3467  0.5010
              Bcc     0.0013     0.670     0.239     0.223 -0.5923  0.6314  0.5006
 
              Baa    -0.0017    -0.902    -0.322    -0.301  0.1401  0.7101 -0.6900
    33 H(1)   Bbb     0.0002     0.085     0.030     0.028  0.4588  0.5710  0.6808
              Bcc     0.0015     0.817     0.292     0.273  0.8774 -0.4119 -0.2458
 
              Baa    -0.0059    -3.145    -1.122    -1.049  0.6585  0.5430  0.5211
    34 H(1)   Bbb    -0.0006    -0.341    -0.122    -0.114 -0.0805 -0.6376  0.7661
              Bcc     0.0065     3.486     1.244     1.163  0.7483 -0.5464 -0.3762
 
              Baa    -0.0190    -2.549    -0.910    -0.850  0.9656 -0.2513  0.0675
    35 C(13)  Bbb     0.0054     0.720     0.257     0.240 -0.1791 -0.4538  0.8729
              Bcc     0.0136     1.829     0.653     0.610  0.1887  0.8550  0.4831
 
              Baa    -0.0392    -5.255    -1.875    -1.753 -0.1936  0.6120  0.7668
    36 C(13)  Bbb    -0.0345    -4.634    -1.654    -1.546  0.1926  0.7901 -0.5820
              Bcc     0.0737     9.889     3.529     3.299  0.9620 -0.0350  0.2708
 
              Baa    -0.0406    -5.448    -1.944    -1.817  0.3250  0.7615 -0.5608
    37 C(13)  Bbb    -0.0361    -4.850    -1.730    -1.618 -0.0180  0.5978  0.8014
              Bcc     0.0767    10.297     3.674     3.435  0.9455 -0.2504  0.2080
 
              Baa    -0.0262    -3.513    -1.254    -1.172  0.8327 -0.2172  0.5094
    38 C(13)  Bbb     0.0115     1.544     0.551     0.515 -0.5393 -0.1095  0.8349
              Bcc     0.0147     1.969     0.703     0.657  0.1256  0.9700  0.2083
 
              Baa    -0.0279    -3.750    -1.338    -1.251  0.8442 -0.1339  0.5190
    39 C(13)  Bbb     0.0122     1.637     0.584     0.546 -0.5212  0.0211  0.8532
              Bcc     0.0158     2.114     0.754     0.705  0.1252  0.9908  0.0520
 
              Baa    -0.0467    -6.272    -2.238    -2.092 -0.5582 -0.0327  0.8291
    40 C(13)  Bbb    -0.0423    -5.674    -2.025    -1.893  0.1298  0.9835  0.1262
              Bcc     0.0890    11.945     4.262     3.985  0.8195 -0.1781  0.5447
 
              Baa    -0.0030    -1.627    -0.581    -0.543  0.7011 -0.5425  0.4628
    41 H(1)   Bbb    -0.0017    -0.914    -0.326    -0.305  0.5191  0.8332  0.1905
              Bcc     0.0048     2.541     0.907     0.847 -0.4890  0.1067  0.8658
 
              Baa    -0.0031    -1.673    -0.597    -0.558  0.8425  0.0186  0.5384
    42 H(1)   Bbb    -0.0015    -0.814    -0.291    -0.272 -0.1834  0.9496  0.2541
              Bcc     0.0047     2.488     0.888     0.830 -0.5065 -0.3128  0.8035
 
              Baa    -0.0016    -0.872    -0.311    -0.291  0.8825 -0.1775  0.4355
    43 H(1)   Bbb     0.0004     0.199     0.071     0.067 -0.4701 -0.3088  0.8268
              Bcc     0.0013     0.673     0.240     0.224  0.0123  0.9344  0.3560
 
              Baa    -0.0017    -0.897    -0.320    -0.299  0.8868 -0.1997  0.4168
    44 H(1)   Bbb     0.0002     0.081     0.029     0.027 -0.3841  0.1831  0.9049
              Bcc     0.0015     0.816     0.291     0.272  0.2571  0.9626 -0.0857
 
              Baa    -0.0060    -3.194    -1.140    -1.065 -0.5271 -0.0587  0.8478
    45 H(1)   Bbb    -0.0006    -0.335    -0.120    -0.112  0.8415 -0.1753  0.5111
              Bcc     0.0066     3.529     1.259     1.177  0.1186  0.9828  0.1418
 
              Baa    -0.0922    -3.554    -1.268    -1.186 -0.0474  0.9988  0.0091
    46 N(14)  Bbb    -0.0914    -3.527    -1.258    -1.176  0.7261  0.0282  0.6871
              Bcc     0.1836     7.081     2.527     2.362 -0.6860 -0.0392  0.7266
 
              Baa    -0.0050    -0.664    -0.237    -0.222  0.2805  0.3787  0.8820
    47 C(13)  Bbb     0.0016     0.221     0.079     0.074  0.9285  0.1260 -0.3494
              Bcc     0.0033     0.443     0.158     0.148 -0.2435  0.9169 -0.3163
 
              Baa    -0.0096    -1.282    -0.458    -0.428  0.4859  0.8406 -0.2395
    48 C(13)  Bbb    -0.0080    -1.073    -0.383    -0.358  0.8427 -0.5232 -0.1268
              Bcc     0.0175     2.355     0.840     0.786  0.2319  0.1402  0.9626
 
              Baa    -0.0101    -1.358    -0.485    -0.453  0.9213 -0.3859 -0.0481
    49 C(13)  Bbb    -0.0093    -1.246    -0.445    -0.416  0.3328  0.8465 -0.4155
              Bcc     0.0194     2.604     0.929     0.869  0.2011  0.3668  0.9083
 
              Baa    -0.0060    -0.803    -0.286    -0.268 -0.1342  0.2554  0.9575
    50 C(13)  Bbb     0.0025     0.341     0.122     0.114  0.8961  0.4439  0.0072
              Bcc     0.0034     0.462     0.165     0.154 -0.4232  0.8589 -0.2884
 
              Baa    -0.0072    -0.971    -0.346    -0.324 -0.0828  0.1761  0.9809
    51 C(13)  Bbb     0.0031     0.414     0.148     0.138  0.8629  0.5051 -0.0179
              Bcc     0.0042     0.557     0.199     0.186 -0.4986  0.8449 -0.1938
 
              Baa    -0.0113    -1.515    -0.541    -0.505  0.9046  0.4229  0.0530
    52 C(13)  Bbb    -0.0101    -1.354    -0.483    -0.452 -0.4007  0.8863 -0.2321
              Bcc     0.0214     2.869     1.024     0.957 -0.1451  0.1887  0.9713
 
              Baa    -0.0009    -0.463    -0.165    -0.155 -0.2037  0.4393  0.8750
    53 H(1)   Bbb    -0.0004    -0.214    -0.076    -0.071 -0.2780  0.8309 -0.4819
              Bcc     0.0013     0.677     0.242     0.226  0.9387  0.3414  0.0471
 
              Baa    -0.0010    -0.551    -0.196    -0.184  0.0074  0.3139  0.9494
    54 H(1)   Bbb    -0.0004    -0.203    -0.072    -0.068  0.1080  0.9436 -0.3128
              Bcc     0.0014     0.753     0.269     0.251  0.9941 -0.1049  0.0269
 
              Baa    -0.0005    -0.256    -0.091    -0.085 -0.0122  0.2514  0.9678
    55 H(1)   Bbb     0.0001     0.080     0.028     0.027  0.7282  0.6655 -0.1637
              Bcc     0.0003     0.176     0.063     0.059 -0.6853  0.7028 -0.1912
 
              Baa    -0.0006    -0.310    -0.110    -0.103  0.0008  0.2644  0.9644
    56 H(1)   Bbb    -0.0000    -0.027    -0.009    -0.009  0.7916  0.5891 -0.1621
              Bcc     0.0006     0.336     0.120     0.112 -0.6110  0.7636 -0.2088
 
              Baa    -0.0014    -0.769    -0.275    -0.257  0.9441  0.3270  0.0428
    57 H(1)   Bbb    -0.0002    -0.127    -0.045    -0.042 -0.1127  0.1981  0.9737
              Bcc     0.0017     0.897     0.320     0.299 -0.3099  0.9240 -0.2239
 
              Baa    -0.0056    -0.754    -0.269    -0.251  0.7806 -0.6249  0.0112
    58 C(13)  Bbb     0.0016     0.216     0.077     0.072 -0.1201 -0.1324  0.9839
              Bcc     0.0040     0.538     0.192     0.179  0.6134  0.7694  0.1783
 
              Baa    -0.0100    -1.347    -0.481    -0.449  0.3824  0.8304 -0.4053
    59 C(13)  Bbb    -0.0087    -1.168    -0.417    -0.390  0.1127  0.3935  0.9124
              Bcc     0.0187     2.515     0.897     0.839  0.9171 -0.3945  0.0569
 
              Baa    -0.0096    -1.293    -0.461    -0.431  0.1474  0.1432  0.9787
    60 C(13)  Bbb    -0.0083    -1.111    -0.397    -0.371  0.5955  0.7771 -0.2034
              Bcc     0.0179     2.404     0.858     0.802  0.7897 -0.6128 -0.0293
 
              Baa    -0.0066    -0.892    -0.318    -0.298  0.8662 -0.4106 -0.2846
    61 C(13)  Bbb     0.0029     0.383     0.137     0.128  0.0187 -0.5426  0.8398
              Bcc     0.0038     0.509     0.182     0.170  0.4993  0.7328  0.4624
 
              Baa    -0.0062    -0.830    -0.296    -0.277  0.9102 -0.3273 -0.2538
    62 C(13)  Bbb     0.0025     0.342     0.122     0.114  0.0300 -0.5592  0.8285
              Bcc     0.0036     0.488     0.174     0.163  0.4131  0.7617  0.4992
 
              Baa    -0.0116    -1.551    -0.553    -0.517  0.0374 -0.5701  0.8207
    63 C(13)  Bbb    -0.0103    -1.382    -0.493    -0.461  0.4491  0.7433  0.4959
              Bcc     0.0219     2.933     1.046     0.978  0.8927 -0.3500 -0.2838
 
              Baa    -0.0009    -0.456    -0.163    -0.152 -0.4590  0.6908  0.5587
    64 H(1)   Bbb    -0.0003    -0.144    -0.051    -0.048  0.8864  0.3985  0.2355
              Bcc     0.0011     0.600     0.214     0.200  0.0599 -0.6034  0.7952
 
              Baa    -0.0006    -0.315    -0.112    -0.105 -0.4702  0.7934  0.3866
    65 H(1)   Bbb    -0.0003    -0.140    -0.050    -0.047  0.8584  0.5128 -0.0084
              Bcc     0.0009     0.454     0.162     0.152  0.2049 -0.3280  0.9222
 
              Baa    -0.0004    -0.220    -0.078    -0.073  0.7993 -0.4703 -0.3740
    66 H(1)   Bbb     0.0000     0.015     0.005     0.005  0.0320 -0.5882  0.8081
              Bcc     0.0004     0.205     0.073     0.068  0.6001  0.6579  0.4551
 
              Baa    -0.0004    -0.224    -0.080    -0.075  0.7260 -0.6688 -0.1602
    67 H(1)   Bbb    -0.0000    -0.010    -0.003    -0.003 -0.1866 -0.4158  0.8901
              Bcc     0.0004     0.234     0.083     0.078  0.6619  0.6163  0.4267
 
              Baa    -0.0016    -0.829    -0.296    -0.277  0.0066 -0.5160  0.8566
    68 H(1)   Bbb    -0.0002    -0.080    -0.029    -0.027  0.8596 -0.4348 -0.2685
              Bcc     0.0017     0.910     0.325     0.303  0.5110  0.7381  0.4406
 

 ---------------------------------------------------------------------------------

 No NMR shielding tensors so no spin-rotation constants.
 Leave Link  601 at Wed Jan 27 18:38:38 2021, MaxMem=  4026531840 cpu:              15.4 elap:               2.1
 (Enter /opt/ohpc/pub/libs/gaussian/g16-A.03/sandybridge/g16/l9999.exe)

 Test job not archived.
 1\1\GINC-CNODE210\SP\ULC-wHPBE\TZVP\C36H28N2S2(1+,2)\RDU230\27-Jan-202
 1\0\\#P LC-wHPBE/TZVP iop(3/107=0156200000, 3/108=0156200000) scf=(con
 ver=6,fermi,ndamp=35,noincfock,novaracc,vshift=500,xqc)\\H28 C36 S2 N2
 \\1,2\C,0,-2.604951,0.985352,-0.477595\C,0,-1.595468,1.227646,-1.39689
 7\S,0,-0.459746,2.557842,-1.073663\C,0,-1.509976,0.467226,-2.564163\C,
 0,1.043777,0.455726,-0.021717\C,0,1.03833,1.682104,-0.668307\C,0,-3.55
 7585,-0.001751,-0.697168\C,0,-2.447111,-0.539154,-2.764444\H,0,-0.5963
 18,-0.14267,-4.605045\C,0,2.238728,-0.147647,0.319798\C,0,2.246539,2.2
 97832,-0.961919\C,0,3.442101,1.694718,-0.621166\C,0,3.453096,0.46292,0
 .023837\H,0,2.234263,-1.106243,0.827797\H,0,2.253931,3.248348,-1.48634
 6\H,0,4.381679,2.178238,-0.866461\C,0,-3.461673,-0.764082,-1.856276\H,
 0,-2.646669,1.585519,0.424718\H,0,0.106936,-0.032641,0.224382\H,0,-2.4
 04245,-1.146243,-3.663282\H,0,-4.192893,-1.542008,-2.047877\S,0,-0.233
 558,0.817463,-3.737465\N,0,4.673686,-0.159547,0.368747\C,0,5.732508,0.
 612661,0.896564\C,0,7.045695,0.37796,0.499452\C,0,5.475865,1.622329,1.
 819567\C,0,8.078745,1.133154,1.024558\C,0,6.512871,2.384632,2.326214\C
 ,0,7.820306,2.143178,1.9369\H,0,7.251646,-0.403669,-0.22406\H,0,4.4548
 3,1.807304,2.136118\H,0,9.097402,0.93653,0.704866\H,0,6.295127,3.16901
 3,3.044416\H,0,8.632202,2.738403,2.341339\C,0,4.837054,-1.548147,0.168
 533\C,0,5.516065,-2.321618,1.105787\C,0,4.319017,-2.163542,-0.967486\C
 ,0,5.679987,-3.679833,0.902534\C,0,4.472338,-3.525567,-1.15401\C,0,5.1
 56657,-4.292005,-0.224805\H,0,5.917204,-1.848815,1.995947\H,0,3.79167,
 -1.566068,-1.703651\H,0,6.213214,-4.268058,1.642948\H,0,4.061647,-3.98
 973,-2.045325\H,0,5.281223,-5.35883,-0.377899\N,0,-4.591369,-0.225236,
 0.235572\C,0,-4.996809,-1.544618,0.539366\C,0,-6.345932,-1.849462,0.69
 3639\C,0,-4.053605,-2.557013,0.688173\C,0,-6.738551,-3.140118,0.998819
 \C,0,-4.45592,-3.848924,0.975713\C,0,-5.798707,-4.148587,1.137139\H,0,
 -7.085839,-1.064984,0.575406\H,0,-2.999778,-2.324624,0.576668\H,0,-7.7
 94748,-3.361033,1.117399\H,0,-3.707423,-4.627077,1.088273\H,0,-6.11071
 1,-5.161215,1.369943\C,0,-5.228462,0.872905,0.859345\C,0,-5.548183,0.8
 24769,2.212595\C,0,-5.541916,2.014931,0.129127\C,0,-6.178047,1.897088,
 2.818017\C,0,-6.155123,3.090236,0.746513\C,0,-6.481192,3.037227,2.0917
 54\H,0,-5.300925,-0.061617,2.787177\H,0,-5.299559,2.056134,-0.927579\H
 ,0,-6.421719,1.844307,3.874525\H,0,-6.390696,3.975287,0.163884\H,0,-6.
 967632,3.87989,2.571608\\Version=EM64L-G16RevA.03\State=2-A\HF=-2293.0
 280899\S2=0.761417\S2-1=0.\S2A=0.750107\RMSD=1.219e-07\Dipole=3.182847
 3,-0.8100295,0.1982086\Quadrupole=56.0096226,-20.4059561,-35.6036664,0
 .0059815,5.7941521,6.5422139\PG=C01 [X(C36H28N2S2)]\\@


 IBM COMPATIBILITY IS LIKE PREGNANCY. YOU ARE OR
 OR YOU ARE NOT. -- ADAM OSBORNE
 Job cpu time:       0 days 21 hours 48 minutes 36.9 seconds.
 Elapsed time:       0 days  2 hours 45 minutes 26.9 seconds.
 File lengths (MBytes):  RWF=    724 Int=      0 D2E=      0 Chk=     68 Scr=      8
 Normal termination of Gaussian 16 at Wed Jan 27 18:38:38 2021.
