 Entering Gaussian System, Link 0=g16
 Input=mol_ta_pa_whol_tune_c9.gjf
 Output=mol_ta_pa_whol_tune_c9.log
 Initial command:
 /opt/ohpc/pub/libs/gaussian/g16-A.03/sandybridge/g16/l1.exe "/mnt/gpfs2_4m/scratch/rdu230/ondemand/projects/init_structures/gaussian/wtuning/mol_ta_pa_whol/tuning_mol_ta_pa_whol_ocycle0/Gau-5002.inp" -scrdir="/mnt/gpfs2_4m/scratch/rdu230/ondemand/projects/init_structures/gaussian/wtuning/mol_ta_pa_whol/tuning_mol_ta_pa_whol_ocycle0/"
 Entering Link 1 = /opt/ohpc/pub/libs/gaussian/g16-A.03/sandybridge/g16/l1.exe PID=      5003.
  
 Copyright (c) 1988,1990,1992,1993,1995,1998,2003,2009,2016,
            Gaussian, Inc.  All Rights Reserved.
  
 This is part of the Gaussian(R) 16 program.  It is based on
 the Gaussian(R) 09 system (copyright 2009, Gaussian, Inc.),
 the Gaussian(R) 03 system (copyright 2003, Gaussian, Inc.),
 the Gaussian(R) 98 system (copyright 1998, Gaussian, Inc.),
 the Gaussian(R) 94 system (copyright 1995, Gaussian, Inc.),
 the Gaussian 92(TM) system (copyright 1992, Gaussian, Inc.),
 the Gaussian 90(TM) system (copyright 1990, Gaussian, Inc.),
 the Gaussian 88(TM) system (copyright 1988, Gaussian, Inc.),
 the Gaussian 86(TM) system (copyright 1986, Carnegie Mellon
 University), and the Gaussian 82(TM) system (copyright 1983,
 Carnegie Mellon University). Gaussian is a federally registered
 trademark of Gaussian, Inc.
  
 This software contains proprietary and confidential information,
 including trade secrets, belonging to Gaussian, Inc.
  
 This software is provided under written license and may be
 used, copied, transmitted, or stored only in accord with that
 written license.
  
 The following legend is applicable only to US Government
 contracts under FAR:
  
                    RESTRICTED RIGHTS LEGEND
  
 Use, reproduction and disclosure by the US Government is
 subject to restrictions as set forth in subparagraphs (a)
 and (c) of the Commercial Computer Software - Restricted
 Rights clause in FAR 52.227-19.
  
 Gaussian, Inc.
 340 Quinnipiac St., Bldg. 40, Wallingford CT 06492
  
  
 ---------------------------------------------------------------
 Warning -- This program may not be used in any manner that
 competes with the business of Gaussian, Inc. or will provide
 assistance to any competitor of Gaussian, Inc.  The licensee
 of this program is prohibited from giving any competitor of
 Gaussian, Inc. access to this program.  By using this program,
 the user acknowledges that Gaussian, Inc. is engaged in the
 business of creating and licensing software in the field of
 computational chemistry and represents and warrants to the
 licensee that it is not a competitor of Gaussian, Inc. and that
 it will not use this program in any manner prohibited above.
 ---------------------------------------------------------------
  

 Cite this work as:
 Gaussian 16, Revision A.03,
 M. J. Frisch, G. W. Trucks, H. B. Schlegel, G. E. Scuseria, 
 M. A. Robb, J. R. Cheeseman, G. Scalmani, V. Barone, 
 G. A. Petersson, H. Nakatsuji, X. Li, M. Caricato, A. V. Marenich, 
 J. Bloino, B. G. Janesko, R. Gomperts, B. Mennucci, H. P. Hratchian, 
 J. V. Ortiz, A. F. Izmaylov, J. L. Sonnenberg, D. Williams-Young, 
 F. Ding, F. Lipparini, F. Egidi, J. Goings, B. Peng, A. Petrone, 
 T. Henderson, D. Ranasinghe, V. G. Zakrzewski, J. Gao, N. Rega, 
 G. Zheng, W. Liang, M. Hada, M. Ehara, K. Toyota, R. Fukuda, 
 J. Hasegawa, M. Ishida, T. Nakajima, Y. Honda, O. Kitao, H. Nakai, 
 T. Vreven, K. Throssell, J. A. Montgomery, Jr., J. E. Peralta, 
 F. Ogliaro, M. J. Bearpark, J. J. Heyd, E. N. Brothers, K. N. Kudin, 
 V. N. Staroverov, T. A. Keith, R. Kobayashi, J. Normand, 
 K. Raghavachari, A. P. Rendell, J. C. Burant, S. S. Iyengar, 
 J. Tomasi, M. Cossi, J. M. Millam, M. Klene, C. Adamo, R. Cammi, 
 J. W. Ochterski, R. L. Martin, K. Morokuma, O. Farkas, 
 J. B. Foresman, and D. J. Fox, Gaussian, Inc., Wallingford CT, 2016.
 
 ******************************************
 Gaussian 16:  EM64L-G16RevA.03 25-Dec-2016
                28-Jan-2021 
 ******************************************
 %mem=30GB
 %nproc=8
 Will use up to    8 processors via shared memory.
 ----------------------------------------------------------------------
 #P LC-wHPBE/TZVP iop(3/107=0224100000, 3/108=0224100000) scf=(conver=6
 ,fermi,ndamp=35,noincfock,novaracc,vshift=500,xqc)
 ----------------------------------------------------------------------
 1/38=1,172=1/1;
 2/12=2,17=6,18=5,40=1/2;
 3/5=19,7=101,11=2,25=1,30=1,74=-71,107=224100000,108=224100000/1,2,3;
 4//1;
 5/5=100002,6=6,8=3,10=500,13=1,18=-1,22=13,38=1,93=35/2,8;
 6/7=2,8=2,9=2,10=2,28=1/1;
 99/5=1,9=1/99;
 Leave Link    1 at Thu Jan 28 22:34:04 2021, MaxMem=  4026531840 cpu:               1.7 elap:               0.2
 (Enter /opt/ohpc/pub/libs/gaussian/g16-A.03/sandybridge/g16/l101.exe)
 -------------
 H28 C36 S2 N2
 -------------
 Symbolic Z-matrix:
 Charge =  1 Multiplicity = 2
 C                    -2.60495   0.98535  -0.4776 
 C                    -1.59547   1.22765  -1.3969 
 S                    -0.45975   2.55784  -1.07366 
 C                    -1.50998   0.46723  -2.56416 
 C                     1.04378   0.45573  -0.02172 
 C                     1.03833   1.6821   -0.66831 
 C                    -3.55759  -0.00175  -0.69717 
 C                    -2.44711  -0.53915  -2.76444 
 H                    -0.59632  -0.14267  -4.60505 
 C                     2.23873  -0.14765   0.3198 
 C                     2.24654   2.29783  -0.96192 
 C                     3.4421    1.69472  -0.62117 
 C                     3.4531    0.46292   0.02384 
 H                     2.23426  -1.10624   0.8278 
 H                     2.25393   3.24835  -1.48635 
 H                     4.38168   2.17824  -0.86646 
 C                    -3.46167  -0.76408  -1.85628 
 H                    -2.64667   1.58552   0.42472 
 H                     0.10694  -0.03264   0.22438 
 H                    -2.40424  -1.14624  -3.66328 
 H                    -4.19289  -1.54201  -2.04788 
 S                    -0.23356   0.81746  -3.73747 
 N                     4.67369  -0.15955   0.36875 
 C                     5.73251   0.61266   0.89656 
 C                     7.0457    0.37796   0.49945 
 C                     5.47587   1.62233   1.81957 
 C                     8.07874   1.13315   1.02456 
 C                     6.51287   2.38463   2.32621 
 C                     7.82031   2.14318   1.9369 
 H                     7.25165  -0.40367  -0.22406 
 H                     4.45483   1.8073    2.13612 
 H                     9.0974    0.93653   0.70487 
 H                     6.29513   3.16901   3.04442 
 H                     8.6322    2.7384    2.34134 
 C                     4.83705  -1.54815   0.16853 
 C                     5.51607  -2.32162   1.10579 
 C                     4.31902  -2.16354  -0.96749 
 C                     5.67999  -3.67983   0.90253 
 C                     4.47234  -3.52557  -1.15401 
 C                     5.15666  -4.29201  -0.22481 
 H                     5.9172   -1.84882   1.99595 
 H                     3.79167  -1.56607  -1.70365 
 H                     6.21321  -4.26806   1.64295 
 H                     4.06165  -3.98973  -2.04533 
 H                     5.28122  -5.35883  -0.3779 
 N                    -4.59137  -0.22524   0.23557 
 C                    -4.99681  -1.54462   0.53937 
 C                    -6.34593  -1.84946   0.69364 
 C                    -4.05361  -2.55701   0.68817 
 C                    -6.73855  -3.14012   0.99882 
 C                    -4.45592  -3.84892   0.97571 
 C                    -5.79871  -4.14859   1.13714 
 H                    -7.08584  -1.06498   0.57541 
 H                    -2.99978  -2.32462   0.57667 
 H                    -7.79475  -3.36103   1.1174 
 H                    -3.70742  -4.62708   1.08827 
 H                    -6.11071  -5.16122   1.36994 
 C                    -5.22846   0.87291   0.85935 
 C                    -5.54818   0.82477   2.2126 
 C                    -5.54192   2.01493   0.12913 
 C                    -6.17805   1.89709   2.81802 
 C                    -6.15512   3.09024   0.74651 
 C                    -6.48119   3.03723   2.09175 
 H                    -5.30093  -0.06162   2.78718 
 H                    -5.29956   2.05613  -0.92758 
 H                    -6.42172   1.84431   3.87453 
 H                    -6.3907    3.97529   0.16388 
 H                    -6.96763   3.87989   2.57161 
 
 ITRead=  0  0  0  0  0  0  0  0  0  0  0  0  0  0  0  0  0  0  0  0
 ITRead=  0  0  0  0  0  0  0  0  0  0  0  0  0  0  0  0  0  0  0  0
 ITRead=  0  0  0  0  0  0  0  0  0  0  0  0  0  0  0  0  0  0  0  0
 ITRead=  0  0  0  0  0  0  0  0
 MicOpt= -1 -1 -1 -1 -1 -1 -1 -1 -1 -1 -1 -1 -1 -1 -1 -1 -1 -1 -1 -1
 MicOpt= -1 -1 -1 -1 -1 -1 -1 -1 -1 -1 -1 -1 -1 -1 -1 -1 -1 -1 -1 -1
 MicOpt= -1 -1 -1 -1 -1 -1 -1 -1 -1 -1 -1 -1 -1 -1 -1 -1 -1 -1 -1 -1
 MicOpt= -1 -1 -1 -1 -1 -1 -1 -1
 NAtoms=     68 NQM=       68 NQMF=       0 NMMI=      0 NMMIF=      0
                NMic=       0 NMicF=      0.
                    Isotopes and Nuclear Properties:
 (Nuclear quadrupole moments (NQMom) in fm**2, nuclear magnetic moments (NMagM)
  in nuclear magnetons)

  Atom         1           2           3           4           5           6           7           8           9          10
 IAtWgt=          12          12          32          12          12          12          12          12           1          12
 AtmWgt=  12.0000000  12.0000000  31.9720718  12.0000000  12.0000000  12.0000000  12.0000000  12.0000000   1.0078250  12.0000000
 NucSpn=           0           0           0           0           0           0           0           0           1           0
 AtZEff=  -0.0000000  -0.0000000  -0.0000000  -0.0000000  -0.0000000  -0.0000000  -0.0000000  -0.0000000  -0.0000000  -0.0000000
 NQMom=    0.0000000   0.0000000   0.0000000   0.0000000   0.0000000   0.0000000   0.0000000   0.0000000   0.0000000   0.0000000
 NMagM=    0.0000000   0.0000000   0.0000000   0.0000000   0.0000000   0.0000000   0.0000000   0.0000000   2.7928460   0.0000000
 AtZNuc=   6.0000000   6.0000000  16.0000000   6.0000000   6.0000000   6.0000000   6.0000000   6.0000000   1.0000000   6.0000000

  Atom        11          12          13          14          15          16          17          18          19          20
 IAtWgt=          12          12          12           1           1           1          12           1           1           1
 AtmWgt=  12.0000000  12.0000000  12.0000000   1.0078250   1.0078250   1.0078250  12.0000000   1.0078250   1.0078250   1.0078250
 NucSpn=           0           0           0           1           1           1           0           1           1           1
 AtZEff=  -0.0000000  -0.0000000  -0.0000000  -0.0000000  -0.0000000  -0.0000000  -0.0000000  -0.0000000  -0.0000000  -0.0000000
 NQMom=    0.0000000   0.0000000   0.0000000   0.0000000   0.0000000   0.0000000   0.0000000   0.0000000   0.0000000   0.0000000
 NMagM=    0.0000000   0.0000000   0.0000000   2.7928460   2.7928460   2.7928460   0.0000000   2.7928460   2.7928460   2.7928460
 AtZNuc=   6.0000000   6.0000000   6.0000000   1.0000000   1.0000000   1.0000000   6.0000000   1.0000000   1.0000000   1.0000000

  Atom        21          22          23          24          25          26          27          28          29          30
 IAtWgt=           1          32          14          12          12          12          12          12          12           1
 AtmWgt=   1.0078250  31.9720718  14.0030740  12.0000000  12.0000000  12.0000000  12.0000000  12.0000000  12.0000000   1.0078250
 NucSpn=           1           0           2           0           0           0           0           0           0           1
 AtZEff=  -0.0000000  -0.0000000  -0.0000000  -0.0000000  -0.0000000  -0.0000000  -0.0000000  -0.0000000  -0.0000000  -0.0000000
 NQMom=    0.0000000   0.0000000   2.0440000   0.0000000   0.0000000   0.0000000   0.0000000   0.0000000   0.0000000   0.0000000
 NMagM=    2.7928460   0.0000000   0.4037610   0.0000000   0.0000000   0.0000000   0.0000000   0.0000000   0.0000000   2.7928460
 AtZNuc=   1.0000000  16.0000000   7.0000000   6.0000000   6.0000000   6.0000000   6.0000000   6.0000000   6.0000000   1.0000000

  Atom        31          32          33          34          35          36          37          38          39          40
 IAtWgt=           1           1           1           1          12          12          12          12          12          12
 AtmWgt=   1.0078250   1.0078250   1.0078250   1.0078250  12.0000000  12.0000000  12.0000000  12.0000000  12.0000000  12.0000000
 NucSpn=           1           1           1           1           0           0           0           0           0           0
 AtZEff=  -0.0000000  -0.0000000  -0.0000000  -0.0000000  -0.0000000  -0.0000000  -0.0000000  -0.0000000  -0.0000000  -0.0000000
 NQMom=    0.0000000   0.0000000   0.0000000   0.0000000   0.0000000   0.0000000   0.0000000   0.0000000   0.0000000   0.0000000
 NMagM=    2.7928460   2.7928460   2.7928460   2.7928460   0.0000000   0.0000000   0.0000000   0.0000000   0.0000000   0.0000000
 AtZNuc=   1.0000000   1.0000000   1.0000000   1.0000000   6.0000000   6.0000000   6.0000000   6.0000000   6.0000000   6.0000000

  Atom        41          42          43          44          45          46          47          48          49          50
 IAtWgt=           1           1           1           1           1          14          12          12          12          12
 AtmWgt=   1.0078250   1.0078250   1.0078250   1.0078250   1.0078250  14.0030740  12.0000000  12.0000000  12.0000000  12.0000000
 NucSpn=           1           1           1           1           1           2           0           0           0           0
 AtZEff=  -0.0000000  -0.0000000  -0.0000000  -0.0000000  -0.0000000  -0.0000000  -0.0000000  -0.0000000  -0.0000000  -0.0000000
 NQMom=    0.0000000   0.0000000   0.0000000   0.0000000   0.0000000   2.0440000   0.0000000   0.0000000   0.0000000   0.0000000
 NMagM=    2.7928460   2.7928460   2.7928460   2.7928460   2.7928460   0.4037610   0.0000000   0.0000000   0.0000000   0.0000000
 AtZNuc=   1.0000000   1.0000000   1.0000000   1.0000000   1.0000000   7.0000000   6.0000000   6.0000000   6.0000000   6.0000000

  Atom        51          52          53          54          55          56          57          58          59          60
 IAtWgt=          12          12           1           1           1           1           1          12          12          12
 AtmWgt=  12.0000000  12.0000000   1.0078250   1.0078250   1.0078250   1.0078250   1.0078250  12.0000000  12.0000000  12.0000000
 NucSpn=           0           0           1           1           1           1           1           0           0           0
 AtZEff=  -0.0000000  -0.0000000  -0.0000000  -0.0000000  -0.0000000  -0.0000000  -0.0000000  -0.0000000  -0.0000000  -0.0000000
 NQMom=    0.0000000   0.0000000   0.0000000   0.0000000   0.0000000   0.0000000   0.0000000   0.0000000   0.0000000   0.0000000
 NMagM=    0.0000000   0.0000000   2.7928460   2.7928460   2.7928460   2.7928460   2.7928460   0.0000000   0.0000000   0.0000000
 AtZNuc=   6.0000000   6.0000000   1.0000000   1.0000000   1.0000000   1.0000000   1.0000000   6.0000000   6.0000000   6.0000000

  Atom        61          62          63          64          65          66          67          68
 IAtWgt=          12          12          12           1           1           1           1           1
 AtmWgt=  12.0000000  12.0000000  12.0000000   1.0078250   1.0078250   1.0078250   1.0078250   1.0078250
 NucSpn=           0           0           0           1           1           1           1           1
 AtZEff=  -0.0000000  -0.0000000  -0.0000000  -0.0000000  -0.0000000  -0.0000000  -0.0000000  -0.0000000
 NQMom=    0.0000000   0.0000000   0.0000000   0.0000000   0.0000000   0.0000000   0.0000000   0.0000000
 NMagM=    0.0000000   0.0000000   0.0000000   2.7928460   2.7928460   2.7928460   2.7928460   2.7928460
 AtZNuc=   6.0000000   6.0000000   6.0000000   1.0000000   1.0000000   1.0000000   1.0000000   1.0000000
 Leave Link  101 at Thu Jan 28 22:34:05 2021, MaxMem=  4026531840 cpu:               0.9 elap:               0.1
 (Enter /opt/ohpc/pub/libs/gaussian/g16-A.03/sandybridge/g16/l202.exe)
 Stoichiometry    C36H28N2S2(1+,2)
 Framework group  C1[X(C36H28N2S2)]
 Deg. of freedom   198
 Full point group                 C1      NOp   1
 Largest Abelian subgroup         C1      NOp   1
 Largest concise Abelian subgroup C1      NOp   1
                         Standard orientation:                         
 ---------------------------------------------------------------------
 Center     Atomic      Atomic             Coordinates (Angstroms)
 Number     Number       Type             X           Y           Z
 ---------------------------------------------------------------------
      1          6           0       -2.604951   -0.985352    0.477595
      2          6           0       -1.595468   -1.227646    1.396897
      3         16           0       -0.459746   -2.557842    1.073663
      4          6           0       -1.509976   -0.467226    2.564163
      5          6           0        1.043777   -0.455726    0.021717
      6          6           0        1.038330   -1.682104    0.668307
      7          6           0       -3.557585    0.001751    0.697168
      8          6           0       -2.447111    0.539154    2.764444
      9          1           0       -0.596318    0.142670    4.605045
     10          6           0        2.238728    0.147647   -0.319798
     11          6           0        2.246539   -2.297832    0.961919
     12          6           0        3.442101   -1.694718    0.621166
     13          6           0        3.453096   -0.462920   -0.023837
     14          1           0        2.234263    1.106243   -0.827797
     15          1           0        2.253931   -3.248348    1.486346
     16          1           0        4.381679   -2.178238    0.866461
     17          6           0       -3.461673    0.764082    1.856276
     18          1           0       -2.646669   -1.585519   -0.424718
     19          1           0        0.106936    0.032641   -0.224382
     20          1           0       -2.404245    1.146243    3.663282
     21          1           0       -4.192893    1.542008    2.047877
     22         16           0       -0.233558   -0.817463    3.737465
     23          7           0        4.673686    0.159547   -0.368747
     24          6           0        5.732508   -0.612661   -0.896564
     25          6           0        7.045695   -0.377960   -0.499452
     26          6           0        5.475865   -1.622329   -1.819567
     27          6           0        8.078745   -1.133154   -1.024558
     28          6           0        6.512871   -2.384632   -2.326214
     29          6           0        7.820306   -2.143178   -1.936900
     30          1           0        7.251646    0.403669    0.224060
     31          1           0        4.454830   -1.807304   -2.136118
     32          1           0        9.097402   -0.936530   -0.704866
     33          1           0        6.295127   -3.169013   -3.044416
     34          1           0        8.632202   -2.738403   -2.341339
     35          6           0        4.837054    1.548147   -0.168533
     36          6           0        5.516065    2.321618   -1.105787
     37          6           0        4.319017    2.163542    0.967486
     38          6           0        5.679987    3.679833   -0.902534
     39          6           0        4.472338    3.525567    1.154010
     40          6           0        5.156657    4.292005    0.224805
     41          1           0        5.917204    1.848815   -1.995947
     42          1           0        3.791670    1.566068    1.703651
     43          1           0        6.213214    4.268058   -1.642948
     44          1           0        4.061647    3.989730    2.045325
     45          1           0        5.281223    5.358830    0.377899
     46          7           0       -4.591369    0.225236   -0.235572
     47          6           0       -4.996809    1.544618   -0.539366
     48          6           0       -6.345932    1.849462   -0.693639
     49          6           0       -4.053605    2.557013   -0.688173
     50          6           0       -6.738551    3.140118   -0.998819
     51          6           0       -4.455920    3.848924   -0.975713
     52          6           0       -5.798707    4.148587   -1.137139
     53          1           0       -7.085839    1.064984   -0.575406
     54          1           0       -2.999778    2.324624   -0.576668
     55          1           0       -7.794748    3.361033   -1.117399
     56          1           0       -3.707423    4.627077   -1.088273
     57          1           0       -6.110711    5.161215   -1.369943
     58          6           0       -5.228462   -0.872905   -0.859345
     59          6           0       -5.548183   -0.824769   -2.212595
     60          6           0       -5.541916   -2.014931   -0.129127
     61          6           0       -6.178047   -1.897088   -2.818017
     62          6           0       -6.155123   -3.090236   -0.746513
     63          6           0       -6.481192   -3.037227   -2.091754
     64          1           0       -5.300925    0.061617   -2.787177
     65          1           0       -5.299559   -2.056134    0.927579
     66          1           0       -6.421719   -1.844307   -3.874525
     67          1           0       -6.390696   -3.975287   -0.163884
     68          1           0       -6.967632   -3.879890   -2.571608
 ---------------------------------------------------------------------
 Rotational constants (GHZ):           0.1314912           0.0372042           0.0344004
 Leave Link  202 at Thu Jan 28 22:34:05 2021, MaxMem=  4026531840 cpu:               0.2 elap:               0.0
 (Enter /opt/ohpc/pub/libs/gaussian/g16-A.03/sandybridge/g16/l301.exe)
 Standard basis: TZVP (5D, 7F)
 Ernie: Thresh=  0.10000D-02 Tol=  0.10000D-05 Strict=F.
 There are   974 symmetry adapted cartesian basis functions of A   symmetry.
 There are   934 symmetry adapted basis functions of A   symmetry.
   934 basis functions,  1648 primitive gaussians,   974 cartesian basis functions
   145 alpha electrons      144 beta electrons
       nuclear repulsion energy      4395.1421619507 Hartrees.
 IExCor=33909 DFT=T Ex+Corr=LC-wHPBE ExCW=0 ScaHFX=  1.000000
 ScaDFX=  1.000000  1.000000  1.000000  1.000000 ScalE2=  1.000000  1.000000
 IRadAn=      5 IRanWt=     -1 IRanGd=            0 ICorTp=0 IEmpDi=  4
 HFx  wShort=  0.000000 wLong=  0.224100 cFull=  0.000000 cShort=  0.000000 cLong=  1.000000
 DFx  wShort=  0.000000 wLong=  0.224100 cFull=  0.000000 cShort=  1.000000 cLong=  0.000000
 NAtoms=   68 NActive=   68 NUniq=   68 SFac= 1.00D+00 NAtFMM=   60 NAOKFM=T Big=T
 Integral buffers will be    131072 words long.
 Raffenetti 2 integral format.
 Two-electron integral symmetry is turned on.
 Leave Link  301 at Thu Jan 28 22:34:05 2021, MaxMem=  4026531840 cpu:               0.4 elap:               0.1
 (Enter /opt/ohpc/pub/libs/gaussian/g16-A.03/sandybridge/g16/l302.exe)
 NPDir=0 NMtPBC=     1 NCelOv=     1 NCel=       1 NClECP=     1 NCelD=      1
         NCelK=      1 NCelE2=     1 NClLst=     1 CellRange=     0.0.
 One-electron integrals computed using PRISM.
 One-electron integral symmetry used in STVInt
 NBasis=   934 RedAO= T EigKep=  5.84D-06  NBF=   934
 NBsUse=   934 1.00D-06 EigRej= -1.00D+00 NBFU=   934
 Precomputing XC quadrature grid using
 IXCGrd= 4 IRadAn=           5 IRanWt=          -1 IRanGd=           0 AccXCQ= 0.00D+00.
 Generated NRdTot=       0 NPtTot=           0 NUsed=           0 NTot=          32
 NSgBfM=   919   919   919   919   919 MxSgAt=    68 MxSgA2=    68.
 Leave Link  302 at Thu Jan 28 22:34:08 2021, MaxMem=  4026531840 cpu:              26.3 elap:               3.4
 (Enter /opt/ohpc/pub/libs/gaussian/g16-A.03/sandybridge/g16/l303.exe)
 DipDrv:  MaxL=1.
 Leave Link  303 at Thu Jan 28 22:34:08 2021, MaxMem=  4026531840 cpu:               1.8 elap:               0.3
 (Enter /opt/ohpc/pub/libs/gaussian/g16-A.03/sandybridge/g16/l401.exe)
 ExpMin= 9.52D-02 ExpMax= 6.07D+04 ExpMxC= 2.07D+03 IAcc=3 IRadAn=         5 AccDes= 0.00D+00
 Harris functional with IExCor=33909 and IRadAn=       5 diagonalized for initial guess.
 HarFok:  IExCor=33909 AccDes= 0.00D+00 IRadAn=         5 IDoV= 1 UseB2=F ITyADJ=14
 ICtDFT=  3500011 ScaDFX=  1.000000  1.000000  1.000000  1.000000
 FoFCou: FMM=F IPFlag=           0 FMFlag=      100000 FMFlg1=        2001
         NFxFlg=           0 DoJE=T BraDBF=F KetDBF=T FulRan=T
         wScrn=  0.000000 ICntrl=       500 IOpCl=  0 I1Cent=   200000004 NGrid=           0
         NMat0=    1 NMatS0=      1 NMatT0=    0 NMatD0=    1 NMtDS0=    0 NMtDT0=    0
 Petite list used in FoFCou.
 Harris En= -2258.86641137918    
 JPrj=0 DoOrth=F DoCkMO=F.
 Initial guess <Sx>= 0.0000 <Sy>= 0.0000 <Sz>= 0.5000 <S**2>= 0.7500 S= 0.5000
 Leave Link  401 at Thu Jan 28 22:34:24 2021, MaxMem=  4026531840 cpu:             123.8 elap:              15.5
 (Enter /opt/ohpc/pub/libs/gaussian/g16-A.03/sandybridge/g16/l502.exe)
 Integral symmetry usage will be decided dynamically.
 UHF open shell SCF:
 Using DIIS extrapolation, IDIIS=    10.
 NGot=  4026531840 LenX=  4024617300 LenY=  4023667650
 Requested convergence on RMS density matrix=1.00D-06 within  32 cycles.
 Requested convergence on MAX density matrix=1.00D-04.
 Requested convergence on             energy=1.00D-04.
 Virtual orbitals will be shifted by   0.500 hartree.
 No special actions if energy rises.
 Dynamic level shift is on during FON iterations.

 Cycle   1  Pass 1  IDiag  1:
 FoFJK:  IHMeth= 1 ICntrl=       0 DoSepK=T KAlg= 0 I1Cent=           0 FoldK=F
 IRaf=         1 NMat=       1 IRICut=       1 DoRegI=T DoRafI=F ISym2E= 0 IDoP0=0 IntGTp=1.
 FoFCou: FMM=T IPFlag=           0 FMFlag=      100000 FMFlg1=        2001
         NFxFlg=           0 DoJE=T BraDBF=F KetDBF=F FulRan=T
         wScrn=  0.000000 ICntrl=       500 IOpCl=  0 I1Cent=           0 NGrid=           0
         NMat0=    1 NMatS0=      1 NMatT0=    0 NMatD0=    1 NMtDS0=    0 NMtDT0=    0
 Symmetry not used in FoFCou.
 FMM levels:  10  Number of levels for PrismC:   9
 E= -2292.40508831927    
 DIIS: error= 2.99D-02 at cycle   1 NSaved=   1.
 NSaved= 1 IEnMin= 1 EnMin= -2292.40508831927     IErMin= 1 ErrMin= 2.99D-02
 ErrMax= 2.99D-02  0.00D+00 EMaxC= 1.00D+00 BMatC= 2.93D+00 BMatP= 2.93D+00
 IDIUse=1 WtCom= 1.00D+00 WtEn= 0.00D+00
 Coeff-Com:  0.100D+01
 Coeff:      0.100D+01
 Gap=     0.498 Goal=   None    Shift=    0.500
 T= 1494. Gap= 0.600 NK=0 IS=  146 IE=  934 IFin=  145
          NO(<0.9)=   0  NV(>0.1)=   0    145.00e < EF      0.00e >EF  Err=0.0D+00
 Gap=     0.120 Goal=   None    Shift=    0.500
 T= 1494. Gap= 0.432 NK=0 IS=  145 IE=  934 IFin=  144
          NO(<0.9)=   0  NV(>0.1)=   0    144.00e < EF      0.00e >EF  Err=0.0D+00
 GapD=    0.120 DampG=1.000 DampE=0.500 DampFc=0.5000 IDamp=-1.
 Damping current iteration by 5.00D-01
 RMSDP=2.59D-03 MaxDP=2.12D-01              OVMax= 9.25D-02

 Cycle   2  Pass 1  IDiag  1:
 E= -2292.86521297054     Delta-E=       -0.460124651272 Rises=F Damp=T
 DIIS: error= 1.33D-02 at cycle   2 NSaved=   2.
 NSaved= 2 IEnMin= 2 EnMin= -2292.86521297054     IErMin= 2 ErrMin= 1.33D-02
 ErrMax= 1.33D-02  0.00D+00 EMaxC= 1.00D+00 BMatC= 4.67D-01 BMatP= 2.93D+00
 IDIUse=1 WtCom= 1.00D+00 WtEn= 0.00D+00
 Coeff-Com: -0.536D+00 0.154D+01
 Coeff:     -0.536D+00 0.154D+01
 Gap=     0.249 Goal=   None    Shift=    0.500
 T= 1372. Gap= 0.700 NK=0 IS=  146 IE=  934 IFin=  145
          NO(<0.9)=   0  NV(>0.1)=   0    145.00e < EF      0.00e >EF  Err=0.0D+00
 Gap=     0.068 Goal=   None    Shift=    0.500
 T= 1372. Gap= 0.548 NK=0 IS=  145 IE=  934 IFin=  144
          NO(<0.9)=   0  NV(>0.1)=   0    144.00e < EF      0.00e >EF  Err=0.0D+00
 GapD=    0.068 DampG=0.500 DampE=0.500 DampFc=0.2500 IDamp=-1.
 Damping current iteration by 2.50D-01
 RMSDP=1.62D-03 MaxDP=1.57D-01 DE=-4.60D-01 OVMax= 4.60D-02

 Cycle   3  Pass 1  IDiag  1:
 E= -2292.94736769892     Delta-E=       -0.082154728375 Rises=F Damp=T
 DIIS: error= 9.56D-03 at cycle   3 NSaved=   3.
 NSaved= 3 IEnMin= 3 EnMin= -2292.94736769892     IErMin= 3 ErrMin= 9.56D-03
 ErrMax= 9.56D-03  0.00D+00 EMaxC= 1.00D+00 BMatC= 2.36D-01 BMatP= 4.67D-01
 IDIUse=1 WtCom= 1.00D+00 WtEn= 0.00D+00
 Coeff-Com:  0.765D-01-0.278D+01 0.370D+01
 Coeff:      0.765D-01-0.278D+01 0.370D+01
 Gap=     0.236 Goal=   None    Shift=    0.500
 T= 1176. Gap= 0.734 NK=0 IS=  146 IE=  934 IFin=  145
          NO(<0.9)=   0  NV(>0.1)=   0    145.00e < EF      0.00e >EF  Err=0.0D+00
 Gap=     0.077 Goal=   None    Shift=    0.500
 T= 1176. Gap= 0.576 NK=0 IS=  145 IE=  934 IFin=  144
          NO(<0.9)=   0  NV(>0.1)=   0    144.00e < EF      0.00e >EF  Err=0.0D+00
 GapD=    0.077 DampG=0.500 DampE=1.000 DampFc=0.5000 IDamp=-1.
 Damping current iteration by 5.00D-01
 RMSDP=1.43D-03 MaxDP=1.40D-01 DE=-8.22D-02 OVMax= 2.28D-02

 Cycle   4  Pass 1  IDiag  1:
 E= -2293.05603982109     Delta-E=       -0.108672122171 Rises=F Damp=T
 DIIS: error= 6.70D-03 at cycle   4 NSaved=   4.
 NSaved= 4 IEnMin= 4 EnMin= -2293.05603982109     IErMin= 4 ErrMin= 6.70D-03
 ErrMax= 6.70D-03  0.00D+00 EMaxC= 1.00D+00 BMatC= 5.40D-02 BMatP= 2.36D-01
 IDIUse=1 WtCom= 1.00D+00 WtEn= 0.00D+00
 Coeff-Com:  0.796D-01-0.247D+00-0.854D+00 0.202D+01
 Coeff:      0.796D-01-0.247D+00-0.854D+00 0.202D+01
 Gap=     0.236 Goal=   None    Shift=    0.500
 T=  829. Gap= 0.736 NK=0 IS=  146 IE=  934 IFin=  145
          NO(<0.9)=   0  NV(>0.1)=   0    145.00e < EF      0.00e >EF  Err=0.0D+00
 Gap=     0.076 Goal=   None    Shift=    0.500
 T=  829. Gap= 0.577 NK=0 IS=  145 IE=  934 IFin=  144
          NO(<0.9)=   0  NV(>0.1)=   0    144.00e < EF      0.00e >EF  Err=0.0D+00
 GapD=    0.076 DampG=0.500 DampE=1.000 DampFc=0.5000 IDamp=-1.
 Damping current iteration by 5.00D-01
 RMSDP=8.11D-04 MaxDP=8.41D-02 DE=-1.09D-01 OVMax= 2.41D-02

 Cycle   5  Pass 1  IDiag  1:
 E= -2293.10644964949     Delta-E=       -0.050409828399 Rises=F Damp=T
 DIIS: error= 5.10D-03 at cycle   5 NSaved=   5.
 NSaved= 5 IEnMin= 5 EnMin= -2293.10644964949     IErMin= 5 ErrMin= 5.10D-03
 ErrMax= 5.10D-03  0.00D+00 EMaxC= 1.00D+00 BMatC= 1.40D-02 BMatP= 5.40D-02
 IDIUse=1 WtCom= 1.00D+00 WtEn= 0.00D+00
 Coeff-Com: -0.715D-02 0.480D+00-0.444D+00-0.176D+01 0.273D+01
 Coeff:     -0.715D-02 0.480D+00-0.444D+00-0.176D+01 0.273D+01
 Gap=     0.240 Goal=   None    Shift=    0.500
 T=  633. Gap= 0.740 NK=0 IS=  146 IE=  934 IFin=  145
          NO(<0.9)=   0  NV(>0.1)=   0    145.00e < EF      0.00e >EF  Err=0.0D+00
 Gap=     0.078 Goal=   None    Shift=    0.500
 T=  633. Gap= 0.579 NK=0 IS=  145 IE=  934 IFin=  144
          NO(<0.9)=   0  NV(>0.1)=   0    144.00e < EF      0.00e >EF  Err=0.0D+00
 GapD=    0.078 DampG=0.500 DampE=1.000 DampFc=0.5000 IDamp=-1.
 Damping current iteration by 5.00D-01
 RMSDP=4.66D-04 MaxDP=5.37D-02 DE=-5.04D-02 OVMax= 2.27D-02

 Cycle   6  Pass 1  IDiag  1:
 E= -2293.13160943818     Delta-E=       -0.025159788695 Rises=F Damp=T
 DIIS: error= 4.20D-03 at cycle   6 NSaved=   6.
 NSaved= 6 IEnMin= 6 EnMin= -2293.13160943818     IErMin= 6 ErrMin= 4.20D-03
 ErrMax= 4.20D-03  0.00D+00 EMaxC= 1.00D+00 BMatC= 4.34D-03 BMatP= 1.40D-02
 IDIUse=1 WtCom= 1.00D+00 WtEn= 0.00D+00
 Coeff-Com: -0.267D-01 0.166D+00 0.118D+00-0.764D-01-0.282D+01 0.364D+01
 Coeff:     -0.267D-01 0.166D+00 0.118D+00-0.764D-01-0.282D+01 0.364D+01
 Gap=     0.244 Goal=   None    Shift=    0.500
 T=  460. Gap= 0.744 NK=0 IS=  146 IE=  934 IFin=  145
          NO(<0.9)=   0  NV(>0.1)=   0    145.00e < EF      0.00e >EF  Err=0.0D+00
 Gap=     0.079 Goal=   None    Shift=    0.500
 T=  460. Gap= 0.580 NK=0 IS=  145 IE=  934 IFin=  144
          NO(<0.9)=   0  NV(>0.1)=   0    144.00e < EF      0.00e >EF  Err=0.0D+00
 GapD=    0.079 DampG=0.500 DampE=1.000 DampFc=0.5000 IDamp=-1.
 Damping current iteration by 5.00D-01
 RMSDP=2.93D-04 MaxDP=3.78D-02 DE=-2.52D-02 OVMax= 2.31D-02

 Cycle   7  Pass 1  IDiag  1:
 E= -2293.14473299487     Delta-E=       -0.013123556691 Rises=F Damp=T
 DIIS: error= 3.66D-03 at cycle   7 NSaved=   7.
 NSaved= 7 IEnMin= 7 EnMin= -2293.14473299487     IErMin= 7 ErrMin= 3.66D-03
 ErrMax= 3.66D-03  0.00D+00 EMaxC= 1.00D+00 BMatC= 1.71D-03 BMatP= 4.34D-03
 IDIUse=1 WtCom= 1.00D+00 WtEn= 0.00D+00
 Coeff-Com: -0.579D-02-0.145D+00 0.236D+00 0.734D+00-0.163D+01-0.171D+01
 Coeff-Com:  0.352D+01
 Coeff:     -0.579D-02-0.145D+00 0.236D+00 0.734D+00-0.163D+01-0.171D+01
 Coeff:      0.352D+01
 Gap=     0.245 Goal=   None    Shift=    0.500
 T=  334. Gap= 0.745 NK=0 IS=  146 IE=  934 IFin=  145
          NO(<0.9)=   0  NV(>0.1)=   0    145.00e < EF      0.00e >EF  Err=0.0D+00
 Gap=     0.079 Goal=   None    Shift=    0.500
 T=  334. Gap= 0.580 NK=0 IS=  145 IE=  934 IFin=  144
          NO(<0.9)=   0  NV(>0.1)=   0    144.00e < EF      0.00e >EF  Err=0.0D+00
 GapD=    0.079 DampG=0.500 DampE=1.000 DampFc=0.5000 IDamp=-1.
 Damping current iteration by 5.00D-01
 RMSDP=2.17D-04 MaxDP=2.61D-02 DE=-1.31D-02 OVMax= 2.30D-02

 Cycle   8  Pass 1  IDiag  1:
 E= -2293.15183922866     Delta-E=       -0.007106233785 Rises=F Damp=T
 DIIS: error= 3.27D-03 at cycle   8 NSaved=   8.
 NSaved= 8 IEnMin= 8 EnMin= -2293.15183922866     IErMin= 8 ErrMin= 3.27D-03
 ErrMax= 3.27D-03  0.00D+00 EMaxC= 1.00D+00 BMatC= 8.63D-04 BMatP= 1.71D-03
 IDIUse=1 WtCom= 1.00D+00 WtEn= 0.00D+00
 Coeff-Com:  0.854D-02-0.834D-01-0.203D-01-0.393D-01 0.172D+01-0.171D+01
 Coeff-Com: -0.393D+01 0.506D+01
 Coeff:      0.854D-02-0.834D-01-0.203D-01-0.393D-01 0.172D+01-0.171D+01
 Coeff:     -0.393D+01 0.506D+01
 Gap=     0.247 Goal=   None    Shift=    0.500
 T=  242. Gap= 0.747 NK=0 IS=  146 IE=  934 IFin=  145
          NO(<0.9)=   0  NV(>0.1)=   0    145.00e < EF      0.00e >EF  Err=0.0D+00
 Gap=     0.079 Goal=   None    Shift=    0.500
 T=  242. Gap= 0.579 NK=0 IS=  145 IE=  934 IFin=  144
          NO(<0.9)=   0  NV(>0.1)=   0    144.00e < EF      0.00e >EF  Err=0.0D+00
 GapD=    0.079 DampG=0.500 DampE=1.000 DampFc=0.5000 IDamp=-1.
 Damping current iteration by 5.00D-01
 RMSDP=1.83D-04 MaxDP=1.85D-02 DE=-7.11D-03 OVMax= 2.33D-02

 Cycle   9  Pass 1  IDiag  1:
 E= -2293.15585265520     Delta-E=       -0.004013426542 Rises=F Damp=T
 DIIS: error= 2.96D-03 at cycle   9 NSaved=   9.
 NSaved= 9 IEnMin= 9 EnMin= -2293.15585265520     IErMin= 9 ErrMin= 2.96D-03
 ErrMax= 2.96D-03  0.00D+00 EMaxC= 1.00D+00 BMatC= 5.30D-04 BMatP= 8.63D-04
 IDIUse=1 WtCom= 1.00D+00 WtEn= 0.00D+00
 Coeff-Com:  0.426D-02 0.269D-01-0.471D-01-0.735D+00 0.223D+01-0.181D-01
 Coeff-Com: -0.385D+01-0.221D+00 0.361D+01
 Coeff:      0.426D-02 0.269D-01-0.471D-01-0.735D+00 0.223D+01-0.181D-01
 Coeff:     -0.385D+01-0.221D+00 0.361D+01
 Gap=     0.248 Goal=   None    Shift=    0.500
 T=  172. Gap= 0.748 NK=0 IS=  146 IE=  934 IFin=  145
          NO(<0.9)=   0  NV(>0.1)=   0    145.00e < EF      0.00e >EF  Err=0.0D+00
 Gap=     0.078 Goal=   None    Shift=    0.500
 T=  172. Gap= 0.579 NK=0 IS=  145 IE=  934 IFin=  144
          NO(<0.9)=   0  NV(>0.1)=   0    144.00e < EF      0.00e >EF  Err=0.0D+00
 GapD=    0.078 DampG=0.500 DampE=1.000 DampFc=0.5000 IDamp=-1.
 Damping current iteration by 5.00D-01
 RMSDP=1.54D-04 MaxDP=1.68D-02 DE=-4.01D-03 OVMax= 2.20D-02

 Cycle  10  Pass 1  IDiag  1:
 E= -2293.15823511044     Delta-E=       -0.002382455236 Rises=F Damp=T
 DIIS: error= 2.70D-03 at cycle  10 NSaved=  10.
 NSaved=10 IEnMin=10 EnMin= -2293.15823511044     IErMin=10 ErrMin= 2.70D-03
 ErrMax= 2.70D-03  0.00D+00 EMaxC= 1.00D+00 BMatC= 3.70D-04 BMatP= 5.30D-04
 IDIUse=1 WtCom= 1.00D+00 WtEn= 0.00D+00
 Coeff-Com: -0.752D-02 0.905D-02 0.227D+00-0.606D+00-0.636D+00 0.207D+01
 Coeff-Com:  0.189D+01-0.401D+01-0.424D+01 0.631D+01
 Coeff:     -0.752D-02 0.905D-02 0.227D+00-0.606D+00-0.636D+00 0.207D+01
 Coeff:      0.189D+01-0.401D+01-0.424D+01 0.631D+01
 Gap=     0.250 Goal=   None    Shift=    0.500
 T=  110. Gap= 0.750 NK=0 IS=  146 IE=  934 IFin=  145
          NO(<0.9)=   0  NV(>0.1)=   0    145.00e < EF      0.00e >EF  Err=0.0D+00
 Gap=     0.077 Goal=   None    Shift=    0.500
 T=  110. Gap= 0.578 NK=0 IS=  145 IE=  934 IFin=  144
          NO(<0.9)=   0  NV(>0.1)=   0    144.00e < EF      0.00e >EF  Err=0.0D+00
 GapD=    0.077 DampG=0.500 DampE=1.000 DampFc=0.5000 IDamp=-1.
 Damping current iteration by 5.00D-01
 RMSDP=1.44D-04 MaxDP=1.53D-02 DE=-2.38D-03 OVMax= 2.33D-02

 Cycle  11  Pass 1  IDiag  1:
 E= -2293.15973287001     Delta-E=       -0.001497759570 Rises=F Damp=T
 DIIS: error= 2.47D-03 at cycle  11 NSaved=  11.
 NSaved=11 IEnMin=11 EnMin= -2293.15973287001     IErMin=11 ErrMin= 2.47D-03
 ErrMax= 2.47D-03  0.00D+00 EMaxC= 1.00D+00 BMatC= 2.93D-04 BMatP= 3.70D-04
 IDIUse=1 WtCom= 1.00D+00 WtEn= 0.00D+00
 Coeff-Com: -0.702D-02-0.806D-01 0.390D+00-0.486D+00-0.124D+01 0.195D+01
 Coeff-Com:  0.257D+01-0.249D+01-0.507D+01 0.290D+01 0.255D+01
 Coeff:     -0.702D-02-0.806D-01 0.390D+00-0.486D+00-0.124D+01 0.195D+01
 Coeff:      0.257D+01-0.249D+01-0.507D+01 0.290D+01 0.255D+01
 Gap=     0.250 Goal=   None    Shift=    0.500
 Gap=     0.077 Goal=   None    Shift=    0.500
 GapD=    0.077 DampG=0.500 DampE=1.000 DampFc=0.5000 IDamp=-1.
 Damping current iteration by 5.00D-01
 RMSDP=1.20D-04 MaxDP=1.24D-02 DE=-1.50D-03 OVMax= 2.04D-02

 Cycle  12  Pass 1  IDiag  1:
 E= -2293.16073971986     Delta-E=       -0.001006849851 Rises=F Damp=T
 DIIS: error= 2.23D-03 at cycle  12 NSaved=  12.
 NSaved=12 IEnMin=12 EnMin= -2293.16073971986     IErMin=12 ErrMin= 2.23D-03
 ErrMax= 2.23D-03  0.00D+00 EMaxC= 1.00D+00 BMatC= 2.39D-04 BMatP= 2.93D-04
 IDIUse=1 WtCom= 1.00D+00 WtEn= 0.00D+00
 Large coefficients: NSaved= 12 BigCof=   10.20 CofMax=   10.00 Det=-3.28D-07
 Inversion failed.  Reducing to 11 matrices.
 Coeff-Com: -0.106D+00 0.217D+00-0.267D-01-0.376D+00-0.314D-01-0.542D+00
 Coeff-Com:  0.322D+01-0.146D+01 0.955D+00-0.999D+01 0.914D+01
 Coeff:     -0.106D+00 0.217D+00-0.267D-01-0.376D+00-0.314D-01-0.542D+00
 Coeff:      0.322D+01-0.146D+01 0.955D+00-0.999D+01 0.914D+01
 Gap=     0.252 Goal=   None    Shift=    0.500
 Gap=     0.075 Goal=   None    Shift=    0.500
 GapD=    0.075 DampG=0.500 DampE=1.000 DampFc=0.5000 IDamp=-1.
 Damping current iteration by 5.00D-01
 RMSDP=1.20D-04 MaxDP=1.33D-02 DE=-1.01D-03 OVMax= 2.27D-02

 Cycle  13  Pass 1  IDiag  1:
 E= -2293.16144242682     Delta-E=       -0.000702706961 Rises=F Damp=T
 DIIS: error= 2.03D-03 at cycle  13 NSaved=  12.
 NSaved=12 IEnMin=12 EnMin= -2293.16144242682     IErMin=12 ErrMin= 2.03D-03
 ErrMax= 2.03D-03  0.00D+00 EMaxC= 1.00D+00 BMatC= 2.25D-04 BMatP= 2.39D-04
 IDIUse=1 WtCom= 1.00D+00 WtEn= 0.00D+00
 Large coefficients: NSaved= 12 BigCof=   11.09 CofMax=   10.00 Det=-2.96D-07
 Inversion failed.  Reducing to 11 matrices.
 Large coefficients: NSaved= 11 BigCof=   12.13 CofMax=   10.00 Det=-3.27D-07
 Inversion failed.  Reducing to 10 matrices.
 Large coefficients: NSaved= 10 BigCof=   13.30 CofMax=   10.00 Det=-4.53D-07
 Inversion failed.  Reducing to  9 matrices.
 Large coefficients: NSaved=  9 BigCof=   13.14 CofMax=   10.00 Det=-4.54D-07
 Inversion failed.  Reducing to  8 matrices.
 Large coefficients: NSaved=  8 BigCof=   12.51 CofMax=   10.00 Det=-5.02D-07
 Inversion failed.  Reducing to  7 matrices.
 Large coefficients: NSaved=  7 BigCof=   12.22 CofMax=   10.00 Det=-5.27D-07
 Inversion failed.  Reducing to  6 matrices.
 Large coefficients: NSaved=  6 BigCof=   11.21 CofMax=   10.00 Det=-5.42D-07
 Inversion failed.  Reducing to  5 matrices.
 Large coefficients: NSaved=  5 BigCof=   10.95 CofMax=   10.00 Det=-5.93D-07
 Inversion failed.  Reducing to  4 matrices.
 Large coefficients: NSaved=  4 BigCof=   11.03 CofMax=   10.00 Det=-5.93D-07
 Inversion failed.  Reducing to  3 matrices.
 Coeff-Com: -0.349D+01 0.549D+01-0.101D+01
 Coeff:     -0.349D+01 0.549D+01-0.101D+01
 Gap=     0.250 Goal=   None    Shift=    0.500
 Gap=     0.078 Goal=   None    Shift=    0.500
 GapD=    0.078 DampG=0.500 DampE=1.000 DampFc=0.5000 IDamp=-1.
 Damping current iteration by 5.00D-01
 RMSDP=6.70D-05 MaxDP=6.13D-03 DE=-7.03D-04 OVMax= 1.13D-02

 Cycle  14  Pass 1  IDiag  1:
 E= -2293.16197940041     Delta-E=       -0.000536973586 Rises=F Damp=T
 DIIS: error= 1.75D-03 at cycle  14 NSaved=   4.
 NSaved= 4 IEnMin= 4 EnMin= -2293.16197940041     IErMin= 4 ErrMin= 1.75D-03
 ErrMax= 1.75D-03  0.00D+00 EMaxC= 1.00D+00 BMatC= 1.43D-04 BMatP= 2.25D-04
 IDIUse=1 WtCom= 1.00D+00 WtEn= 0.00D+00
 Coeff-Com: -0.174D+01 0.190D+01-0.115D+01 0.200D+01
 Coeff:     -0.174D+01 0.190D+01-0.115D+01 0.200D+01
 Gap=     0.253 Goal=   None    Shift=    0.500
 Gap=     0.077 Goal=   None    Shift=    0.500
 GapD=    0.077 DampG=0.500 DampE=1.000 DampFc=0.5000 IDamp=-1.
 Damping current iteration by 5.00D-01
 RMSDP=6.94D-05 MaxDP=6.48D-03 DE=-5.37D-04 OVMax= 1.42D-02

 Cycle  15  Pass 1  IDiag  1:
 E= -2293.16235107819     Delta-E=       -0.000371677787 Rises=F Damp=T
 DIIS: error= 1.56D-03 at cycle  15 NSaved=   5.
 NSaved= 5 IEnMin= 5 EnMin= -2293.16235107819     IErMin= 5 ErrMin= 1.56D-03
 ErrMax= 1.56D-03  0.00D+00 EMaxC= 1.00D+00 BMatC= 1.19D-04 BMatP= 1.43D-04
 IDIUse=1 WtCom= 1.00D+00 WtEn= 0.00D+00
 Coeff-Com:  0.334D+01-0.459D+01-0.520D+00-0.437D+01 0.715D+01
 Coeff:      0.334D+01-0.459D+01-0.520D+00-0.437D+01 0.715D+01
 Gap=     0.254 Goal=   None    Shift=    0.500
 Gap=     0.074 Goal=   None    Shift=    0.500
 GapD=    0.074 DampG=0.500 DampE=1.000 DampFc=0.5000 IDamp=-1.
 Damping current iteration by 5.00D-01
 RMSDP=8.79D-05 MaxDP=7.74D-03 DE=-3.72D-04 OVMax= 1.88D-02

 Cycle  16  Pass 1  IDiag  1:
 E= -2293.16263153643     Delta-E=       -0.000280458241 Rises=F Damp=T
 DIIS: error= 1.45D-03 at cycle  16 NSaved=   6.
 NSaved= 6 IEnMin= 6 EnMin= -2293.16263153643     IErMin= 6 ErrMin= 1.45D-03
 ErrMax= 1.45D-03  0.00D+00 EMaxC= 1.00D+00 BMatC= 1.31D-04 BMatP= 1.19D-04
 IDIUse=1 WtCom= 1.00D+00 WtEn= 0.00D+00
 Coeff-Com:  0.276D+01-0.256D+01-0.265D+01-0.239D+01 0.365D+01 0.218D+01
 Coeff:      0.276D+01-0.256D+01-0.265D+01-0.239D+01 0.365D+01 0.218D+01
 Gap=     0.254 Goal=   None    Shift=    0.500
 Gap=     0.074 Goal=   None    Shift=    0.500
 GapD=    0.074 DampG=0.500 DampE=1.000 DampFc=0.5000 IDamp=-1.
 Damping current iteration by 5.00D-01
 RMSDP=7.90D-05 MaxDP=6.77D-03 DE=-2.80D-04 OVMax= 1.61D-02

 Cycle  17  Pass 1  IDiag  1:
 E= -2293.16286559886     Delta-E=       -0.000234062422 Rises=F Damp=T
 DIIS: error= 1.33D-03 at cycle  17 NSaved=   7.
 NSaved= 7 IEnMin= 7 EnMin= -2293.16286559886     IErMin= 7 ErrMin= 1.33D-03
 ErrMax= 1.33D-03  0.00D+00 EMaxC= 1.00D+00 BMatC= 1.39D-04 BMatP= 1.19D-04
 IDIUse=1 WtCom= 1.00D+00 WtEn= 0.00D+00
 Coeff-Com:  0.145D+01-0.441D+00-0.321D+01-0.773D+00 0.356D+01-0.323D+01
 Coeff-Com:  0.365D+01
 Coeff:      0.145D+01-0.441D+00-0.321D+01-0.773D+00 0.356D+01-0.323D+01
 Coeff:      0.365D+01
 Gap=     0.255 Goal=   None    Shift=    0.500
 Gap=     0.074 Goal=   None    Shift=    0.500
 GapD=    0.074 DampG=0.500 DampE=1.000 DampFc=0.5000 IDamp=-1.
 Damping current iteration by 5.00D-01
 RMSDP=6.63D-05 MaxDP=5.45D-03 DE=-2.34D-04 OVMax= 1.38D-02

 Cycle  18  Pass 1  IDiag  1:
 E= -2293.16306106894     Delta-E=       -0.000195470081 Rises=F Damp=T
 DIIS: error= 1.19D-03 at cycle  18 NSaved=   8.
 NSaved= 8 IEnMin= 8 EnMin= -2293.16306106894     IErMin= 8 ErrMin= 1.19D-03
 ErrMax= 1.19D-03  0.00D+00 EMaxC= 1.00D+00 BMatC= 1.29D-04 BMatP= 1.19D-04
 IDIUse=1 WtCom= 1.00D+00 WtEn= 0.00D+00
 Coeff-Com:  0.409D+00-0.473D-01-0.107D+01-0.103D+01 0.397D+01-0.227D+01
 Coeff-Com: -0.480D+01 0.584D+01
 Coeff:      0.409D+00-0.473D-01-0.107D+01-0.103D+01 0.397D+01-0.227D+01
 Coeff:     -0.480D+01 0.584D+01
 Gap=     0.255 Goal=   None    Shift=    0.500
 Gap=     0.073 Goal=   None    Shift=    0.500
 GapD=    0.073 DampG=0.500 DampE=1.000 DampFc=0.5000 IDamp=-1.
 Damping current iteration by 5.00D-01
 RMSDP=5.66D-05 MaxDP=4.81D-03 DE=-1.95D-04 OVMax= 1.23D-02

 Cycle  19  Pass 1  IDiag  1:
 E= -2293.16321811025     Delta-E=       -0.000157041316 Rises=F Damp=T
 DIIS: error= 1.05D-03 at cycle  19 NSaved=   9.
 NSaved= 9 IEnMin= 9 EnMin= -2293.16321811025     IErMin= 9 ErrMin= 1.05D-03
 ErrMax= 1.05D-03  0.00D+00 EMaxC= 1.00D+00 BMatC= 1.09D-04 BMatP= 1.19D-04
 IDIUse=1 WtCom= 1.00D+00 WtEn= 0.00D+00
 Coeff-Com:  0.532D+00-0.904D+00 0.503D+00-0.234D+01 0.366D+01 0.105D+01
 Coeff-Com: -0.409D+01-0.345D+01 0.604D+01
 Coeff:      0.532D+00-0.904D+00 0.503D+00-0.234D+01 0.366D+01 0.105D+01
 Coeff:     -0.409D+01-0.345D+01 0.604D+01
 Gap=     0.255 Goal=   None    Shift=    0.500
 Gap=     0.073 Goal=   None    Shift=    0.500
 GapD=    0.073 DampG=0.500 DampE=1.000 DampFc=0.5000 IDamp=-1.
 Damping current iteration by 5.00D-01
 RMSDP=5.17D-05 MaxDP=4.67D-03 DE=-1.57D-04 OVMax= 1.14D-02

 Cycle  20  Pass 1  IDiag  1:
 E= -2293.16333849170     Delta-E=       -0.000120381451 Rises=F Damp=T
 DIIS: error= 9.21D-04 at cycle  20 NSaved=  10.
 NSaved=10 IEnMin=10 EnMin= -2293.16333849170     IErMin=10 ErrMin= 9.21D-04
 ErrMax= 9.21D-04  0.00D+00 EMaxC= 1.00D+00 BMatC= 9.46D-05 BMatP= 1.09D-04
 IDIUse=1 WtCom= 1.00D+00 WtEn= 0.00D+00
 Coeff-Com:  0.524D+00-0.279D+00-0.509D+00-0.211D+01 0.278D+01 0.928D+00
 Coeff-Com:  0.138D+01-0.774D+01 0.304D+01 0.297D+01
 Coeff:      0.524D+00-0.279D+00-0.509D+00-0.211D+01 0.278D+01 0.928D+00
 Coeff:      0.138D+01-0.774D+01 0.304D+01 0.297D+01
 Gap=     0.255 Goal=   None    Shift=    0.500
 Gap=     0.073 Goal=   None    Shift=    0.500
 RMSDP=4.30D-05 MaxDP=3.82D-03 DE=-1.20D-04 OVMax= 9.54D-03

 Cycle  21  Pass 1  IDiag  1:
 E= -2293.16357000540     Delta-E=       -0.000231513699 Rises=F Damp=F
 DIIS: error= 6.77D-04 at cycle  21 NSaved=  11.
 NSaved=11 IEnMin=11 EnMin= -2293.16357000540     IErMin=11 ErrMin= 6.77D-04
 ErrMax= 6.77D-04  0.00D+00 EMaxC= 1.00D+00 BMatC= 6.33D-05 BMatP= 9.46D-05
 IDIUse=1 WtCom= 1.00D+00 WtEn= 0.00D+00
 Coeff-Com:  0.661D+00-0.211D+00-0.122D+01-0.130D+01 0.210D+01-0.503D+00
 Coeff-Com:  0.435D+01-0.573D+01 0.175D+01-0.139D+01 0.249D+01
 Coeff:      0.661D+00-0.211D+00-0.122D+01-0.130D+01 0.210D+01-0.503D+00
 Coeff:      0.435D+01-0.573D+01 0.175D+01-0.139D+01 0.249D+01
 Gap=     0.255 Goal=   None    Shift=    0.500
 Gap=     0.072 Goal=   None    Shift=    0.500
 RMSDP=1.34D-05 MaxDP=1.15D-03 DE=-2.32D-04 OVMax= 7.96D-03

 Cycle  22  Pass 1  IDiag  1:
 E= -2293.16360715446     Delta-E=       -0.000037149061 Rises=F Damp=F
 DIIS: error= 5.78D-04 at cycle  22 NSaved=  12.
 NSaved=12 IEnMin=12 EnMin= -2293.16360715446     IErMin=12 ErrMin= 5.78D-04
 ErrMax= 5.78D-04  0.00D+00 EMaxC= 1.00D+00 BMatC= 4.71D-05 BMatP= 6.33D-05
 IDIUse=1 WtCom= 1.00D+00 WtEn= 0.00D+00
 Coeff-Com:  0.543D+00-0.533D+00-0.594D+00-0.623D+00 0.173D+01-0.114D+01
 Coeff-Com:  0.125D+01 0.291D+00 0.157D+01-0.476D+01 0.935D+00 0.234D+01
 Coeff:      0.543D+00-0.533D+00-0.594D+00-0.623D+00 0.173D+01-0.114D+01
 Coeff:      0.125D+01 0.291D+00 0.157D+01-0.476D+01 0.935D+00 0.234D+01
 Gap=     0.256 Goal=   None    Shift=    0.500
 Gap=     0.072 Goal=   None    Shift=    0.500
 RMSDP=1.13D-05 MaxDP=9.44D-04 DE=-3.71D-05 OVMax= 6.77D-03

 Cycle  23  Pass 1  IDiag  1:
 E= -2293.16363320221     Delta-E=       -0.000026047745 Rises=F Damp=F
 DIIS: error= 4.88D-04 at cycle  23 NSaved=  13.
 NSaved=13 IEnMin=13 EnMin= -2293.16363320221     IErMin=13 ErrMin= 4.88D-04
 ErrMax= 4.88D-04  0.00D+00 EMaxC= 1.00D+00 BMatC= 3.42D-05 BMatP= 4.71D-05
 IDIUse=1 WtCom= 1.00D+00 WtEn= 0.00D+00
 Coeff-Com:  0.450D+00-0.739D+00 0.907D-01-0.777D+00 0.164D+01-0.288D+00
 Coeff-Com: -0.145D+01 0.129D+01 0.140D+01-0.208D+01-0.689D+00-0.589D+00
 Coeff-Com:  0.274D+01
 Coeff:      0.450D+00-0.739D+00 0.907D-01-0.777D+00 0.164D+01-0.288D+00
 Coeff:     -0.145D+01 0.129D+01 0.140D+01-0.208D+01-0.689D+00-0.589D+00
 Coeff:      0.274D+01
 Gap=     0.256 Goal=   None    Shift=    0.500
 Gap=     0.072 Goal=   None    Shift=    0.500
 RMSDP=9.28D-06 MaxDP=7.49D-04 DE=-2.60D-05 OVMax= 5.73D-03

 Cycle  24  Pass 1  IDiag  1:
 E= -2293.16365097839     Delta-E=       -0.000017776182 Rises=F Damp=F
 DIIS: error= 4.12D-04 at cycle  24 NSaved=  14.
 NSaved=14 IEnMin=14 EnMin= -2293.16365097839     IErMin=14 ErrMin= 4.12D-04
 ErrMax= 4.12D-04  0.00D+00 EMaxC= 1.00D+00 BMatC= 2.55D-05 BMatP= 3.42D-05
 IDIUse=1 WtCom= 1.00D+00 WtEn= 0.00D+00
 Coeff-Com:  0.251D+00-0.441D+00 0.270D+00-0.964D+00 0.133D+01 0.691D+00
 Coeff-Com: -0.159D+01-0.148D+01 0.118D+01 0.217D+01-0.942D+00-0.309D+01
 Coeff-Com:  0.117D+01 0.246D+01
 Coeff:      0.251D+00-0.441D+00 0.270D+00-0.964D+00 0.133D+01 0.691D+00
 Coeff:     -0.159D+01-0.148D+01 0.118D+01 0.217D+01-0.942D+00-0.309D+01
 Coeff:      0.117D+01 0.246D+01
 Gap=     0.256 Goal=   None    Shift=    0.500
 Gap=     0.072 Goal=   None    Shift=    0.500
 RMSDP=7.88D-06 MaxDP=6.35D-04 DE=-1.78D-05 OVMax= 4.86D-03

 Cycle  25  Pass 1  IDiag  1:
 E= -2293.16366368392     Delta-E=       -0.000012705525 Rises=F Damp=F
 DIIS: error= 3.43D-04 at cycle  25 NSaved=  15.
 NSaved=15 IEnMin=15 EnMin= -2293.16366368392     IErMin=15 ErrMin= 3.43D-04
 ErrMax= 3.43D-04  0.00D+00 EMaxC= 1.00D+00 BMatC= 1.80D-05 BMatP= 2.55D-05
 IDIUse=1 WtCom= 1.00D+00 WtEn= 0.00D+00
 Coeff-Com:  0.146D+00 0.157D+00-0.538D+00-0.575D+00 0.778D+00-0.676D-01
 Coeff-Com:  0.212D+01-0.367D+01 0.683D+00 0.130D+01 0.765D+00-0.893D+00
 Coeff-Com: -0.181D+01-0.424D+00 0.304D+01
 Coeff:      0.146D+00 0.157D+00-0.538D+00-0.575D+00 0.778D+00-0.676D-01
 Coeff:      0.212D+01-0.367D+01 0.683D+00 0.130D+01 0.765D+00-0.893D+00
 Coeff:     -0.181D+01-0.424D+00 0.304D+01
 Gap=     0.256 Goal=   None    Shift=    0.500
 Gap=     0.072 Goal=   None    Shift=    0.500
 RMSDP=6.23D-06 MaxDP=4.84D-04 DE=-1.27D-05 OVMax= 3.96D-03

 Cycle  26  Pass 1  IDiag  1:
 E= -2293.16367253214     Delta-E=       -0.000008848225 Rises=F Damp=F
 DIIS: error= 2.85D-04 at cycle  26 NSaved=  16.
 NSaved=16 IEnMin=16 EnMin= -2293.16367253214     IErMin=16 ErrMin= 2.85D-04
 ErrMax= 2.85D-04  0.00D+00 EMaxC= 1.00D+00 BMatC= 1.18D-05 BMatP= 1.80D-05
 IDIUse=1 WtCom= 1.00D+00 WtEn= 0.00D+00
 Coeff-Com:  0.168D+00 0.113D+00-0.614D+00-0.344D+00 0.655D+00-0.730D+00
 Coeff-Com:  0.277D+01-0.228D+01 0.311D+00-0.916D+00 0.138D+01 0.937D+00
 Coeff-Com: -0.189D+01-0.155D+01 0.855D+00 0.212D+01
 Coeff:      0.168D+00 0.113D+00-0.614D+00-0.344D+00 0.655D+00-0.730D+00
 Coeff:      0.277D+01-0.228D+01 0.311D+00-0.916D+00 0.138D+01 0.937D+00
 Coeff:     -0.189D+01-0.155D+01 0.855D+00 0.212D+01
 Gap=     0.256 Goal=   None    Shift=    0.500
 Gap=     0.072 Goal=   None    Shift=    0.500
 RMSDP=4.84D-06 MaxDP=3.41D-04 DE=-8.85D-06 OVMax= 3.25D-03

 Cycle  27  Pass 1  IDiag  1:
 E= -2293.16367844870     Delta-E=       -0.000005916558 Rises=F Damp=F
 DIIS: error= 2.37D-04 at cycle  27 NSaved=  17.
 NSaved=17 IEnMin=17 EnMin= -2293.16367844870     IErMin=17 ErrMin= 2.37D-04
 ErrMax= 2.37D-04  0.00D+00 EMaxC= 1.00D+00 BMatC= 8.20D-06 BMatP= 1.18D-05
 IDIUse=1 WtCom= 1.00D+00 WtEn= 0.00D+00
 Coeff-Com:  0.131D+00-0.190D+00-0.802D-01-0.150D+00 0.574D+00-0.662D+00
 Coeff-Com:  0.294D+00 0.103D+01 0.157D+00-0.217D+01 0.650D+00 0.972D+00
 Coeff-Com:  0.290D+00-0.470D+00-0.220D+01 0.571D-01 0.277D+01
 Coeff:      0.131D+00-0.190D+00-0.802D-01-0.150D+00 0.574D+00-0.662D+00
 Coeff:      0.294D+00 0.103D+01 0.157D+00-0.217D+01 0.650D+00 0.972D+00
 Coeff:      0.290D+00-0.470D+00-0.220D+01 0.571D-01 0.277D+01
 Gap=     0.256 Goal=   None    Shift=    0.500
 Gap=     0.072 Goal=   None    Shift=    0.500
 RMSDP=4.08D-06 MaxDP=3.09D-04 DE=-5.92D-06 OVMax= 2.71D-03

 Cycle  28  Pass 1  IDiag  1:
 E= -2293.16368259310     Delta-E=       -0.000004144403 Rises=F Damp=F
 DIIS: error= 1.97D-04 at cycle  28 NSaved=  18.
 NSaved=18 IEnMin=18 EnMin= -2293.16368259310     IErMin=18 ErrMin= 1.97D-04
 ErrMax= 1.97D-04  0.00D+00 EMaxC= 1.00D+00 BMatC= 5.79D-06 BMatP= 8.20D-06
 IDIUse=1 WtCom= 1.00D+00 WtEn= 0.00D+00
 Coeff-Com:  0.687D-01-0.145D+00 0.589D-01-0.189D+00 0.500D+00-0.199D+00
 Coeff-Com: -0.705D+00 0.952D+00 0.125D+00-0.632D+00-0.103D+00-0.398D+00
 Coeff-Com:  0.115D+01 0.598D+00-0.141D+01-0.137D+01 0.257D+00 0.245D+01
 Coeff:      0.687D-01-0.145D+00 0.589D-01-0.189D+00 0.500D+00-0.199D+00
 Coeff:     -0.705D+00 0.952D+00 0.125D+00-0.632D+00-0.103D+00-0.398D+00
 Coeff:      0.115D+01 0.598D+00-0.141D+01-0.137D+01 0.257D+00 0.245D+01
 Gap=     0.256 Goal=   None    Shift=    0.500
 Gap=     0.072 Goal=   None    Shift=    0.500
 RMSDP=3.38D-06 MaxDP=2.69D-04 DE=-4.14D-06 OVMax= 2.27D-03

 Cycle  29  Pass 1  IDiag  1:
 E= -2293.16368557005     Delta-E=       -0.000002976951 Rises=F Damp=F
 DIIS: error= 1.64D-04 at cycle  29 NSaved=  19.
 NSaved=19 IEnMin=19 EnMin= -2293.16368557005     IErMin=19 ErrMin= 1.64D-04
 ErrMax= 1.64D-04  0.00D+00 EMaxC= 1.00D+00 BMatC= 3.97D-06 BMatP= 5.79D-06
 IDIUse=1 WtCom= 1.00D+00 WtEn= 0.00D+00
 Coeff-Com:  0.376D-01 0.660D-01-0.171D+00-0.186D+00 0.359D+00-0.148D+00
 Coeff-Com:  0.260D+00-0.482D+00 0.125D+00 0.278D+00 0.351D-01-0.599D+00
 Coeff-Com:  0.234D+00 0.232D+00 0.499D+00-0.610D+00-0.909D+00-0.831D+00
 Coeff-Com:  0.281D+01
 Coeff:      0.376D-01 0.660D-01-0.171D+00-0.186D+00 0.359D+00-0.148D+00
 Coeff:      0.260D+00-0.482D+00 0.125D+00 0.278D+00 0.351D-01-0.599D+00
 Coeff:      0.234D+00 0.232D+00 0.499D+00-0.610D+00-0.909D+00-0.831D+00
 Coeff:      0.281D+01
 Gap=     0.256 Goal=   None    Shift=    0.500
 Gap=     0.072 Goal=   None    Shift=    0.500
 RMSDP=2.75D-06 MaxDP=2.54D-04 DE=-2.98D-06 OVMax= 1.86D-03

 Cycle  30  Pass 1  IDiag  1:
 E= -2293.16368767233     Delta-E=       -0.000002102282 Rises=F Damp=F
 DIIS: error= 1.35D-04 at cycle  30 NSaved=  20.
 NSaved=20 IEnMin=20 EnMin= -2293.16368767233     IErMin=20 ErrMin= 1.35D-04
 ErrMax= 1.35D-04  0.00D+00 EMaxC= 1.00D+00 BMatC= 2.61D-06 BMatP= 3.97D-06
 IDIUse=1 WtCom= 1.00D+00 WtEn= 0.00D+00
 Coeff-Com:  0.284D-01 0.135D+00-0.288D+00-0.106D+00 0.257D+00-0.399D+00
 Coeff-Com:  0.110D+01-0.828D+00 0.842D-01-0.216D+00 0.490D+00 0.833D-01
 Coeff-Com: -0.590D+00-0.453D+00 0.796D+00 0.548D+00-0.111D+00-0.277D+01
 Coeff-Com:  0.148D+01 0.175D+01
 Coeff:      0.284D-01 0.135D+00-0.288D+00-0.106D+00 0.257D+00-0.399D+00
 Coeff:      0.110D+01-0.828D+00 0.842D-01-0.216D+00 0.490D+00 0.833D-01
 Coeff:     -0.590D+00-0.453D+00 0.796D+00 0.548D+00-0.111D+00-0.277D+01
 Coeff:      0.148D+01 0.175D+01
 Gap=     0.256 Goal=   None    Shift=    0.500
 Gap=     0.072 Goal=   None    Shift=    0.500
 RMSDP=2.15D-06 MaxDP=1.92D-04 DE=-2.10D-06 OVMax= 1.48D-03

 Cycle  31  Pass 1  IDiag  1:
 E= -2293.16368909730     Delta-E=       -0.000001424965 Rises=F Damp=F
 DIIS: error= 1.12D-04 at cycle  31 NSaved=  20.
 NSaved=20 IEnMin=20 EnMin= -2293.16368909730     IErMin=20 ErrMin= 1.12D-04
 ErrMax= 1.12D-04  0.00D+00 EMaxC= 1.00D+00 BMatC= 1.64D-06 BMatP= 2.61D-06
 IDIUse=1 WtCom= 1.00D+00 WtEn= 0.00D+00
 Coeff-Com:  0.548D-01-0.106D+00-0.249D-01 0.117D+00-0.275D+00 0.474D+00
 Coeff-Com: -0.592D-01 0.393D-01-0.567D+00 0.415D+00 0.257D+00-0.285D+00
 Coeff-Com: -0.225D+00-0.276D+00 0.365D+00 0.866D+00-0.694D+00-0.559D+00
 Coeff-Com: -0.192D+01 0.340D+01
 Coeff:      0.548D-01-0.106D+00-0.249D-01 0.117D+00-0.275D+00 0.474D+00
 Coeff:     -0.592D-01 0.393D-01-0.567D+00 0.415D+00 0.257D+00-0.285D+00
 Coeff:     -0.225D+00-0.276D+00 0.365D+00 0.866D+00-0.694D+00-0.559D+00
 Coeff:     -0.192D+01 0.340D+01
 Gap=     0.255 Goal=   None    Shift=    0.500
 Gap=     0.072 Goal=   None    Shift=    0.500
 RMSDP=2.05D-06 MaxDP=1.99D-04 DE=-1.42D-06 OVMax= 1.25D-03

 Cycle  32  Pass 1  IDiag  1:
 E= -2293.16369004420     Delta-E=       -0.000000946901 Rises=F Damp=F
 DIIS: error= 9.37D-05 at cycle  32 NSaved=  20.
 NSaved=20 IEnMin=20 EnMin= -2293.16369004420     IErMin=20 ErrMin= 9.37D-05
 ErrMax= 9.37D-05  0.00D+00 EMaxC= 1.00D+00 BMatC= 1.20D-06 BMatP= 1.64D-06
 IDIUse=1 WtCom= 1.00D+00 WtEn= 0.00D+00
 Coeff-Com: -0.134D-02-0.390D-01 0.127D+00-0.111D+00-0.195D+00 0.426D+00
 Coeff-Com:  0.139D+00-0.580D+00 0.170D+00-0.279D-01 0.307D+00 0.166D+00
 Coeff-Com: -0.774D+00-0.275D+00 0.757D+00 0.909D+00-0.487D+00-0.309D+01
 Coeff-Com:  0.186D+01 0.172D+01
 Coeff:     -0.134D-02-0.390D-01 0.127D+00-0.111D+00-0.195D+00 0.426D+00
 Coeff:      0.139D+00-0.580D+00 0.170D+00-0.279D-01 0.307D+00 0.166D+00
 Coeff:     -0.774D+00-0.275D+00 0.757D+00 0.909D+00-0.487D+00-0.309D+01
 Coeff:      0.186D+01 0.172D+01
 Gap=     0.255 Goal=   None    Shift=    0.500
 Gap=     0.072 Goal=   None    Shift=    0.500
 RMSDP=1.63D-06 MaxDP=1.57D-04 DE=-9.47D-07 OVMax= 1.01D-03

 >>>>>>>>>> Convergence criterion not met.
 SCF Done:  E(ULC-wHPBE) =  -2293.16369004     A.U. after   33 cycles
            NFock= 32  Conv=0.16D-05     -V/T= 2.0039
 <Sx>= 0.0000 <Sy>= 0.0000 <Sz>= 0.5000 <S**2>= 0.7676 S= 0.5087
 <L.S>= 0.000000000000E+00
 KE= 2.284247593382D+03 PE=-1.413015504309D+04 EE= 5.157601597713D+03
 Annihilation of the first spin contaminant:
 S**2 before annihilation     0.7676,   after     0.7503
 Leave Link  502 at Thu Jan 28 23:52:32 2021, MaxMem=  4026531840 cpu:           37158.0 elap:            4688.1
 (Enter /opt/ohpc/pub/libs/gaussian/g16-A.03/sandybridge/g16/l508.exe)
 Integral symmetry usage will be decided dynamically.
 Tight linear equation convergence will be used.
 ULC-wHPBE wavefunction.
 Quadratic Convergence SCF Method.
 Line search only if initial step raises energy.
 FoFJK:  IHMeth= 1 ICntrl=       0 DoSepK=T KAlg= 0 I1Cent=           0 FoldK=F
 IRaf=         1 NMat=       1 IRICut=       1 DoRegI=T DoRafI=F ISym2E= 1 IDoP0=0 IntGTp=1.
 FoFCou: FMM=T IPFlag=           0 FMFlag=      100000 FMFlg1=        2001
         NFxFlg=           0 DoJE=T BraDBF=F KetDBF=F FulRan=T
         wScrn=  0.000000 ICntrl=       500 IOpCl=  0 I1Cent=           0 NGrid=           0
         NMat0=    1 NMatS0=      1 NMatT0=    0 NMatD0=    1 NMtDS0=    0 NMtDT0=    0
 Petite list used in FoFCou.
 FMM levels:  10  Number of levels for PrismC:   9
 Iteration   1 EE= -2293.16369072392                                    Grad=6.384D-04 Max rot=    0.0157 deg.
 QCNR:  CnvC1=6.38D-09 CnvC2=6.38D-08
 LinEq1:  Iter=  0 NonCon=     1 RMS=6.05D-06 Max=2.01D-03 NDo=     1
 AX will form     1 AO Fock derivatives at one time.
 LinEq1:  Iter=  1 NonCon=     1 RMS=4.04D-06 Max=5.21D-04 NDo=     1
 LinEq1:  Iter=  2 NonCon=     1 RMS=4.65D-06 Max=1.34D-03 NDo=     1
 LinEq1:  Iter=  3 NonCon=     1 RMS=2.83D-06 Max=3.24D-04 NDo=     1
 LinEq1:  Iter=  4 NonCon=     1 RMS=2.72D-06 Max=3.65D-04 NDo=     1
 LinEq1:  Iter=  5 NonCon=     1 RMS=1.73D-06 Max=1.55D-04 NDo=     1
 LinEq1:  Iter=  6 NonCon=     1 RMS=1.03D-06 Max=1.40D-04 NDo=     1
 LinEq1:  Iter=  7 NonCon=     1 RMS=5.99D-07 Max=5.91D-05 NDo=     1
 LinEq1:  Iter=  8 NonCon=     1 RMS=2.90D-07 Max=4.17D-05 NDo=     1
 LinEq1:  Iter=  9 NonCon=     1 RMS=1.62D-07 Max=1.30D-05 NDo=     1
 LinEq1:  Iter= 10 NonCon=     1 RMS=1.02D-07 Max=1.29D-05 NDo=     1
 LinEq1:  Iter= 11 NonCon=     1 RMS=5.42D-08 Max=6.11D-06 NDo=     1
 LinEq1:  Iter= 12 NonCon=     1 RMS=3.03D-08 Max=2.86D-06 NDo=     1
 LinEq1:  Iter= 13 NonCon=     1 RMS=1.66D-08 Max=1.32D-06 NDo=     1
 LinEq1:  Iter= 14 NonCon=     1 RMS=9.13D-09 Max=1.04D-06 NDo=     1
 LinEq1:  Iter= 15 NonCon=     1 RMS=4.54D-09 Max=4.49D-07 NDo=     1
 LinEq1:  Iter= 16 NonCon=     1 RMS=2.63D-09 Max=2.34D-07 NDo=     1
 LinEq1:  Iter= 17 NonCon=     1 RMS=1.57D-09 Max=1.94D-07 NDo=     1
 LinEq1:  Iter= 18 NonCon=     1 RMS=8.78D-10 Max=7.86D-08 NDo=     1
 LinEq1:  Iter= 19 NonCon=     0 RMS=5.35D-10 Max=4.64D-08 NDo=     1
 Linear equations converged to 6.384D-09 6.384D-08 after    19 iterations.
 Angle between quadratic step and gradient=  95.33 degrees.
 Incorrect curvature in search direction -- initial direction reversed.
     ILin= 1 X=0.000D+00 Y=-2.293163690724D+03 DE= 0.00D+00 F= -1.54D-06
     ILin= 2 X=1.000D+00 Y=-2.293163693009D+03 DE=-2.28D-06 F= -3.01D-06
     ILin= 3 X=2.000D+00 Y=-2.293163696684D+03 DE=-5.96D-06 F= -4.32D-06
     ILin= 4 X=4.000D+00 Y=-2.293163707533D+03 DE=-1.68D-05 F= -6.41D-06
     ILin= 5 X=8.000D+00 Y=-2.293163737476D+03 DE=-4.68D-05 F= -7.90D-06
     ILin= 6 X=1.600D+01 Y=-2.293163766211D+03 DE=-7.55D-05 F=  4.94D-06
     ILin= 7 X=3.200D+01 Y=-2.293162823422D+03 DE= 8.67D-04 F=  1.46D-04
     An  expanding polynomial of degree  7 produced 14.3087
 Iteration   2 EE= -2293.16377019976     Delta-E=       -0.000079475843 Grad=1.075D-02 Max rot=    0.2510 deg.
 Gradient too large for Newton-Raphson -- use scaled steepest descent instead.
     ILin= 1 X=0.000D+00 Y=-2.293163770200D+03 DE= 0.00D+00 F= -2.11D-04
     ILin= 2 X=3.000D-01 Y=-2.293163823791D+03 DE=-5.36D-05 F= -1.46D-04
     ILin= 3 X=6.000D-01 Y=-2.293163857914D+03 DE=-8.77D-05 F= -8.13D-05
     ILin= 4 X=1.200D+00 Y=-2.293163867840D+03 DE=-9.76D-05 F=  4.82D-05
     Accept linear search using points  3 and  4.
     An  expanding polynomial of degree  4 produced  0.9314
 Iteration   3 EE= -2293.16387300230     Delta-E=       -0.000102802541 Grad=6.042D-03 Max rot=    0.1648 deg.
 QCNR:  CnvC1=6.04D-08 CnvC2=6.04D-07
 LinEq1:  Iter=  0 NonCon=     1 RMS=5.23D-05 Max=2.04D-02 NDo=     1
 LinEq1:  Iter=  1 NonCon=     1 RMS=2.57D-05 Max=7.38D-03 NDo=     1
 LinEq1:  Iter=  2 NonCon=     1 RMS=2.31D-05 Max=3.41D-03 NDo=     1
 LinEq1:  Iter=  3 NonCon=     1 RMS=2.04D-05 Max=4.85D-03 NDo=     1
 LinEq1:  Iter=  4 NonCon=     1 RMS=1.02D-05 Max=1.05D-03 NDo=     1
 LinEq1:  Iter=  5 NonCon=     1 RMS=7.52D-06 Max=1.50D-03 NDo=     1
 LinEq1:  Iter=  6 NonCon=     1 RMS=4.55D-06 Max=3.59D-04 NDo=     1
 LinEq1:  Iter=  7 NonCon=     1 RMS=3.05D-06 Max=3.34D-04 NDo=     1
 LinEq1:  Iter=  8 NonCon=     1 RMS=1.91D-06 Max=2.37D-04 NDo=     1
 LinEq1:  Iter=  9 NonCon=     1 RMS=1.01D-06 Max=1.13D-04 NDo=     1
 LinEq1:  Iter= 10 NonCon=     1 RMS=6.58D-07 Max=9.08D-05 NDo=     1
 LinEq1:  Iter= 11 NonCon=     1 RMS=3.62D-07 Max=4.47D-05 NDo=     1
 LinEq1:  Iter= 12 NonCon=     1 RMS=1.69D-07 Max=1.09D-05 NDo=     1
 LinEq1:  Iter= 13 NonCon=     1 RMS=9.52D-08 Max=1.13D-05 NDo=     1
 LinEq1:  Iter= 14 NonCon=     1 RMS=5.64D-08 Max=5.08D-06 NDo=     1
 LinEq1:  Iter= 15 NonCon=     1 RMS=3.25D-08 Max=3.55D-06 NDo=     1
 LinEq1:  Iter= 16 NonCon=     1 RMS=1.67D-08 Max=1.29D-06 NDo=     1
 LinEq1:  Iter= 17 NonCon=     1 RMS=9.29D-09 Max=1.03D-06 NDo=     1
 LinEq1:  Iter= 18 NonCon=     0 RMS=5.59D-09 Max=5.38D-07 NDo=     1
 Linear equations converged to 6.042D-08 6.042D-07 after    18 iterations.
 Angle between quadratic step and gradient= 101.73 degrees.
 Incorrect curvature in search direction -- initial direction reversed.
     ILin= 1 X=0.000D+00 Y=-2.293163873002D+03 DE= 0.00D+00 F= -8.90D-04
     ILin= 2 X=1.000D+00 Y=-2.293163807639D+03 DE= 6.54D-05 F=  3.17D-03
     Reject lnstep minimum 6.267D-01 FVal=-2.293164304261D+03 Lims=  0.00D+00  1.00D+00
     ILin= 3 X=6.000D-01 Y=-2.293164326660D+03 DE=-4.54D-04 F= -7.58D-05
     A contracting polynomial of degree  3 produced  0.4841
 Iteration   4 EE= -2293.16429045339     Delta-E=       -0.000417451090 Grad=8.648D-03 Max rot=    0.2621 deg.
 QCNR:  CnvC1=8.65D-08 CnvC2=8.65D-07
 LinEq1:  Iter=  0 NonCon=     1 RMS=7.67D-05 Max=3.01D-02 NDo=     1
 LinEq1:  Iter=  1 NonCon=     1 RMS=3.43D-05 Max=3.76D-03 NDo=     1
 LinEq1:  Iter=  2 NonCon=     1 RMS=3.12D-05 Max=9.69D-03 NDo=     1
 LinEq1:  Iter=  3 NonCon=     1 RMS=2.22D-05 Max=5.42D-03 NDo=     1
 LinEq1:  Iter=  4 NonCon=     1 RMS=1.15D-05 Max=1.66D-03 NDo=     1
 LinEq1:  Iter=  5 NonCon=     1 RMS=6.85D-06 Max=1.05D-03 NDo=     1
 LinEq1:  Iter=  6 NonCon=     1 RMS=3.77D-06 Max=4.93D-04 NDo=     1
 LinEq1:  Iter=  7 NonCon=     1 RMS=2.26D-06 Max=3.67D-04 NDo=     1
 LinEq1:  Iter=  8 NonCon=     1 RMS=1.70D-06 Max=1.81D-04 NDo=     1
 LinEq1:  Iter=  9 NonCon=     1 RMS=1.14D-06 Max=9.40D-05 NDo=     1
 LinEq1:  Iter= 10 NonCon=     1 RMS=7.80D-07 Max=5.60D-05 NDo=     1
 LinEq1:  Iter= 11 NonCon=     1 RMS=4.16D-07 Max=5.53D-05 NDo=     1
 LinEq1:  Iter= 12 NonCon=     1 RMS=2.17D-07 Max=1.50D-05 NDo=     1
 LinEq1:  Iter= 13 NonCon=     1 RMS=1.09D-07 Max=1.01D-05 NDo=     1
 LinEq1:  Iter= 14 NonCon=     1 RMS=7.07D-08 Max=6.08D-06 NDo=     1
 LinEq1:  Iter= 15 NonCon=     1 RMS=3.94D-08 Max=4.26D-06 NDo=     1
 LinEq1:  Iter= 16 NonCon=     1 RMS=2.27D-08 Max=1.58D-06 NDo=     1
 LinEq1:  Iter= 17 NonCon=     1 RMS=1.30D-08 Max=1.11D-06 NDo=     1
 LinEq1:  Iter= 18 NonCon=     0 RMS=7.05D-09 Max=5.19D-07 NDo=     1
 Linear equations converged to 8.648D-08 8.648D-07 after    18 iterations.
 Angle between quadratic step and gradient=  69.52 degrees.
     ILin= 1 X=0.000D+00 Y=-2.293164290453D+03 DE= 0.00D+00 F= -2.31D-03
     ILin= 2 X=1.000D+00 Y=-2.293163958499D+03 DE= 3.32D-04 F=  5.34D-03
     Reject lnstep minimum 5.356D-01 FVal=-2.293165047340D+03 Lims=  0.00D+00  1.00D+00
     ILin= 3 X=5.000D-01 Y=-2.293165022606D+03 DE=-7.32D-04 F= -2.58D-04
     A contracting polynomial of degree  3 produced  0.4538
 Iteration   5 EE= -2293.16500375904     Delta-E=       -0.000713305654 Grad=8.803D-03 Max rot=    0.1381 deg.
 QCNR:  CnvC1=8.80D-08 CnvC2=8.80D-07
 LinEq1:  Iter=  0 NonCon=     1 RMS=4.76D-05 Max=1.31D-02 NDo=     1
 LinEq1:  Iter=  1 NonCon=     1 RMS=3.77D-05 Max=6.71D-03 NDo=     1
 LinEq1:  Iter=  2 NonCon=     1 RMS=1.98D-05 Max=2.66D-03 NDo=     1
 LinEq1:  Iter=  3 NonCon=     1 RMS=1.64D-05 Max=4.83D-03 NDo=     1
 LinEq1:  Iter=  4 NonCon=     1 RMS=1.04D-05 Max=2.36D-03 NDo=     1
 LinEq1:  Iter=  5 NonCon=     1 RMS=6.43D-06 Max=1.07D-03 NDo=     1
 LinEq1:  Iter=  6 NonCon=     1 RMS=3.78D-06 Max=4.72D-04 NDo=     1
 LinEq1:  Iter=  7 NonCon=     1 RMS=2.59D-06 Max=3.38D-04 NDo=     1
 LinEq1:  Iter=  8 NonCon=     1 RMS=1.31D-06 Max=1.06D-04 NDo=     1
 LinEq1:  Iter=  9 NonCon=     1 RMS=8.85D-07 Max=7.68D-05 NDo=     1
 LinEq1:  Iter= 10 NonCon=     1 RMS=5.02D-07 Max=6.74D-05 NDo=     1
 LinEq1:  Iter= 11 NonCon=     1 RMS=2.87D-07 Max=1.99D-05 NDo=     1
 LinEq1:  Iter= 12 NonCon=     1 RMS=1.54D-07 Max=1.30D-05 NDo=     1
 LinEq1:  Iter= 13 NonCon=     1 RMS=7.96D-08 Max=9.45D-06 NDo=     1
 LinEq1:  Iter= 14 NonCon=     1 RMS=4.77D-08 Max=3.65D-06 NDo=     1
 LinEq1:  Iter= 15 NonCon=     1 RMS=2.54D-08 Max=2.77D-06 NDo=     1
 LinEq1:  Iter= 16 NonCon=     1 RMS=1.60D-08 Max=1.56D-06 NDo=     1
 LinEq1:  Iter= 17 NonCon=     0 RMS=8.31D-09 Max=6.38D-07 NDo=     1
 Linear equations converged to 8.803D-08 8.803D-07 after    17 iterations.
 Angle between quadratic step and gradient=  69.85 degrees.
     ILin= 1 X=0.000D+00 Y=-2.293165003759D+03 DE= 0.00D+00 F= -3.69D-04
     ILin= 2 X=1.000D+00 Y=-2.293165196765D+03 DE=-1.93D-04
 Iteration   6 EE= -2293.16519676519     Delta-E=       -0.000193006147 Grad=1.037D-03 Max rot=    0.0074 deg.
 QCNR:  CnvC1=1.04D-08 CnvC2=1.04D-07
 LinEq1:  Iter=  0 NonCon=     1 RMS=5.14D-06 Max=1.60D-03 NDo=     1
 LinEq1:  Iter=  1 NonCon=     1 RMS=4.49D-06 Max=1.07D-03 NDo=     1
 LinEq1:  Iter=  2 NonCon=     1 RMS=2.71D-06 Max=3.83D-04 NDo=     1
 LinEq1:  Iter=  3 NonCon=     1 RMS=1.39D-06 Max=1.44D-04 NDo=     1
 LinEq1:  Iter=  4 NonCon=     1 RMS=9.66D-07 Max=1.51D-04 NDo=     1
 LinEq1:  Iter=  5 NonCon=     1 RMS=4.45D-07 Max=7.37D-05 NDo=     1
 LinEq1:  Iter=  6 NonCon=     1 RMS=2.60D-07 Max=5.15D-05 NDo=     1
 LinEq1:  Iter=  7 NonCon=     1 RMS=1.69D-07 Max=1.72D-05 NDo=     1
 LinEq1:  Iter=  8 NonCon=     1 RMS=8.87D-08 Max=6.28D-06 NDo=     1
 LinEq1:  Iter=  9 NonCon=     1 RMS=6.55D-08 Max=7.03D-06 NDo=     1
 LinEq1:  Iter= 10 NonCon=     1 RMS=3.99D-08 Max=3.90D-06 NDo=     1
 LinEq1:  Iter= 11 NonCon=     1 RMS=2.31D-08 Max=1.91D-06 NDo=     1
 LinEq1:  Iter= 12 NonCon=     1 RMS=1.25D-08 Max=8.29D-07 NDo=     1
 LinEq1:  Iter= 13 NonCon=     1 RMS=7.97D-09 Max=5.98D-07 NDo=     1
 LinEq1:  Iter= 14 NonCon=     1 RMS=4.14D-09 Max=3.18D-07 NDo=     1
 LinEq1:  Iter= 15 NonCon=     1 RMS=2.45D-09 Max=1.49D-07 NDo=     1
 LinEq1:  Iter= 16 NonCon=     0 RMS=1.41D-09 Max=9.17D-08 NDo=     1
 Linear equations converged to 1.037D-08 1.037D-07 after    16 iterations.
 Angle between quadratic step and gradient=  78.23 degrees.
     ILin= 1 X=0.000D+00 Y=-2.293165196765D+03 DE= 0.00D+00 F= -4.34D-06
     ILin= 2 X=1.000D+00 Y=-2.293165198968D+03 DE=-2.20D-06
 Iteration   7 EE= -2293.16519896772     Delta-E=       -0.000002202525 Grad=3.130D-05 Max rot=    0.0002 deg.
 Rotation gradient small -- convergence achieved.
 SCF Done:  E(ULC-wHPBE) =  -2293.16519897     a.u. after    7 cycles
            Convg  =    0.3130D-04                   108 Fock formations.
              S**2 =  0.7752                  -V/T =  2.0039
 <Sx>= 0.0000 <Sy>= 0.0000 <Sz>= 0.5000 <S**2>= 0.7752 S= 0.5125
 <L.S>= 0.000000000000E+00
 Annihilation of the first spin contaminant:
 S**2 before annihilation     0.7752,   after     0.7506
 Leave Link  508 at Fri Jan 29 03:31:23 2021, MaxMem=  4026531840 cpu:          103846.6 elap:           13130.8
 (Enter /opt/ohpc/pub/libs/gaussian/g16-A.03/sandybridge/g16/l601.exe)
 Copying SCF densities to generalized density rwf, IOpCl= 1 IROHF=0.

 **********************************************************************

            Population analysis using the SCF density.

 **********************************************************************

 Orbital symmetries:
 Alpha Orbitals:
       Occupied  (A) (A) (A) (A) (A) (A) (A) (A) (A) (A) (A) (A)
                 (A) (A) (A) (A) (A) (A) (A) (A) (A) (A) (A) (A)
                 (A) (A) (A) (A) (A) (A) (A) (A) (A) (A) (A) (A)
                 (A) (A) (A) (A) (A) (A) (A) (A) (A) (A) (A) (A)
                 (A) (A) (A) (A) (A) (A) (A) (A) (A) (A) (A) (A)
                 (A) (A) (A) (A) (A) (A) (A) (A) (A) (A) (A) (A)
                 (A) (A) (A) (A) (A) (A) (A) (A) (A) (A) (A) (A)
                 (A) (A) (A) (A) (A) (A) (A) (A) (A) (A) (A) (A)
                 (A) (A) (A) (A) (A) (A) (A) (A) (A) (A) (A) (A)
                 (A) (A) (A) (A) (A) (A) (A) (A) (A) (A) (A) (A)
                 (A) (A) (A) (A) (A) (A) (A) (A) (A) (A) (A) (A)
                 (A) (A) (A) (A) (A) (A) (A) (A) (A) (A) (A) (A)
                 (A)
       Virtual   (A) (A) (A) (A) (A) (A) (A) (A) (A) (A) (A) (A)
                 (A) (A) (A) (A) (A) (A) (A) (A) (A) (A) (A) (A)
                 (A) (A) (A) (A) (A) (A) (A) (A) (A) (A) (A) (A)
                 (A) (A) (A) (A) (A) (A) (A) (A) (A) (A) (A) (A)
                 (A) (A) (A) (A) (A) (A) (A) (A) (A) (A) (A) (A)
                 (A) (A) (A) (A) (A) (A) (A) (A) (A) (A) (A) (A)
                 (A) (A) (A) (A) (A) (A) (A) (A) (A) (A) (A) (A)
                 (A) (A) (A) (A) (A) (A) (A) (A) (A) (A) (A) (A)
                 (A) (A) (A) (A) (A) (A) (A) (A) (A) (A) (A) (A)
                 (A) (A) (A) (A) (A) (A) (A) (A) (A) (A) (A) (A)
                 (A) (A) (A) (A) (A) (A) (A) (A) (A) (A) (A) (A)
                 (A) (A) (A) (A) (A) (A) (A) (A) (A) (A) (A) (A)
                 (A) (A) (A) (A) (A) (A) (A) (A) (A) (A) (A) (A)
                 (A) (A) (A) (A) (A) (A) (A) (A) (A) (A) (A) (A)
                 (A) (A) (A) (A) (A) (A) (A) (A) (A) (A) (A) (A)
                 (A) (A) (A) (A) (A) (A) (A) (A) (A) (A) (A) (A)
                 (A) (A) (A) (A) (A) (A) (A) (A) (A) (A) (A) (A)
                 (A) (A) (A) (A) (A) (A) (A) (A) (A) (A) (A) (A)
                 (A) (A) (A) (A) (A) (A) (A) (A) (A) (A) (A) (A)
                 (A) (A) (A) (A) (A) (A) (A) (A) (A) (A) (A) (A)
                 (A) (A) (A) (A) (A) (A) (A) (A) (A) (A) (A) (A)
                 (A) (A) (A) (A) (A) (A) (A) (A) (A) (A) (A) (A)
                 (A) (A) (A) (A) (A) (A) (A) (A) (A) (A) (A) (A)
                 (A) (A) (A) (A) (A) (A) (A) (A) (A) (A) (A) (A)
                 (A) (A) (A) (A) (A) (A) (A) (A) (A) (A) (A) (A)
                 (A) (A) (A) (A) (A) (A) (A) (A) (A) (A) (A) (A)
                 (A) (A) (A) (A) (A) (A) (A) (A) (A) (A) (A) (A)
                 (A) (A) (A) (A) (A) (A) (A) (A) (A) (A) (A) (A)
                 (A) (A) (A) (A) (A) (A) (A) (A) (A) (A) (A) (A)
                 (A) (A) (A) (A) (A) (A) (A) (A) (A) (A) (A) (A)
                 (A) (A) (A) (A) (A) (A) (A) (A) (A) (A) (A) (A)
                 (A) (A) (A) (A) (A) (A) (A) (A) (A) (A) (A) (A)
                 (A) (A) (A) (A) (A) (A) (A) (A) (A) (A) (A) (A)
                 (A) (A) (A) (A) (A) (A) (A) (A) (A) (A) (A) (A)
                 (A) (A) (A) (A) (A) (A) (A) (A) (A) (A) (A) (A)
                 (A) (A) (A) (A) (A) (A) (A) (A) (A) (A) (A) (A)
                 (A) (A) (A) (A) (A) (A) (A) (A) (A) (A) (A) (A)
                 (A) (A) (A) (A) (A) (A) (A) (A) (A) (A) (A) (A)
                 (A) (A) (A) (A) (A) (A) (A) (A) (A) (A) (A) (A)
                 (A) (A) (A) (A) (A) (A) (A) (A) (A) (A) (A) (A)
                 (A) (A) (A) (A) (A) (A) (A) (A) (A) (A) (A) (A)
                 (A) (A) (A) (A) (A) (A) (A) (A) (A) (A) (A) (A)
                 (A) (A) (A) (A) (A) (A) (A) (A) (A) (A) (A) (A)
                 (A) (A) (A) (A) (A) (A) (A) (A) (A) (A) (A) (A)
                 (A) (A) (A) (A) (A) (A) (A) (A) (A) (A) (A) (A)
                 (A) (A) (A) (A) (A) (A) (A) (A) (A) (A) (A) (A)
                 (A) (A) (A) (A) (A) (A) (A) (A) (A) (A) (A) (A)
                 (A) (A) (A) (A) (A) (A) (A) (A) (A) (A) (A) (A)
                 (A) (A) (A) (A) (A) (A) (A) (A) (A) (A) (A) (A)
                 (A) (A) (A) (A) (A) (A) (A) (A) (A) (A) (A) (A)
                 (A) (A) (A) (A) (A) (A) (A) (A) (A) (A) (A) (A)
                 (A) (A) (A) (A) (A) (A) (A) (A) (A) (A) (A) (A)
                 (A) (A) (A) (A) (A) (A) (A) (A) (A) (A) (A) (A)
                 (A) (A) (A) (A) (A) (A) (A) (A) (A) (A) (A) (A)
                 (A) (A) (A) (A) (A) (A) (A) (A) (A) (A) (A) (A)
                 (A) (A) (A) (A) (A) (A) (A) (A) (A) (A) (A) (A)
                 (A) (A) (A) (A) (A) (A) (A) (A) (A) (A) (A) (A)
                 (A) (A) (A) (A) (A) (A) (A) (A) (A) (A) (A) (A)
                 (A) (A) (A) (A) (A) (A) (A) (A) (A) (A) (A) (A)
                 (A) (A) (A) (A) (A) (A) (A) (A) (A) (A) (A) (A)
                 (A) (A) (A) (A) (A) (A) (A) (A) (A) (A) (A) (A)
                 (A) (A) (A) (A) (A) (A) (A) (A) (A) (A) (A) (A)
                 (A) (A) (A) (A) (A) (A) (A) (A) (A) (A) (A) (A)
                 (A) (A) (A) (A) (A) (A) (A) (A) (A) (A) (A) (A)
                 (A) (A) (A) (A) (A) (A) (A) (A) (A) (A) (A) (A)
                 (A) (A) (A) (A) (A) (A) (A) (A) (A)
 Beta  Orbitals:
       Occupied  (A) (A) (A) (A) (A) (A) (A) (A) (A) (A) (A) (A)
                 (A) (A) (A) (A) (A) (A) (A) (A) (A) (A) (A) (A)
                 (A) (A) (A) (A) (A) (A) (A) (A) (A) (A) (A) (A)
                 (A) (A) (A) (A) (A) (A) (A) (A) (A) (A) (A) (A)
                 (A) (A) (A) (A) (A) (A) (A) (A) (A) (A) (A) (A)
                 (A) (A) (A) (A) (A) (A) (A) (A) (A) (A) (A) (A)
                 (A) (A) (A) (A) (A) (A) (A) (A) (A) (A) (A) (A)
                 (A) (A) (A) (A) (A) (A) (A) (A) (A) (A) (A) (A)
                 (A) (A) (A) (A) (A) (A) (A) (A) (A) (A) (A) (A)
                 (A) (A) (A) (A) (A) (A) (A) (A) (A) (A) (A) (A)
                 (A) (A) (A) (A) (A) (A) (A) (A) (A) (A) (A) (A)
                 (A) (A) (A) (A) (A) (A) (A) (A) (A) (A) (A) (A)
       Virtual   (A) (A) (A) (A) (A) (A) (A) (A) (A) (A) (A) (A)
                 (A) (A) (A) (A) (A) (A) (A) (A) (A) (A) (A) (A)
                 (A) (A) (A) (A) (A) (A) (A) (A) (A) (A) (A) (A)
                 (A) (A) (A) (A) (A) (A) (A) (A) (A) (A) (A) (A)
                 (A) (A) (A) (A) (A) (A) (A) (A) (A) (A) (A) (A)
                 (A) (A) (A) (A) (A) (A) (A) (A) (A) (A) (A) (A)
                 (A) (A) (A) (A) (A) (A) (A) (A) (A) (A) (A) (A)
                 (A) (A) (A) (A) (A) (A) (A) (A) (A) (A) (A) (A)
                 (A) (A) (A) (A) (A) (A) (A) (A) (A) (A) (A) (A)
                 (A) (A) (A) (A) (A) (A) (A) (A) (A) (A) (A) (A)
                 (A) (A) (A) (A) (A) (A) (A) (A) (A) (A) (A) (A)
                 (A) (A) (A) (A) (A) (A) (A) (A) (A) (A) (A) (A)
                 (A) (A) (A) (A) (A) (A) (A) (A) (A) (A) (A) (A)
                 (A) (A) (A) (A) (A) (A) (A) (A) (A) (A) (A) (A)
                 (A) (A) (A) (A) (A) (A) (A) (A) (A) (A) (A) (A)
                 (A) (A) (A) (A) (A) (A) (A) (A) (A) (A) (A) (A)
                 (A) (A) (A) (A) (A) (A) (A) (A) (A) (A) (A) (A)
                 (A) (A) (A) (A) (A) (A) (A) (A) (A) (A) (A) (A)
                 (A) (A) (A) (A) (A) (A) (A) (A) (A) (A) (A) (A)
                 (A) (A) (A) (A) (A) (A) (A) (A) (A) (A) (A) (A)
                 (A) (A) (A) (A) (A) (A) (A) (A) (A) (A) (A) (A)
                 (A) (A) (A) (A) (A) (A) (A) (A) (A) (A) (A) (A)
                 (A) (A) (A) (A) (A) (A) (A) (A) (A) (A) (A) (A)
                 (A) (A) (A) (A) (A) (A) (A) (A) (A) (A) (A) (A)
                 (A) (A) (A) (A) (A) (A) (A) (A) (A) (A) (A) (A)
                 (A) (A) (A) (A) (A) (A) (A) (A) (A) (A) (A) (A)
                 (A) (A) (A) (A) (A) (A) (A) (A) (A) (A) (A) (A)
                 (A) (A) (A) (A) (A) (A) (A) (A) (A) (A) (A) (A)
                 (A) (A) (A) (A) (A) (A) (A) (A) (A) (A) (A) (A)
                 (A) (A) (A) (A) (A) (A) (A) (A) (A) (A) (A) (A)
                 (A) (A) (A) (A) (A) (A) (A) (A) (A) (A) (A) (A)
                 (A) (A) (A) (A) (A) (A) (A) (A) (A) (A) (A) (A)
                 (A) (A) (A) (A) (A) (A) (A) (A) (A) (A) (A) (A)
                 (A) (A) (A) (A) (A) (A) (A) (A) (A) (A) (A) (A)
                 (A) (A) (A) (A) (A) (A) (A) (A) (A) (A) (A) (A)
                 (A) (A) (A) (A) (A) (A) (A) (A) (A) (A) (A) (A)
                 (A) (A) (A) (A) (A) (A) (A) (A) (A) (A) (A) (A)
                 (A) (A) (A) (A) (A) (A) (A) (A) (A) (A) (A) (A)
                 (A) (A) (A) (A) (A) (A) (A) (A) (A) (A) (A) (A)
                 (A) (A) (A) (A) (A) (A) (A) (A) (A) (A) (A) (A)
                 (A) (A) (A) (A) (A) (A) (A) (A) (A) (A) (A) (A)
                 (A) (A) (A) (A) (A) (A) (A) (A) (A) (A) (A) (A)
                 (A) (A) (A) (A) (A) (A) (A) (A) (A) (A) (A) (A)
                 (A) (A) (A) (A) (A) (A) (A) (A) (A) (A) (A) (A)
                 (A) (A) (A) (A) (A) (A) (A) (A) (A) (A) (A) (A)
                 (A) (A) (A) (A) (A) (A) (A) (A) (A) (A) (A) (A)
                 (A) (A) (A) (A) (A) (A) (A) (A) (A) (A) (A) (A)
                 (A) (A) (A) (A) (A) (A) (A) (A) (A) (A) (A) (A)
                 (A) (A) (A) (A) (A) (A) (A) (A) (A) (A) (A) (A)
                 (A) (A) (A) (A) (A) (A) (A) (A) (A) (A) (A) (A)
                 (A) (A) (A) (A) (A) (A) (A) (A) (A) (A) (A) (A)
                 (A) (A) (A) (A) (A) (A) (A) (A) (A) (A) (A) (A)
                 (A) (A) (A) (A) (A) (A) (A) (A) (A) (A) (A) (A)
                 (A) (A) (A) (A) (A) (A) (A) (A) (A) (A) (A) (A)
                 (A) (A) (A) (A) (A) (A) (A) (A) (A) (A) (A) (A)
                 (A) (A) (A) (A) (A) (A) (A) (A) (A) (A) (A) (A)
                 (A) (A) (A) (A) (A) (A) (A) (A) (A) (A) (A) (A)
                 (A) (A) (A) (A) (A) (A) (A) (A) (A) (A) (A) (A)
                 (A) (A) (A) (A) (A) (A) (A) (A) (A) (A) (A) (A)
                 (A) (A) (A) (A) (A) (A) (A) (A) (A) (A) (A) (A)
                 (A) (A) (A) (A) (A) (A) (A) (A) (A) (A) (A) (A)
                 (A) (A) (A) (A) (A) (A) (A) (A) (A) (A) (A) (A)
                 (A) (A) (A) (A) (A) (A) (A) (A) (A) (A) (A) (A)
                 (A) (A) (A) (A) (A) (A) (A) (A) (A) (A) (A) (A)
                 (A) (A) (A) (A) (A) (A) (A) (A) (A) (A) (A) (A)
                 (A) (A) (A) (A) (A) (A) (A) (A) (A) (A)
 The electronic state is 2-A.
 Alpha  occ. eigenvalues --  -88.34481 -88.31999 -14.34616 -14.20879 -10.20515
 Alpha  occ. eigenvalues --  -10.19747 -10.19660 -10.19639 -10.17872 -10.16336
 Alpha  occ. eigenvalues --  -10.16094 -10.15536 -10.15251 -10.15129 -10.15097
 Alpha  occ. eigenvalues --  -10.15024 -10.14290 -10.14154 -10.14094 -10.14057
[...]
 
              Baa    -0.0855   -11.474    -4.094    -3.827 -0.3439  0.7477  0.5680
     4 C(13)  Bbb    -0.0781   -10.481    -3.740    -3.496  0.7089 -0.1900  0.6793
              Bcc     0.1636    21.955     7.834     7.324  0.6159  0.6362 -0.4647
 
              Baa    -0.0012    -0.167    -0.059    -0.056 -0.1833  0.9160 -0.3569
     5 C(13)  Bbb     0.0003     0.034     0.012     0.011  0.3141  0.3986  0.8617
              Bcc     0.0010     0.133     0.047     0.044  0.9315  0.0458 -0.3608
 
              Baa    -0.0039    -0.518    -0.185    -0.173  0.7774  0.6172 -0.1210
     6 C(13)  Bbb     0.0011     0.142     0.051     0.048 -0.5916  0.6524 -0.4737
              Bcc     0.0028     0.376     0.134     0.125 -0.2135  0.4398  0.8723
 
              Baa    -0.0254    -3.413    -1.218    -1.139 -0.0189  0.9741  0.2251
     7 C(13)  Bbb     0.0000     0.001     0.000     0.000  0.7164 -0.1439  0.6827
              Bcc     0.0254     3.412     1.218     1.138  0.6974  0.1742 -0.6952
 
              Baa    -0.0392    -5.259    -1.877    -1.754  0.5180  0.6396 -0.5679
     8 C(13)  Bbb     0.0169     2.273     0.811     0.758 -0.1864  0.7324  0.6548
              Bcc     0.0222     2.986     1.065     0.996  0.8348 -0.2333  0.4987
 
              Baa    -0.0031    -1.651    -0.589    -0.551  0.7402 -0.3679  0.5628
     9 H(1)   Bbb    -0.0008    -0.423    -0.151    -0.141  0.6418  0.6362 -0.4282
              Bcc     0.0039     2.074     0.740     0.692 -0.2005  0.6781  0.7071
 
              Baa    -0.0009    -0.122    -0.044    -0.041  0.1068  0.5813  0.8067
    10 C(13)  Bbb    -0.0001    -0.019    -0.007    -0.006 -0.1728  0.8098 -0.5607
              Bcc     0.0011     0.141     0.050     0.047  0.9792  0.0795 -0.1869
 
              Baa    -0.0006    -0.086    -0.031    -0.029  0.5225  0.3895  0.7585
    11 C(13)  Bbb    -0.0003    -0.044    -0.016    -0.015  0.1105  0.8511 -0.5132
              Bcc     0.0010     0.130     0.046     0.043  0.8454 -0.3520 -0.4017
 
              Baa    -0.0011    -0.149    -0.053    -0.050  0.2317  0.8118 -0.5360
    12 C(13)  Bbb    -0.0005    -0.061    -0.022    -0.020  0.9486 -0.0664  0.3096
              Bcc     0.0016     0.210     0.075     0.070 -0.2157  0.5801  0.7854
 
              Baa    -0.0008    -0.101    -0.036    -0.034 -0.0931  0.9335 -0.3462
    13 C(13)  Bbb     0.0000     0.004     0.001     0.001  0.9545  0.1826  0.2357
              Bcc     0.0007     0.097     0.035     0.032 -0.2832  0.3085  0.9081
 
              Baa    -0.0005    -0.276    -0.099    -0.092 -0.0536  0.9296  0.3646
    14 H(1)   Bbb    -0.0003    -0.152    -0.054    -0.051  0.3405 -0.3262  0.8818
              Bcc     0.0008     0.429     0.153     0.143  0.9387  0.1714 -0.2990
 
              Baa    -0.0005    -0.277    -0.099    -0.092  0.3558  0.7269 -0.5874
    15 H(1)   Bbb    -0.0003    -0.175    -0.063    -0.058  0.4428  0.4224  0.7909
              Bcc     0.0008     0.452     0.161     0.151  0.8230 -0.5415 -0.1716
 
              Baa    -0.0003    -0.163    -0.058    -0.054  0.3441  0.9344 -0.0923
    16 H(1)   Bbb    -0.0002    -0.114    -0.041    -0.038  0.1226  0.0528  0.9911
              Bcc     0.0005     0.277     0.099     0.092  0.9309 -0.3523 -0.0964
 
              Baa    -0.0607    -8.146    -2.907    -2.717  0.8324 -0.5325  0.1536
    17 C(13)  Bbb    -0.0545    -7.309    -2.608    -2.438  0.0060  0.2858  0.9583
              Bcc     0.1152    15.455     5.515     5.155  0.5542  0.7967 -0.2411
 
              Baa    -0.0047    -2.509    -0.895    -0.837  0.8580  0.4888 -0.1578
    18 H(1)   Bbb    -0.0028    -1.516    -0.541    -0.506  0.4418 -0.5457  0.7120
              Bcc     0.0075     4.025     1.436     1.343 -0.2619  0.6807  0.6842
 
              Baa    -0.0016    -0.848    -0.303    -0.283  0.0363  0.9969  0.0705
    19 H(1)   Bbb    -0.0004    -0.220    -0.079    -0.073  0.2984 -0.0781  0.9512
              Bcc     0.0020     1.068     0.381     0.356  0.9538 -0.0135 -0.3003
 
              Baa    -0.0030    -1.614    -0.576    -0.538  0.5561  0.7097 -0.4325
    20 H(1)   Bbb     0.0004     0.219     0.078     0.073  0.3013  0.3128  0.9008
              Bcc     0.0026     1.395     0.498     0.465  0.7746 -0.6312 -0.0399
 
              Baa    -0.0048    -2.563    -0.915    -0.855 -0.0137 -0.4936  0.8696
    21 H(1)   Bbb    -0.0035    -1.869    -0.667    -0.623  0.8759  0.4136  0.2485
              Bcc     0.0083     4.432     1.581     1.478 -0.4823  0.7651  0.4267
 
              Baa    -0.2301    -9.432    -3.366    -3.146  0.7799 -0.4097  0.4732
    22 S(33)  Bbb    -0.2101    -8.614    -3.074    -2.873 -0.1249  0.6389  0.7591
              Bcc     0.4402    18.046     6.439     6.020  0.6133  0.6511 -0.4471
 
              Baa    -0.0026    -0.100    -0.036    -0.033 -0.0244  0.9880  0.1522
    23 N(14)  Bbb    -0.0020    -0.076    -0.027    -0.025  0.9422  0.0736 -0.3268
              Bcc     0.0045     0.175     0.063     0.058  0.3341 -0.1354  0.9328
 
              Baa    -0.0004    -0.049    -0.018    -0.016 -0.0379  0.8037 -0.5938
    24 C(13)  Bbb    -0.0001    -0.007    -0.003    -0.002  0.3267  0.5715  0.7527
              Bcc     0.0004     0.057     0.020     0.019  0.9444 -0.1654 -0.2843
 
              Baa    -0.0004    -0.047    -0.017    -0.016  0.1289  0.6638  0.7367
    25 C(13)  Bbb    -0.0001    -0.012    -0.004    -0.004  0.8494 -0.4573  0.2634
              Bcc     0.0004     0.059     0.021     0.020 -0.5118 -0.5918  0.6228
 
              Baa    -0.0004    -0.053    -0.019    -0.018  0.3842  0.4189  0.8227
    26 C(13)  Bbb    -0.0001    -0.010    -0.003    -0.003  0.8066 -0.5858 -0.0784
              Bcc     0.0005     0.063     0.022     0.021  0.4491  0.6937 -0.5630
 
              Baa    -0.0003    -0.036    -0.013    -0.012  0.0043 -0.6839  0.7296
    27 C(13)  Bbb     0.0000     0.002     0.001     0.001  0.2346  0.7099  0.6641
              Bcc     0.0003     0.034     0.012     0.011  0.9721 -0.1683 -0.1634
 
              Baa    -0.0003    -0.044    -0.016    -0.015 -0.0351 -0.6870  0.7258
    28 C(13)  Bbb     0.0000     0.001     0.000     0.000  0.3853  0.6608  0.6441
              Bcc     0.0003     0.043     0.015     0.014  0.9221 -0.3023 -0.2415
 
              Baa    -0.0004    -0.049    -0.018    -0.016  0.3387  0.7279  0.5962
    29 C(13)  Bbb    -0.0001    -0.017    -0.006    -0.006  0.9367 -0.3203 -0.1412
              Bcc     0.0005     0.066     0.024     0.022 -0.0882 -0.6063  0.7904
 
              Baa    -0.0001    -0.063    -0.023    -0.021 -0.1247  0.8630 -0.4896
    30 H(1)   Bbb    -0.0001    -0.046    -0.017    -0.015  0.0140  0.4949  0.8688
              Bcc     0.0002     0.110     0.039     0.037  0.9921  0.1015 -0.0738
 
              Baa    -0.0002    -0.110    -0.039    -0.037  0.1072  0.9608 -0.2558
    31 H(1)   Bbb    -0.0001    -0.070    -0.025    -0.023  0.3753  0.1992  0.9052
              Bcc     0.0003     0.180     0.064     0.060  0.9207 -0.1931 -0.3392
 
              Baa    -0.0001    -0.039    -0.014    -0.013 -0.0249  0.7912 -0.6111
    32 H(1)   Bbb    -0.0001    -0.031    -0.011    -0.010  0.1808  0.6048  0.7756
              Bcc     0.0001     0.069     0.025     0.023  0.9832 -0.0912 -0.1581
 
              Baa    -0.0001    -0.057    -0.020    -0.019  0.1683  0.9249 -0.3409
    33 H(1)   Bbb    -0.0001    -0.048    -0.017    -0.016  0.4226  0.2448  0.8726
              Bcc     0.0002     0.104     0.037     0.035  0.8905 -0.2909 -0.3497
 
              Baa    -0.0001    -0.048    -0.017    -0.016  0.4378  0.6649  0.6052
    34 H(1)   Bbb    -0.0001    -0.034    -0.012    -0.011  0.0267 -0.6824  0.7305
              Bcc     0.0002     0.082     0.029     0.027  0.8987 -0.3036 -0.3165
 
              Baa    -0.0003    -0.040    -0.014    -0.013  0.5333 -0.5064  0.6776
    35 C(13)  Bbb    -0.0000    -0.007    -0.002    -0.002 -0.1214  0.7469  0.6538
              Bcc     0.0003     0.047     0.017     0.016  0.8372  0.4309 -0.3368
 
              Baa    -0.0004    -0.054    -0.019    -0.018 -0.1210  0.8231  0.5549
    36 C(13)  Bbb    -0.0002    -0.033    -0.012    -0.011 -0.1088 -0.5666  0.8168
              Bcc     0.0006     0.087     0.031     0.029  0.9867  0.0385  0.1581
 
              Baa    -0.0005    -0.063    -0.022    -0.021 -0.0921  0.5881  0.8035
    37 C(13)  Bbb    -0.0003    -0.036    -0.013    -0.012  0.0885  0.8086 -0.5817
              Bcc     0.0007     0.099     0.035     0.033  0.9918 -0.0176  0.1265
 
              Baa    -0.0003    -0.034    -0.012    -0.011  0.6327 -0.3822  0.6735
    38 C(13)  Bbb    -0.0000    -0.002    -0.001    -0.001 -0.2069  0.7547  0.6226
              Bcc     0.0003     0.036     0.013     0.012  0.7462  0.5333 -0.3984
 
              Baa    -0.0003    -0.035    -0.013    -0.012  0.5516 -0.4302  0.7146
    39 C(13)  Bbb    -0.0001    -0.013    -0.004    -0.004 -0.3438  0.6634  0.6647
              Bcc     0.0004     0.048     0.017     0.016  0.7600  0.6123 -0.2180
 
              Baa    -0.0004    -0.057    -0.020    -0.019 -0.3042  0.6390  0.7065
    40 C(13)  Bbb    -0.0002    -0.027    -0.010    -0.009  0.2625  0.7692 -0.5826
              Bcc     0.0006     0.084     0.030     0.028  0.9157 -0.0082  0.4017
 
              Baa    -0.0001    -0.073    -0.026    -0.024 -0.1888  0.9820 -0.0080
    41 H(1)   Bbb    -0.0001    -0.056    -0.020    -0.019  0.3478  0.0745  0.9346
              Bcc     0.0002     0.129     0.046     0.043  0.9184  0.1737 -0.3556
 
              Baa    -0.0004    -0.192    -0.069    -0.064 -0.2306  0.8491  0.4753
    42 H(1)   Bbb    -0.0002    -0.133    -0.048    -0.044  0.2341 -0.4257  0.8740
              Bcc     0.0006     0.325     0.116     0.108  0.9445  0.3128 -0.1006
 
              Baa    -0.0001    -0.050    -0.018    -0.017  0.3545 -0.2554  0.8995
    43 H(1)   Bbb    -0.0001    -0.047    -0.017    -0.016 -0.3030  0.8787  0.3689
              Bcc     0.0002     0.097     0.035     0.032  0.8846  0.4033 -0.2341
 
              Baa    -0.0002    -0.114    -0.041    -0.038 -0.4091  0.5570  0.7228
    44 H(1)   Bbb    -0.0002    -0.084    -0.030    -0.028  0.3576 -0.6309  0.6886
              Bcc     0.0004     0.197     0.070     0.066  0.8395  0.5402  0.0589
 
              Baa    -0.0001    -0.074    -0.026    -0.025 -0.1397  0.2033  0.9691
    45 H(1)   Bbb    -0.0001    -0.046    -0.016    -0.015 -0.5733  0.7814 -0.2465
              Bcc     0.0002     0.120     0.043     0.040  0.8074  0.5900 -0.0074
 
              Baa    -0.5059   -19.512    -6.962    -6.508 -0.0057  0.9987  0.0506
    46 N(14)  Bbb    -0.5051   -19.482    -6.952    -6.499  0.7380 -0.0300  0.6741
              Bcc     1.0111    38.994    13.914    13.007 -0.6747 -0.0412  0.7369
 
              Baa    -0.0359    -4.815    -1.718    -1.606  0.1630  0.3303  0.9297
    47 C(13)  Bbb     0.0130     1.748     0.624     0.583  0.9778  0.0717 -0.1969
              Bcc     0.0229     3.067     1.094     1.023 -0.1318  0.9411 -0.3113
 
              Baa    -0.0567    -7.606    -2.714    -2.537  0.4335  0.8709 -0.2314
    48 C(13)  Bbb    -0.0495    -6.643    -2.370    -2.216  0.8793 -0.4650 -0.1027
              Bcc     0.1062    14.249     5.085     4.753  0.1971  0.1589  0.9674
 
              Baa    -0.0585    -7.849    -2.801    -2.618  0.8397 -0.5382  0.0718
    49 C(13)  Bbb    -0.0514    -6.898    -2.461    -2.301  0.5193  0.7574 -0.3958
              Bcc     0.1099    14.747     5.262     4.919  0.1586  0.3697  0.9155
 
              Baa    -0.0468    -6.286    -2.243    -2.097 -0.1032  0.2368  0.9661
    50 C(13)  Bbb     0.0210     2.818     1.006     0.940  0.9698  0.2399  0.0448
              Bcc     0.0258     3.468     1.237     1.157 -0.2211  0.9415 -0.2544
 
              Baa    -0.0487    -6.536    -2.332    -2.180 -0.0771  0.1638  0.9835
    51 C(13)  Bbb     0.0218     2.930     1.046     0.977  0.9256  0.3783  0.0095
              Bcc     0.0269     3.606     1.287     1.203 -0.3705  0.9111 -0.1808
 
              Baa    -0.0654    -8.770    -3.129    -2.925  0.9458  0.3177  0.0675
    52 C(13)  Bbb    -0.0588    -7.894    -2.817    -2.633 -0.2966  0.9295 -0.2190
              Bcc     0.1242    16.665     5.946     5.559 -0.1323  0.1871  0.9734
 
              Baa    -0.0042    -2.231    -0.796    -0.744 -0.3024  0.6015  0.7394
    53 H(1)   Bbb    -0.0026    -1.371    -0.489    -0.457  0.3559 -0.6484  0.6730
              Bcc     0.0068     3.602     1.285     1.202  0.8842  0.4667 -0.0180
 
              Baa    -0.0041    -2.196    -0.784    -0.732 -0.0214 -0.1109  0.9936
    54 H(1)   Bbb    -0.0025    -1.344    -0.480    -0.448 -0.0660  0.9918  0.1092
              Bcc     0.0066     3.540     1.263     1.181  0.9976  0.0632  0.0286
 
              Baa    -0.0022    -1.185    -0.423    -0.395  0.0147  0.2257  0.9741
    55 H(1)   Bbb    -0.0002    -0.100    -0.036    -0.033  0.9959 -0.0900  0.0059
              Bcc     0.0024     1.285     0.459     0.429  0.0890  0.9700 -0.2261
 
              Baa    -0.0023    -1.214    -0.433    -0.405  0.0273  0.2596  0.9653
    56 H(1)   Bbb    -0.0004    -0.192    -0.068    -0.064  0.7979  0.5761 -0.1774
              Bcc     0.0026     1.406     0.502     0.469 -0.6022  0.7751 -0.1914
 
              Baa    -0.0083    -4.433    -1.582    -1.479  0.9528  0.3012  0.0371
    57 H(1)   Bbb    -0.0008    -0.406    -0.145    -0.136 -0.1001  0.1965  0.9754
              Bcc     0.0091     4.840     1.727     1.614 -0.2865  0.9331 -0.2174
 
              Baa    -0.0344    -4.615    -1.647    -1.539  0.8151 -0.5793 -0.0055
    58 C(13)  Bbb     0.0123     1.656     0.591     0.552 -0.1040 -0.1556  0.9823
              Bcc     0.0221     2.959     1.056     0.987  0.5700  0.8001  0.1870
 
              Baa    -0.0566    -7.593    -2.709    -2.533  0.3964  0.8751 -0.2777
    59 C(13)  Bbb    -0.0494    -6.631    -2.366    -2.212  0.0765  0.2700  0.9598
              Bcc     0.1060    14.224     5.075     4.745  0.9149 -0.4017  0.0401
 
              Baa    -0.0583    -7.829    -2.794    -2.611  0.2668  0.3102  0.9125
    60 C(13)  Bbb    -0.0511    -6.862    -2.449    -2.289  0.5258  0.7466 -0.4075
              Bcc     0.1095    14.691     5.242     4.900  0.8077 -0.5885 -0.0360
 
              Baa    -0.0466    -6.258    -2.233    -2.087  0.8722 -0.4095 -0.2677
    61 C(13)  Bbb     0.0209     2.810     1.003     0.937  0.0570 -0.4584  0.8869
              Bcc     0.0257     3.448     1.230     1.150  0.4859  0.7888  0.3765
 
              Baa    -0.0486    -6.516    -2.325    -2.173  0.9103 -0.3445 -0.2295
    62 C(13)  Bbb     0.0217     2.916     1.041     0.973 -0.0038 -0.5614  0.8275
              Bcc     0.0268     3.600     1.284     1.201  0.4139  0.7524  0.5124
 
              Baa    -0.0657    -8.823    -3.148    -2.943  0.0593 -0.5291  0.8465
    63 C(13)  Bbb    -0.0592    -7.946    -2.835    -2.650  0.4526  0.7701  0.4496
              Bcc     0.1250    16.769     5.983     5.593  0.8897 -0.3565 -0.2851
 
              Baa    -0.0042    -2.233    -0.797    -0.745 -0.5524  0.6621  0.5063
    64 H(1)   Bbb    -0.0026    -1.394    -0.497    -0.465  0.8316  0.3968  0.3885
              Bcc     0.0068     3.626     1.294     1.210 -0.0564 -0.6357  0.7699
 
              Baa    -0.0042    -2.230    -0.796    -0.744  0.9877 -0.0897 -0.1280
    65 H(1)   Bbb    -0.0025    -1.333    -0.476    -0.445  0.1233  0.9507  0.2847
              Bcc     0.0067     3.562     1.271     1.188  0.0961 -0.2969  0.9500
 
              Baa    -0.0022    -1.187    -0.423    -0.396  0.8915 -0.4271 -0.1508
    66 H(1)   Bbb    -0.0002    -0.083    -0.030    -0.028  0.1020 -0.1352  0.9856
              Bcc     0.0024     1.270     0.453     0.424  0.4413  0.8940  0.0770
 
              Baa    -0.0023    -1.217    -0.434    -0.406  0.8764 -0.4599 -0.1430
    67 H(1)   Bbb    -0.0003    -0.171    -0.061    -0.057  0.2544  0.6943 -0.6732
              Bcc     0.0026     1.389     0.496     0.463  0.4089  0.5536  0.7255
 
              Baa    -0.0084    -4.457    -1.590    -1.487  0.0338 -0.5087  0.8603
    68 H(1)   Bbb    -0.0008    -0.413    -0.147    -0.138  0.8922 -0.3726 -0.2554
              Bcc     0.0091     4.870     1.738     1.625  0.4504  0.7761  0.4413
 

 ---------------------------------------------------------------------------------

 No NMR shielding tensors so no spin-rotation constants.
 Leave Link  601 at Fri Jan 29 03:31:25 2021, MaxMem=  4026531840 cpu:              14.9 elap:               2.0
 (Enter /opt/ohpc/pub/libs/gaussian/g16-A.03/sandybridge/g16/l9999.exe)

 Test job not archived.
 1\1\GINC-CNODE210\SP\ULC-wHPBE\TZVP\C36H28N2S2(1+,2)\RDU230\29-Jan-202
 1\0\\#P LC-wHPBE/TZVP iop(3/107=0224100000, 3/108=0224100000) scf=(con
 ver=6,fermi,ndamp=35,noincfock,novaracc,vshift=500,xqc)\\H28 C36 S2 N2
 \\1,2\C,0,-2.604951,0.985352,-0.477595\C,0,-1.595468,1.227646,-1.39689
 7\S,0,-0.459746,2.557842,-1.073663\C,0,-1.509976,0.467226,-2.564163\C,
 0,1.043777,0.455726,-0.021717\C,0,1.03833,1.682104,-0.668307\C,0,-3.55
 7585,-0.001751,-0.697168\C,0,-2.447111,-0.539154,-2.764444\H,0,-0.5963
 18,-0.14267,-4.605045\C,0,2.238728,-0.147647,0.319798\C,0,2.246539,2.2
 97832,-0.961919\C,0,3.442101,1.694718,-0.621166\C,0,3.453096,0.46292,0
 .023837\H,0,2.234263,-1.106243,0.827797\H,0,2.253931,3.248348,-1.48634
 6\H,0,4.381679,2.178238,-0.866461\C,0,-3.461673,-0.764082,-1.856276\H,
 0,-2.646669,1.585519,0.424718\H,0,0.106936,-0.032641,0.224382\H,0,-2.4
 04245,-1.146243,-3.663282\H,0,-4.192893,-1.542008,-2.047877\S,0,-0.233
 558,0.817463,-3.737465\N,0,4.673686,-0.159547,0.368747\C,0,5.732508,0.
 612661,0.896564\C,0,7.045695,0.37796,0.499452\C,0,5.475865,1.622329,1.
 819567\C,0,8.078745,1.133154,1.024558\C,0,6.512871,2.384632,2.326214\C
 ,0,7.820306,2.143178,1.9369\H,0,7.251646,-0.403669,-0.22406\H,0,4.4548
 3,1.807304,2.136118\H,0,9.097402,0.93653,0.704866\H,0,6.295127,3.16901
 3,3.044416\H,0,8.632202,2.738403,2.341339\C,0,4.837054,-1.548147,0.168
 533\C,0,5.516065,-2.321618,1.105787\C,0,4.319017,-2.163542,-0.967486\C
 ,0,5.679987,-3.679833,0.902534\C,0,4.472338,-3.525567,-1.15401\C,0,5.1
 56657,-4.292005,-0.224805\H,0,5.917204,-1.848815,1.995947\H,0,3.79167,
 -1.566068,-1.703651\H,0,6.213214,-4.268058,1.642948\H,0,4.061647,-3.98
 973,-2.045325\H,0,5.281223,-5.35883,-0.377899\N,0,-4.591369,-0.225236,
 0.235572\C,0,-4.996809,-1.544618,0.539366\C,0,-6.345932,-1.849462,0.69
 3639\C,0,-4.053605,-2.557013,0.688173\C,0,-6.738551,-3.140118,0.998819
 \C,0,-4.45592,-3.848924,0.975713\C,0,-5.798707,-4.148587,1.137139\H,0,
 -7.085839,-1.064984,0.575406\H,0,-2.999778,-2.324624,0.576668\H,0,-7.7
 94748,-3.361033,1.117399\H,0,-3.707423,-4.627077,1.088273\H,0,-6.11071
 1,-5.161215,1.369943\C,0,-5.228462,0.872905,0.859345\C,0,-5.548183,0.8
 24769,2.212595\C,0,-5.541916,2.014931,0.129127\C,0,-6.178047,1.897088,
 2.818017\C,0,-6.155123,3.090236,0.746513\C,0,-6.481192,3.037227,2.0917
 54\H,0,-5.300925,-0.061617,2.787177\H,0,-5.299559,2.056134,-0.927579\H
 ,0,-6.421719,1.844307,3.874525\H,0,-6.390696,3.975287,0.163884\H,0,-6.
 967632,3.87989,2.571608\\Version=EM64L-G16RevA.03\State=2-A\HF=-2293.1
 65199\S2=0.775171\S2-1=0.\S2A=0.750551\RMSD=6.553e-08\Dipole=-6.602440
 3,-0.9824782,-0.0623154\Quadrupole=51.6529946,-21.238925,-30.4140697,5
 .3551538,-10.1815524,4.4602339\PG=C01 [X(C36H28N2S2)]\\@


 THE TRULY SUCCESSFUL PERFORMANCE OF RESEARCHES IN
 INORGANIC CHEMISTRY IS POSSIBLE ONLY TO ONE WHO IS NOT
 ONLY A THEORETICAL CHEMIST, BUT ALSO AN ACCOMPLISHED
 ANALYST AND, MOREOVER, NOT MERELY A PRACTICALLY TRAINED,
 MECHANICAL WORKER, BUT A THINKING CREATIVE ARTIST.
   --  CLEMENS WINKLER, BER. 33, 1697(1900)
 Job cpu time:       1 days 15 hours 12 minutes 56.7 seconds.
 Elapsed time:       0 days  4 hours 57 minutes 20.8 seconds.
 File lengths (MBytes):  RWF=    464 Int=      0 D2E=      0 Chk=     68 Scr=      8
 Normal termination of Gaussian 16 at Fri Jan 29 03:31:25 2021.
