 Entering Gaussian System, Link 0=g16
 Input=mol_ta_pa_whol_tune_n12.gjf
 Output=mol_ta_pa_whol_tune_n12.log
 Initial command:
 /opt/ohpc/pub/libs/gaussian/g16-A.03/sandybridge/g16/l1.exe "/mnt/gpfs2_4m/scratch/rdu230/ondemand/projects/init_structures/gaussian/wtuning/mol_ta_pa_whol/tuning_mol_ta_pa_whol_ocycle0/Gau-48162.inp" -scrdir="/mnt/gpfs2_4m/scratch/rdu230/ondemand/projects/init_structures/gaussian/wtuning/mol_ta_pa_whol/tuning_mol_ta_pa_whol_ocycle0/"
 Entering Link 1 = /opt/ohpc/pub/libs/gaussian/g16-A.03/sandybridge/g16/l1.exe PID=     48163.
  
 Copyright (c) 1988,1990,1992,1993,1995,1998,2003,2009,2016,
            Gaussian, Inc.  All Rights Reserved.
  
 This is part of the Gaussian(R) 16 program.  It is based on
 the Gaussian(R) 09 system (copyright 2009, Gaussian, Inc.),
 the Gaussian(R) 03 system (copyright 2003, Gaussian, Inc.),
 the Gaussian(R) 98 system (copyright 1998, Gaussian, Inc.),
 the Gaussian(R) 94 system (copyright 1995, Gaussian, Inc.),
 the Gaussian 92(TM) system (copyright 1992, Gaussian, Inc.),
 the Gaussian 90(TM) system (copyright 1990, Gaussian, Inc.),
 the Gaussian 88(TM) system (copyright 1988, Gaussian, Inc.),
 the Gaussian 86(TM) system (copyright 1986, Carnegie Mellon
 University), and the Gaussian 82(TM) system (copyright 1983,
 Carnegie Mellon University). Gaussian is a federally registered
 trademark of Gaussian, Inc.
  
 This software contains proprietary and confidential information,
 including trade secrets, belonging to Gaussian, Inc.
  
 This software is provided under written license and may be
 used, copied, transmitted, or stored only in accord with that
 written license.
  
 The following legend is applicable only to US Government
 contracts under FAR:
  
                    RESTRICTED RIGHTS LEGEND
  
 Use, reproduction and disclosure by the US Government is
 subject to restrictions as set forth in subparagraphs (a)
 and (c) of the Commercial Computer Software - Restricted
 Rights clause in FAR 52.227-19.
  
 Gaussian, Inc.
 340 Quinnipiac St., Bldg. 40, Wallingford CT 06492
  
  
 ---------------------------------------------------------------
 Warning -- This program may not be used in any manner that
 competes with the business of Gaussian, Inc. or will provide
 assistance to any competitor of Gaussian, Inc.  The licensee
 of this program is prohibited from giving any competitor of
 Gaussian, Inc. access to this program.  By using this program,
 the user acknowledges that Gaussian, Inc. is engaged in the
 business of creating and licensing software in the field of
 computational chemistry and represents and warrants to the
 licensee that it is not a competitor of Gaussian, Inc. and that
 it will not use this program in any manner prohibited above.
 ---------------------------------------------------------------
  

 Cite this work as:
 Gaussian 16, Revision A.03,
 M. J. Frisch, G. W. Trucks, H. B. Schlegel, G. E. Scuseria, 
 M. A. Robb, J. R. Cheeseman, G. Scalmani, V. Barone, 
 G. A. Petersson, H. Nakatsuji, X. Li, M. Caricato, A. V. Marenich, 
 J. Bloino, B. G. Janesko, R. Gomperts, B. Mennucci, H. P. Hratchian, 
 J. V. Ortiz, A. F. Izmaylov, J. L. Sonnenberg, D. Williams-Young, 
 F. Ding, F. Lipparini, F. Egidi, J. Goings, B. Peng, A. Petrone, 
 T. Henderson, D. Ranasinghe, V. G. Zakrzewski, J. Gao, N. Rega, 
 G. Zheng, W. Liang, M. Hada, M. Ehara, K. Toyota, R. Fukuda, 
 J. Hasegawa, M. Ishida, T. Nakajima, Y. Honda, O. Kitao, H. Nakai, 
 T. Vreven, K. Throssell, J. A. Montgomery, Jr., J. E. Peralta, 
 F. Ogliaro, M. J. Bearpark, J. J. Heyd, E. N. Brothers, K. N. Kudin, 
 V. N. Staroverov, T. A. Keith, R. Kobayashi, J. Normand, 
 K. Raghavachari, A. P. Rendell, J. C. Burant, S. S. Iyengar, 
 J. Tomasi, M. Cossi, J. M. Millam, M. Klene, C. Adamo, R. Cammi, 
 J. W. Ochterski, R. L. Martin, K. Morokuma, O. Farkas, 
 J. B. Foresman, and D. J. Fox, Gaussian, Inc., Wallingford CT, 2016.
 
 ******************************************
 Gaussian 16:  EM64L-G16RevA.03 25-Dec-2016
                29-Jan-2021 
 ******************************************
 %mem=30GB
 %nproc=8
 Will use up to    8 processors via shared memory.
 ----------------------------------------------------------------------
 #P LC-wHPBE/TZVP iop(3/107=0221600000, 3/108=0221600000) scf=(conver=6
 ,fermi,ndamp=35,noincfock,novaracc,vshift=500,xqc)
 ----------------------------------------------------------------------
 1/38=1,172=1/1;
 2/12=2,17=6,18=5,40=1/2;
 3/5=19,7=101,11=2,25=1,30=1,74=-71,107=221600000,108=221600000/1,2,3;
 4//1;
 5/5=100002,6=6,8=3,10=500,13=1,18=-1,22=13,38=1,93=35/2,8;
 6/7=2,8=2,9=2,10=2,28=1/1;
 99/5=1,9=1/99;
 Leave Link    1 at Fri Jan 29 11:39:09 2021, MaxMem=  4026531840 cpu:               1.8 elap:               0.3
 (Enter /opt/ohpc/pub/libs/gaussian/g16-A.03/sandybridge/g16/l101.exe)
 -------------
 H28 C36 S2 N2
 -------------
 Symbolic Z-matrix:
 Charge =  0 Multiplicity = 1
 C                    -2.60495   0.98535  -0.4776 
 C                    -1.59547   1.22765  -1.3969 
 S                    -0.45975   2.55784  -1.07366 
 C                    -1.50998   0.46723  -2.56416 
 C                     1.04378   0.45573  -0.02172 
 C                     1.03833   1.6821   -0.66831 
 C                    -3.55759  -0.00175  -0.69717 
 C                    -2.44711  -0.53915  -2.76444 
 H                    -0.59632  -0.14267  -4.60505 
 C                     2.23873  -0.14765   0.3198 
 C                     2.24654   2.29783  -0.96192 
 C                     3.4421    1.69472  -0.62117 
 C                     3.4531    0.46292   0.02384 
 H                     2.23426  -1.10624   0.8278 
 H                     2.25393   3.24835  -1.48635 
 H                     4.38168   2.17824  -0.86646 
 C                    -3.46167  -0.76408  -1.85628 
 H                    -2.64667   1.58552   0.42472 
 H                     0.10694  -0.03264   0.22438 
 H                    -2.40424  -1.14624  -3.66328 
 H                    -4.19289  -1.54201  -2.04788 
 S                    -0.23356   0.81746  -3.73747 
 N                     4.67369  -0.15955   0.36875 
 C                     5.73251   0.61266   0.89656 
 C                     7.0457    0.37796   0.49945 
 C                     5.47587   1.62233   1.81957 
 C                     8.07874   1.13315   1.02456 
 C                     6.51287   2.38463   2.32621 
 C                     7.82031   2.14318   1.9369 
 H                     7.25165  -0.40367  -0.22406 
 H                     4.45483   1.8073    2.13612 
 H                     9.0974    0.93653   0.70487 
 H                     6.29513   3.16901   3.04442 
 H                     8.6322    2.7384    2.34134 
 C                     4.83705  -1.54815   0.16853 
 C                     5.51607  -2.32162   1.10579 
 C                     4.31902  -2.16354  -0.96749 
 C                     5.67999  -3.67983   0.90253 
 C                     4.47234  -3.52557  -1.15401 
 C                     5.15666  -4.29201  -0.22481 
 H                     5.9172   -1.84882   1.99595 
 H                     3.79167  -1.56607  -1.70365 
 H                     6.21321  -4.26806   1.64295 
 H                     4.06165  -3.98973  -2.04533 
 H                     5.28122  -5.35883  -0.3779 
 N                    -4.59137  -0.22524   0.23557 
 C                    -4.99681  -1.54462   0.53937 
 C                    -6.34593  -1.84946   0.69364 
 C                    -4.05361  -2.55701   0.68817 
 C                    -6.73855  -3.14012   0.99882 
 C                    -4.45592  -3.84892   0.97571 
 C                    -5.79871  -4.14859   1.13714 
 H                    -7.08584  -1.06498   0.57541 
 H                    -2.99978  -2.32462   0.57667 
 H                    -7.79475  -3.36103   1.1174 
 H                    -3.70742  -4.62708   1.08827 
 H                    -6.11071  -5.16122   1.36994 
 C                    -5.22846   0.87291   0.85935 
 C                    -5.54818   0.82477   2.2126 
 C                    -5.54192   2.01493   0.12913 
 C                    -6.17805   1.89709   2.81802 
 C                    -6.15512   3.09024   0.74651 
 C                    -6.48119   3.03723   2.09175 
 H                    -5.30093  -0.06162   2.78718 
 H                    -5.29956   2.05613  -0.92758 
 H                    -6.42172   1.84431   3.87453 
 H                    -6.3907    3.97529   0.16388 
 H                    -6.96763   3.87989   2.57161 
 
 ITRead=  0  0  0  0  0  0  0  0  0  0  0  0  0  0  0  0  0  0  0  0
 ITRead=  0  0  0  0  0  0  0  0  0  0  0  0  0  0  0  0  0  0  0  0
 ITRead=  0  0  0  0  0  0  0  0  0  0  0  0  0  0  0  0  0  0  0  0
 ITRead=  0  0  0  0  0  0  0  0
 MicOpt= -1 -1 -1 -1 -1 -1 -1 -1 -1 -1 -1 -1 -1 -1 -1 -1 -1 -1 -1 -1
 MicOpt= -1 -1 -1 -1 -1 -1 -1 -1 -1 -1 -1 -1 -1 -1 -1 -1 -1 -1 -1 -1
 MicOpt= -1 -1 -1 -1 -1 -1 -1 -1 -1 -1 -1 -1 -1 -1 -1 -1 -1 -1 -1 -1
 MicOpt= -1 -1 -1 -1 -1 -1 -1 -1
 NAtoms=     68 NQM=       68 NQMF=       0 NMMI=      0 NMMIF=      0
                NMic=       0 NMicF=      0.
                    Isotopes and Nuclear Properties:
 (Nuclear quadrupole moments (NQMom) in fm**2, nuclear magnetic moments (NMagM)
  in nuclear magnetons)

  Atom         1           2           3           4           5           6           7           8           9          10
 IAtWgt=          12          12          32          12          12          12          12          12           1          12
 AtmWgt=  12.0000000  12.0000000  31.9720718  12.0000000  12.0000000  12.0000000  12.0000000  12.0000000   1.0078250  12.0000000
 NucSpn=           0           0           0           0           0           0           0           0           1           0
 AtZEff=  -0.0000000  -0.0000000  -0.0000000  -0.0000000  -0.0000000  -0.0000000  -0.0000000  -0.0000000  -0.0000000  -0.0000000
 NQMom=    0.0000000   0.0000000   0.0000000   0.0000000   0.0000000   0.0000000   0.0000000   0.0000000   0.0000000   0.0000000
 NMagM=    0.0000000   0.0000000   0.0000000   0.0000000   0.0000000   0.0000000   0.0000000   0.0000000   2.7928460   0.0000000
 AtZNuc=   6.0000000   6.0000000  16.0000000   6.0000000   6.0000000   6.0000000   6.0000000   6.0000000   1.0000000   6.0000000

  Atom        11          12          13          14          15          16          17          18          19          20
 IAtWgt=          12          12          12           1           1           1          12           1           1           1
 AtmWgt=  12.0000000  12.0000000  12.0000000   1.0078250   1.0078250   1.0078250  12.0000000   1.0078250   1.0078250   1.0078250
 NucSpn=           0           0           0           1           1           1           0           1           1           1
 AtZEff=  -0.0000000  -0.0000000  -0.0000000  -0.0000000  -0.0000000  -0.0000000  -0.0000000  -0.0000000  -0.0000000  -0.0000000
 NQMom=    0.0000000   0.0000000   0.0000000   0.0000000   0.0000000   0.0000000   0.0000000   0.0000000   0.0000000   0.0000000
 NMagM=    0.0000000   0.0000000   0.0000000   2.7928460   2.7928460   2.7928460   0.0000000   2.7928460   2.7928460   2.7928460
 AtZNuc=   6.0000000   6.0000000   6.0000000   1.0000000   1.0000000   1.0000000   6.0000000   1.0000000   1.0000000   1.0000000

  Atom        21          22          23          24          25          26          27          28          29          30
 IAtWgt=           1          32          14          12          12          12          12          12          12           1
 AtmWgt=   1.0078250  31.9720718  14.0030740  12.0000000  12.0000000  12.0000000  12.0000000  12.0000000  12.0000000   1.0078250
 NucSpn=           1           0           2           0           0           0           0           0           0           1
 AtZEff=  -0.0000000  -0.0000000  -0.0000000  -0.0000000  -0.0000000  -0.0000000  -0.0000000  -0.0000000  -0.0000000  -0.0000000
 NQMom=    0.0000000   0.0000000   2.0440000   0.0000000   0.0000000   0.0000000   0.0000000   0.0000000   0.0000000   0.0000000
 NMagM=    2.7928460   0.0000000   0.4037610   0.0000000   0.0000000   0.0000000   0.0000000   0.0000000   0.0000000   2.7928460
 AtZNuc=   1.0000000  16.0000000   7.0000000   6.0000000   6.0000000   6.0000000   6.0000000   6.0000000   6.0000000   1.0000000

  Atom        31          32          33          34          35          36          37          38          39          40
 IAtWgt=           1           1           1           1          12          12          12          12          12          12
 AtmWgt=   1.0078250   1.0078250   1.0078250   1.0078250  12.0000000  12.0000000  12.0000000  12.0000000  12.0000000  12.0000000
 NucSpn=           1           1           1           1           0           0           0           0           0           0
 AtZEff=  -0.0000000  -0.0000000  -0.0000000  -0.0000000  -0.0000000  -0.0000000  -0.0000000  -0.0000000  -0.0000000  -0.0000000
 NQMom=    0.0000000   0.0000000   0.0000000   0.0000000   0.0000000   0.0000000   0.0000000   0.0000000   0.0000000   0.0000000
 NMagM=    2.7928460   2.7928460   2.7928460   2.7928460   0.0000000   0.0000000   0.0000000   0.0000000   0.0000000   0.0000000
 AtZNuc=   1.0000000   1.0000000   1.0000000   1.0000000   6.0000000   6.0000000   6.0000000   6.0000000   6.0000000   6.0000000

  Atom        41          42          43          44          45          46          47          48          49          50
 IAtWgt=           1           1           1           1           1          14          12          12          12          12
 AtmWgt=   1.0078250   1.0078250   1.0078250   1.0078250   1.0078250  14.0030740  12.0000000  12.0000000  12.0000000  12.0000000
 NucSpn=           1           1           1           1           1           2           0           0           0           0
 AtZEff=  -0.0000000  -0.0000000  -0.0000000  -0.0000000  -0.0000000  -0.0000000  -0.0000000  -0.0000000  -0.0000000  -0.0000000
 NQMom=    0.0000000   0.0000000   0.0000000   0.0000000   0.0000000   2.0440000   0.0000000   0.0000000   0.0000000   0.0000000
 NMagM=    2.7928460   2.7928460   2.7928460   2.7928460   2.7928460   0.4037610   0.0000000   0.0000000   0.0000000   0.0000000
 AtZNuc=   1.0000000   1.0000000   1.0000000   1.0000000   1.0000000   7.0000000   6.0000000   6.0000000   6.0000000   6.0000000

  Atom        51          52          53          54          55          56          57          58          59          60
 IAtWgt=          12          12           1           1           1           1           1          12          12          12
 AtmWgt=  12.0000000  12.0000000   1.0078250   1.0078250   1.0078250   1.0078250   1.0078250  12.0000000  12.0000000  12.0000000
 NucSpn=           0           0           1           1           1           1           1           0           0           0
 AtZEff=  -0.0000000  -0.0000000  -0.0000000  -0.0000000  -0.0000000  -0.0000000  -0.0000000  -0.0000000  -0.0000000  -0.0000000
 NQMom=    0.0000000   0.0000000   0.0000000   0.0000000   0.0000000   0.0000000   0.0000000   0.0000000   0.0000000   0.0000000
 NMagM=    0.0000000   0.0000000   2.7928460   2.7928460   2.7928460   2.7928460   2.7928460   0.0000000   0.0000000   0.0000000
 AtZNuc=   6.0000000   6.0000000   1.0000000   1.0000000   1.0000000   1.0000000   1.0000000   6.0000000   6.0000000   6.0000000

  Atom        61          62          63          64          65          66          67          68
 IAtWgt=          12          12          12           1           1           1           1           1
 AtmWgt=  12.0000000  12.0000000  12.0000000   1.0078250   1.0078250   1.0078250   1.0078250   1.0078250
 NucSpn=           0           0           0           1           1           1           1           1
 AtZEff=  -0.0000000  -0.0000000  -0.0000000  -0.0000000  -0.0000000  -0.0000000  -0.0000000  -0.0000000
 NQMom=    0.0000000   0.0000000   0.0000000   0.0000000   0.0000000   0.0000000   0.0000000   0.0000000
 NMagM=    0.0000000   0.0000000   0.0000000   2.7928460   2.7928460   2.7928460   2.7928460   2.7928460
 AtZNuc=   6.0000000   6.0000000   6.0000000   1.0000000   1.0000000   1.0000000   1.0000000   1.0000000
 Leave Link  101 at Fri Jan 29 11:39:10 2021, MaxMem=  4026531840 cpu:               0.9 elap:               0.2
 (Enter /opt/ohpc/pub/libs/gaussian/g16-A.03/sandybridge/g16/l202.exe)
 Stoichiometry    C36H28N2S2
 Framework group  C1[X(C36H28N2S2)]
 Deg. of freedom   198
 Full point group                 C1      NOp   1
 Largest Abelian subgroup         C1      NOp   1
 Largest concise Abelian subgroup C1      NOp   1
                         Standard orientation:                         
 ---------------------------------------------------------------------
 Center     Atomic      Atomic             Coordinates (Angstroms)
 Number     Number       Type             X           Y           Z
 ---------------------------------------------------------------------
      1          6           0       -2.604951   -0.985352    0.477595
      2          6           0       -1.595468   -1.227646    1.396897
      3         16           0       -0.459746   -2.557842    1.073663
      4          6           0       -1.509976   -0.467226    2.564163
      5          6           0        1.043777   -0.455726    0.021717
      6          6           0        1.038330   -1.682104    0.668307
      7          6           0       -3.557585    0.001751    0.697168
      8          6           0       -2.447111    0.539154    2.764444
      9          1           0       -0.596318    0.142670    4.605045
     10          6           0        2.238728    0.147647   -0.319798
     11          6           0        2.246539   -2.297832    0.961919
     12          6           0        3.442101   -1.694718    0.621166
     13          6           0        3.453096   -0.462920   -0.023837
     14          1           0        2.234263    1.106243   -0.827797
     15          1           0        2.253931   -3.248348    1.486346
     16          1           0        4.381679   -2.178238    0.866461
     17          6           0       -3.461673    0.764082    1.856276
     18          1           0       -2.646669   -1.585519   -0.424718
     19          1           0        0.106936    0.032641   -0.224382
     20          1           0       -2.404245    1.146243    3.663282
     21          1           0       -4.192893    1.542008    2.047877
     22         16           0       -0.233558   -0.817463    3.737465
     23          7           0        4.673686    0.159547   -0.368747
     24          6           0        5.732508   -0.612661   -0.896564
     25          6           0        7.045695   -0.377960   -0.499452
     26          6           0        5.475865   -1.622329   -1.819567
     27          6           0        8.078745   -1.133154   -1.024558
     28          6           0        6.512871   -2.384632   -2.326214
     29          6           0        7.820306   -2.143178   -1.936900
     30          1           0        7.251646    0.403669    0.224060
     31          1           0        4.454830   -1.807304   -2.136118
     32          1           0        9.097402   -0.936530   -0.704866
     33          1           0        6.295127   -3.169013   -3.044416
     34          1           0        8.632202   -2.738403   -2.341339
     35          6           0        4.837054    1.548147   -0.168533
     36          6           0        5.516065    2.321618   -1.105787
     37          6           0        4.319017    2.163542    0.967486
     38          6           0        5.679987    3.679833   -0.902534
     39          6           0        4.472338    3.525567    1.154010
     40          6           0        5.156657    4.292005    0.224805
     41          1           0        5.917204    1.848815   -1.995947
     42          1           0        3.791670    1.566068    1.703651
     43          1           0        6.213214    4.268058   -1.642948
     44          1           0        4.061647    3.989730    2.045325
     45          1           0        5.281223    5.358830    0.377899
     46          7           0       -4.591369    0.225236   -0.235572
     47          6           0       -4.996809    1.544618   -0.539366
     48          6           0       -6.345932    1.849462   -0.693639
     49          6           0       -4.053605    2.557013   -0.688173
     50          6           0       -6.738551    3.140118   -0.998819
     51          6           0       -4.455920    3.848924   -0.975713
     52          6           0       -5.798707    4.148587   -1.137139
     53          1           0       -7.085839    1.064984   -0.575406
     54          1           0       -2.999778    2.324624   -0.576668
     55          1           0       -7.794748    3.361033   -1.117399
     56          1           0       -3.707423    4.627077   -1.088273
     57          1           0       -6.110711    5.161215   -1.369943
     58          6           0       -5.228462   -0.872905   -0.859345
     59          6           0       -5.548183   -0.824769   -2.212595
     60          6           0       -5.541916   -2.014931   -0.129127
     61          6           0       -6.178047   -1.897088   -2.818017
     62          6           0       -6.155123   -3.090236   -0.746513
     63          6           0       -6.481192   -3.037227   -2.091754
     64          1           0       -5.300925    0.061617   -2.787177
     65          1           0       -5.299559   -2.056134    0.927579
     66          1           0       -6.421719   -1.844307   -3.874525
     67          1           0       -6.390696   -3.975287   -0.163884
     68          1           0       -6.967632   -3.879890   -2.571608
 ---------------------------------------------------------------------
 Rotational constants (GHZ):           0.1314912           0.0372042           0.0344004
 Leave Link  202 at Fri Jan 29 11:39:10 2021, MaxMem=  4026531840 cpu:               0.2 elap:               0.0
 (Enter /opt/ohpc/pub/libs/gaussian/g16-A.03/sandybridge/g16/l301.exe)
 Standard basis: TZVP (5D, 7F)
 Ernie: Thresh=  0.10000D-02 Tol=  0.10000D-05 Strict=F.
 There are   974 symmetry adapted cartesian basis functions of A   symmetry.
 There are   934 symmetry adapted basis functions of A   symmetry.
   934 basis functions,  1648 primitive gaussians,   974 cartesian basis functions
   145 alpha electrons      145 beta electrons
       nuclear repulsion energy      4395.1421619507 Hartrees.
 IExCor=33909 DFT=T Ex+Corr=LC-wHPBE ExCW=0 ScaHFX=  1.000000
 ScaDFX=  1.000000  1.000000  1.000000  1.000000 ScalE2=  1.000000  1.000000
 IRadAn=      5 IRanWt=     -1 IRanGd=            0 ICorTp=0 IEmpDi=  4
 HFx  wShort=  0.000000 wLong=  0.221600 cFull=  0.000000 cShort=  0.000000 cLong=  1.000000
 DFx  wShort=  0.000000 wLong=  0.221600 cFull=  0.000000 cShort=  1.000000 cLong=  0.000000
 NAtoms=   68 NActive=   68 NUniq=   68 SFac= 1.00D+00 NAtFMM=   60 NAOKFM=T Big=T
 Integral buffers will be    131072 words long.
 Raffenetti 2 integral format.
 Two-electron integral symmetry is turned on.
 Leave Link  301 at Fri Jan 29 11:39:10 2021, MaxMem=  4026531840 cpu:               0.4 elap:               0.1
 (Enter /opt/ohpc/pub/libs/gaussian/g16-A.03/sandybridge/g16/l302.exe)
 NPDir=0 NMtPBC=     1 NCelOv=     1 NCel=       1 NClECP=     1 NCelD=      1
         NCelK=      1 NCelE2=     1 NClLst=     1 CellRange=     0.0.
 One-electron integrals computed using PRISM.
 One-electron integral symmetry used in STVInt
 NBasis=   934 RedAO= T EigKep=  5.84D-06  NBF=   934
 NBsUse=   934 1.00D-06 EigRej= -1.00D+00 NBFU=   934
 Precomputing XC quadrature grid using
 IXCGrd= 4 IRadAn=           5 IRanWt=          -1 IRanGd=           0 AccXCQ= 0.00D+00.
 Generated NRdTot=       0 NPtTot=           0 NUsed=           0 NTot=          32
 NSgBfM=   919   919   919   919   919 MxSgAt=    68 MxSgA2=    68.
 Leave Link  302 at Fri Jan 29 11:39:13 2021, MaxMem=  4026531840 cpu:              25.4 elap:               3.2
 (Enter /opt/ohpc/pub/libs/gaussian/g16-A.03/sandybridge/g16/l303.exe)
 DipDrv:  MaxL=1.
 Leave Link  303 at Fri Jan 29 11:39:13 2021, MaxMem=  4026531840 cpu:               1.8 elap:               0.3
 (Enter /opt/ohpc/pub/libs/gaussian/g16-A.03/sandybridge/g16/l401.exe)
 ExpMin= 9.52D-02 ExpMax= 6.07D+04 ExpMxC= 2.07D+03 IAcc=3 IRadAn=         5 AccDes= 0.00D+00
 Harris functional with IExCor=33909 and IRadAn=       5 diagonalized for initial guess.
 HarFok:  IExCor=33909 AccDes= 0.00D+00 IRadAn=         5 IDoV= 1 UseB2=F ITyADJ=14
 ICtDFT=  3500011 ScaDFX=  1.000000  1.000000  1.000000  1.000000
 FoFCou: FMM=F IPFlag=           0 FMFlag=      100000 FMFlg1=        2001
         NFxFlg=           0 DoJE=T BraDBF=F KetDBF=T FulRan=T
         wScrn=  0.000000 ICntrl=       500 IOpCl=  0 I1Cent=   200000004 NGrid=           0
         NMat0=    1 NMatS0=      1 NMatT0=    0 NMatD0=    1 NMtDS0=    0 NMtDT0=    0
 Petite list used in FoFCou.
 Harris En= -2259.35661532236    
 JPrj=0 DoOrth=F DoCkMO=F.
 Leave Link  401 at Fri Jan 29 11:39:29 2021, MaxMem=  4026531840 cpu:             121.1 elap:              15.2
 (Enter /opt/ohpc/pub/libs/gaussian/g16-A.03/sandybridge/g16/l502.exe)
 Integral symmetry usage will be decided dynamically.
 Closed shell SCF:
 Using DIIS extrapolation, IDIIS=    10.
 NGot=  4026531840 LenX=  4024617300 LenY=  4023667650
 Requested convergence on RMS density matrix=1.00D-06 within  32 cycles.
 Requested convergence on MAX density matrix=1.00D-04.
 Requested convergence on             energy=1.00D-04.
 Virtual orbitals will be shifted by   0.500 hartree.
 No special actions if energy rises.
 Dynamic level shift is on during FON iterations.

 Cycle   1  Pass 1  IDiag  1:
 FoFJK:  IHMeth= 1 ICntrl=       0 DoSepK=T KAlg= 0 I1Cent=           0 FoldK=F
 IRaf=         1 NMat=       1 IRICut=       1 DoRegI=T DoRafI=F ISym2E= 0 IDoP0=0 IntGTp=1.
 FoFCou: FMM=T IPFlag=           0 FMFlag=      100000 FMFlg1=        2001
         NFxFlg=           0 DoJE=T BraDBF=F KetDBF=F FulRan=T
         wScrn=  0.000000 ICntrl=       500 IOpCl=  0 I1Cent=           0 NGrid=           0
         NMat0=    1 NMatS0=      1 NMatT0=    0 NMatD0=    1 NMtDS0=    0 NMtDT0=    0
 Symmetry not used in FoFCou.
 FMM levels:  10  Number of levels for PrismC:   9
 E= -2292.70379551380    
 DIIS: error= 3.09D-02 at cycle   1 NSaved=   1.
 NSaved= 1 IEnMin= 1 EnMin= -2292.70379551380     IErMin= 1 ErrMin= 3.09D-02
 ErrMax= 3.09D-02  0.00D+00 EMaxC= 1.00D+00 BMatC= 7.07D-01 BMatP= 7.07D-01
 IDIUse=1 WtCom= 1.00D+00 WtEn= 0.00D+00
 Coeff-Com:  0.100D+01
 Coeff:      0.100D+01
 Gap=     0.410 Goal=   None    Shift=    0.500
 T= 1514. Gap= 0.712 NK=0 IS=  146 IE=  934 IFin=  145
          NO(<0.9)=   0  NV(>0.1)=   0    145.00e < EF      0.00e >EF  Err=0.0D+00
 GapD=    0.410 DampG=2.000 DampE=0.500 DampFc=1.0000 IDamp=-1.
 RMSDP=2.37D-03 MaxDP=2.14D-01              OVMax= 8.07D-02

 Cycle   2  Pass 1  IDiag  1:
 E= -2293.33988238733     Delta-E=       -0.636086873531 Rises=F Damp=F
 DIIS: error= 7.29D-03 at cycle   2 NSaved=   2.
 NSaved= 2 IEnMin= 2 EnMin= -2293.33988238733     IErMin= 2 ErrMin= 7.29D-03
 ErrMax= 7.29D-03  0.00D+00 EMaxC= 1.00D+00 BMatC= 8.32D-02 BMatP= 7.07D-01
 IDIUse=1 WtCom= 1.00D+00 WtEn= 0.00D+00
 Coeff-Com:  0.220D+00 0.780D+00
 Coeff:      0.220D+00 0.780D+00
 Gap=     0.305 Goal=   None    Shift=    0.500
 T= 1337. Gap= 0.749 NK=0 IS=  146 IE=  934 IFin=  145
          NO(<0.9)=   0  NV(>0.1)=   0    145.00e < EF      0.00e >EF  Err=0.0D+00
 GapD=    0.305 DampG=1.000 DampE=1.000 DampFc=1.0000 IDamp=-1.
 RMSDP=8.12D-04 MaxDP=9.66D-02 DE=-6.36D-01 OVMax= 1.94D-02

 Cycle   3  Pass 1  IDiag  1:
 E= -2293.39831852621     Delta-E=       -0.058436138876 Rises=F Damp=F
 DIIS: error= 2.00D-03 at cycle   3 NSaved=   3.
 NSaved= 3 IEnMin= 3 EnMin= -2293.39831852621     IErMin= 3 ErrMin= 2.00D-03
 ErrMax= 2.00D-03  0.00D+00 EMaxC= 1.00D+00 BMatC= 6.13D-03 BMatP= 8.32D-02
 IDIUse=1 WtCom= 1.00D+00 WtEn= 0.00D+00
 Coeff-Com:  0.676D-01 0.112D-01 0.921D+00
 Coeff:      0.676D-01 0.112D-01 0.921D+00
 Gap=     0.271 Goal=   None    Shift=    0.500
 T= 1012. Gap= 0.768 NK=0 IS=  146 IE=  934 IFin=  145
          NO(<0.9)=   0  NV(>0.1)=   0    145.00e < EF      0.00e >EF  Err=0.0D+00
 GapD=    0.271 DampG=1.000 DampE=1.000 DampFc=1.0000 IDamp=-1.
 RMSDP=3.06D-04 MaxDP=4.42D-02 DE=-5.84D-02 OVMax= 1.24D-02

 Cycle   4  Pass 1  IDiag  1:
 E= -2293.40457120790     Delta-E=       -0.006252681686 Rises=F Damp=F
 DIIS: error= 1.03D-03 at cycle   4 NSaved=   4.
 NSaved= 4 IEnMin= 4 EnMin= -2293.40457120790     IErMin= 4 ErrMin= 1.03D-03
 ErrMax= 1.03D-03  0.00D+00 EMaxC= 1.00D+00 BMatC= 1.00D-03 BMatP= 6.13D-03
 IDIUse=1 WtCom= 1.00D+00 WtEn= 0.00D+00
 Coeff-Com:  0.124D-01-0.647D-01 0.626D-01 0.990D+00
 Coeff:      0.124D-01-0.647D-01 0.626D-01 0.990D+00
 Gap=     0.267 Goal=   None    Shift=    0.500
 T=  197. Gap= 0.767 NK=0 IS=  146 IE=  934 IFin=  145
          NO(<0.9)=   0  NV(>0.1)=   0    145.00e < EF      0.00e >EF  Err=0.0D+00
 GapD=    0.267 DampG=1.000 DampE=1.000 DampFc=1.0000 IDamp=-1.
 RMSDP=1.59D-04 MaxDP=1.69D-02 DE=-6.25D-03 OVMax= 7.45D-03

 Cycle   5  Pass 1  IDiag  1:
 E= -2293.40609327661     Delta-E=       -0.001522068712 Rises=F Damp=F
 DIIS: error= 8.61D-04 at cycle   5 NSaved=   5.
 NSaved= 5 IEnMin= 5 EnMin= -2293.40609327661     IErMin= 5 ErrMin= 8.61D-04
 ErrMax= 8.61D-04  0.00D+00 EMaxC= 1.00D+00 BMatC= 1.86D-04 BMatP= 1.00D-03
 IDIUse=1 WtCom= 1.00D+00 WtEn= 0.00D+00
 Coeff-Com: -0.551D-02-0.103D-01-0.939D-01-0.228D+00 0.134D+01
 Coeff:     -0.551D-02-0.103D-01-0.939D-01-0.228D+00 0.134D+01
 Gap=     0.268 Goal=   None    Shift=    0.500
 RMSDP=1.11D-04 MaxDP=9.23D-03 DE=-1.52D-03 OVMax= 6.38D-03

 Cycle   6  Pass 1  IDiag  1:
 E= -2293.40666105850     Delta-E=       -0.000567781894 Rises=F Damp=F
 DIIS: error= 6.43D-04 at cycle   6 NSaved=   6.
 NSaved= 6 IEnMin= 6 EnMin= -2293.40666105850     IErMin= 6 ErrMin= 6.43D-04
 ErrMax= 6.43D-04  0.00D+00 EMaxC= 1.00D+00 BMatC= 6.40D-05 BMatP= 1.86D-04
 IDIUse=1 WtCom= 1.00D+00 WtEn= 0.00D+00
 Coeff-Com: -0.572D-02 0.122D-01-0.358D-01-0.270D+00-0.183D+00 0.148D+01
 Coeff:     -0.572D-02 0.122D-01-0.358D-01-0.270D+00-0.183D+00 0.148D+01
 Gap=     0.269 Goal=   None    Shift=    0.500
 RMSDP=7.10D-05 MaxDP=5.82D-03 DE=-5.68D-04 OVMax= 5.22D-03

 Cycle   7  Pass 1  IDiag  1:
 E= -2293.40693638326     Delta-E=       -0.000275324762 Rises=F Damp=F
 DIIS: error= 4.62D-04 at cycle   7 NSaved=   7.
 NSaved= 7 IEnMin= 7 EnMin= -2293.40693638326     IErMin= 7 ErrMin= 4.62D-04
 ErrMax= 4.62D-04  0.00D+00 EMaxC= 1.00D+00 BMatC= 2.70D-05 BMatP= 6.40D-05
 IDIUse=1 WtCom= 1.00D+00 WtEn= 0.00D+00
 Coeff-Com: -0.127D-02 0.589D-02 0.210D-01 0.198D-01-0.611D+00-0.186D+00
 Coeff-Com:  0.175D+01
 Coeff:     -0.127D-02 0.589D-02 0.210D-01 0.198D-01-0.611D+00-0.186D+00
 Coeff:      0.175D+01
 Gap=     0.269 Goal=   None    Shift=    0.500
 RMSDP=4.71D-05 MaxDP=4.83D-03 DE=-2.75D-04 OVMax= 4.11D-03

 Cycle   8  Pass 1  IDiag  1:
 E= -2293.40707553775     Delta-E=       -0.000139154486 Rises=F Damp=F
 DIIS: error= 3.28D-04 at cycle   8 NSaved=   8.
 NSaved= 8 IEnMin= 8 EnMin= -2293.40707553775     IErMin= 8 ErrMin= 3.28D-04
 ErrMax= 3.28D-04  0.00D+00 EMaxC= 1.00D+00 BMatC= 1.14D-05 BMatP= 2.70D-05
 IDIUse=1 WtCom= 1.00D+00 WtEn= 0.00D+00
 Coeff-Com:  0.749D-03-0.166D-02 0.525D-02 0.120D+00-0.848D-01-0.664D+00
 Coeff-Com: -0.329D+00 0.195D+01
 Coeff:      0.749D-03-0.166D-02 0.525D-02 0.120D+00-0.848D-01-0.664D+00
 Coeff:     -0.329D+00 0.195D+01
 Gap=     0.269 Goal=   None    Shift=    0.500
 RMSDP=3.01D-05 MaxDP=3.20D-03 DE=-1.39D-04 OVMax= 3.08D-03

 Cycle   9  Pass 1  IDiag  1:
 E= -2293.40713891280     Delta-E=       -0.000063375053 Rises=F Damp=F
 DIIS: error= 2.22D-04 at cycle   9 NSaved=   9.
 NSaved= 9 IEnMin= 9 EnMin= -2293.40713891280     IErMin= 9 ErrMin= 2.22D-04
 ErrMax= 2.22D-04  0.00D+00 EMaxC= 1.00D+00 BMatC= 4.96D-06 BMatP= 1.14D-05
 IDIUse=1 WtCom= 1.00D+00 WtEn= 0.00D+00
 Coeff-Com:  0.355D-03-0.151D-02-0.127D-01 0.564D-01 0.166D+00-0.305D+00
 Coeff-Com: -0.728D+00 0.181D+00 0.164D+01
 Coeff:      0.355D-03-0.151D-02-0.127D-01 0.564D-01 0.166D+00-0.305D+00
 Coeff:     -0.728D+00 0.181D+00 0.164D+01
 Gap=     0.269 Goal=   None    Shift=    0.500
 RMSDP=1.82D-05 MaxDP=1.90D-03 DE=-6.34D-05 OVMax= 2.13D-03

 Cycle  10  Pass 1  IDiag  1:
 E= -2293.40716621571     Delta-E=       -0.000027302904 Rises=F Damp=F
 DIIS: error= 1.52D-04 at cycle  10 NSaved=  10.
 NSaved=10 IEnMin=10 EnMin= -2293.40716621571     IErMin=10 ErrMin= 1.52D-04
 ErrMax= 1.52D-04  0.00D+00 EMaxC= 1.00D+00 BMatC= 2.03D-06 BMatP= 4.96D-06
 IDIUse=1 WtCom= 1.00D+00 WtEn= 0.00D+00
 Coeff-Com: -0.216D-03 0.926D-03-0.684D-02-0.128D-01 0.376D-01 0.126D+00
 Coeff-Com: -0.330D-01-0.793D+00-0.406D+00 0.209D+01
 Coeff:     -0.216D-03 0.926D-03-0.684D-02-0.128D-01 0.376D-01 0.126D+00
 Coeff:     -0.330D-01-0.793D+00-0.406D+00 0.209D+01
 Gap=     0.269 Goal=   None    Shift=    0.500
 RMSDP=1.28D-05 MaxDP=1.70D-03 DE=-2.73D-05 OVMax= 1.48D-03

 Cycle  11  Pass 1  IDiag  1:
 E= -2293.40717759558     Delta-E=       -0.000011379876 Rises=F Damp=F
 DIIS: error= 1.01D-04 at cycle  11 NSaved=  11.
 NSaved=11 IEnMin=11 EnMin= -2293.40717759558     IErMin=11 ErrMin= 1.01D-04
 ErrMax= 1.01D-04  0.00D+00 EMaxC= 1.00D+00 BMatC= 8.94D-07 BMatP= 2.03D-06
 IDIUse=1 WtCom= 1.00D+00 WtEn= 0.00D+00
 Coeff-Com: -0.210D-03 0.104D-02 0.887D-03-0.159D-01-0.430D-01 0.142D+00
 Coeff-Com:  0.194D+00-0.416D+00-0.859D+00 0.459D+00 0.154D+01
 Coeff:     -0.210D-03 0.104D-02 0.887D-03-0.159D-01-0.430D-01 0.142D+00
 Coeff:      0.194D+00-0.416D+00-0.859D+00 0.459D+00 0.154D+01
 Gap=     0.269 Goal=   None    Shift=    0.500
 RMSDP=8.02D-06 MaxDP=1.16D-03 DE=-1.14D-05 OVMax= 9.97D-04

 Cycle  12  Pass 1  IDiag  1:
 E= -2293.40718224242     Delta-E=       -0.000004646842 Rises=F Damp=F
 DIIS: error= 6.59D-05 at cycle  12 NSaved=  12.
 NSaved=12 IEnMin=12 EnMin= -2293.40718224242     IErMin=12 ErrMin= 6.59D-05
 ErrMax= 6.59D-05  0.00D+00 EMaxC= 1.00D+00 BMatC= 3.62D-07 BMatP= 8.94D-07
 IDIUse=1 WtCom= 1.00D+00 WtEn= 0.00D+00
 Coeff-Com: -0.512D-04 0.212D-03 0.251D-02-0.380D-03-0.295D-01 0.137D-01
 Coeff-Com:  0.660D-01 0.173D+00-0.351D+00-0.571D+00-0.286D+00 0.198D+01
 Coeff:     -0.512D-04 0.212D-03 0.251D-02-0.380D-03-0.295D-01 0.137D-01
 Coeff:      0.660D-01 0.173D+00-0.351D+00-0.571D+00-0.286D+00 0.198D+01
 Gap=     0.269 Goal=   None    Shift=    0.500
 RMSDP=5.26D-06 MaxDP=8.91D-04 DE=-4.65D-06 OVMax= 6.61D-04

 Cycle  13  Pass 1  IDiag  1:
 E= -2293.40718411044     Delta-E=       -0.000001868014 Rises=F Damp=F
 DIIS: error= 4.43D-05 at cycle  13 NSaved=  13.
 NSaved=13 IEnMin=13 EnMin= -2293.40718411044     IErMin=13 ErrMin= 4.43D-05
 ErrMax= 4.43D-05  0.00D+00 EMaxC= 1.00D+00 BMatC= 1.68D-07 BMatP= 3.62D-07
 IDIUse=1 WtCom= 1.00D+00 WtEn= 0.00D+00
 Coeff-Com:  0.118D-04-0.175D-03 0.733D-04 0.513D-02 0.529D-02-0.348D-01
 Coeff-Com: -0.524D-01 0.228D+00 0.128D+00-0.365D+00-0.114D+01 0.533D+00
 Coeff-Com:  0.169D+01
 Coeff:      0.118D-04-0.175D-03 0.733D-04 0.513D-02 0.529D-02-0.348D-01
 Coeff:     -0.524D-01 0.228D+00 0.128D+00-0.365D+00-0.114D+01 0.533D+00
 Coeff:      0.169D+01
 Gap=     0.269 Goal=   None    Shift=    0.500
 RMSDP=3.13D-06 MaxDP=4.66D-04 DE=-1.87D-06 OVMax= 4.49D-04

 Cycle  14  Pass 1  IDiag  1:
 E= -2293.40718488923     Delta-E=       -0.000000778792 Rises=F Damp=F
 DIIS: error= 2.87D-05 at cycle  14 NSaved=  14.
 NSaved=14 IEnMin=14 EnMin= -2293.40718488923     IErMin=14 ErrMin= 2.87D-05
 ErrMax= 2.87D-05  0.00D+00 EMaxC= 1.00D+00 BMatC= 6.91D-08 BMatP= 1.68D-07
 IDIUse=1 WtCom= 1.00D+00 WtEn= 0.00D+00
 Coeff-Com:  0.301D-05-0.131D-03-0.827D-03 0.168D-02 0.995D-02-0.113D-01
 Coeff-Com: -0.413D-01 0.286D-01 0.158D+00 0.740D-01-0.594D+00-0.115D+00
 Coeff-Com: -0.653D+00 0.214D+01
 Coeff:      0.301D-05-0.131D-03-0.827D-03 0.168D-02 0.995D-02-0.113D-01
 Coeff:     -0.413D-01 0.286D-01 0.158D+00 0.740D-01-0.594D+00-0.115D+00
 Coeff:     -0.653D+00 0.214D+01
 Gap=     0.269 Goal=   None    Shift=    0.500
 RMSDP=1.89D-06 MaxDP=2.79D-04 DE=-7.79D-07 OVMax= 2.95D-04

 Cycle  15  Pass 1  IDiag  1:
 E= -2293.40718520090     Delta-E=       -0.000000311673 Rises=F Damp=F
 DIIS: error= 1.86D-05 at cycle  15 NSaved=  15.
 NSaved=15 IEnMin=15 EnMin= -2293.40718520090     IErMin=15 ErrMin= 1.86D-05
 ErrMax= 1.86D-05  0.00D+00 EMaxC= 1.00D+00 BMatC= 2.92D-08 BMatP= 6.91D-08
 IDIUse=1 WtCom= 1.00D+00 WtEn= 0.00D+00
 Coeff-Com: -0.108D-04-0.395D-04-0.181D-03-0.167D-02 0.253D-02 0.938D-02
 Coeff-Com: -0.195D-02-0.559D-01 0.250D-01 0.144D+00 0.340D-01-0.745D-01
 Coeff-Com: -0.132D+01 0.570D+00 0.167D+01
 Coeff:     -0.108D-04-0.395D-04-0.181D-03-0.167D-02 0.253D-02 0.938D-02
 Coeff:     -0.195D-02-0.559D-01 0.250D-01 0.144D+00 0.340D-01-0.745D-01
 Coeff:     -0.132D+01 0.570D+00 0.167D+01
 Gap=     0.269 Goal=   None    Shift=    0.500
 RMSDP=1.11D-06 MaxDP=1.54D-04 DE=-3.12D-07 OVMax= 1.93D-04

 Cycle  16  Pass 1  IDiag  1:
 E= -2293.40718532672     Delta-E=       -0.000000125821 Rises=F Damp=F
 DIIS: error= 1.19D-05 at cycle  16 NSaved=  16.
 NSaved=16 IEnMin=16 EnMin= -2293.40718532672     IErMin=16 ErrMin= 1.19D-05
 ErrMax= 1.19D-05  0.00D+00 EMaxC= 1.00D+00 BMatC= 1.23D-08 BMatP= 2.92D-08
 IDIUse=1 WtCom= 1.00D+00 WtEn= 0.00D+00
 Coeff-Com: -0.983D-05 0.111D-04 0.345D-03-0.185D-02-0.202D-02 0.954D-02
 Coeff-Com:  0.135D-01-0.346D-01-0.476D-01 0.461D-01 0.222D+00 0.517D-01
 Coeff-Com: -0.660D+00-0.415D+00 0.134D-01 0.181D+01
 Coeff:     -0.983D-05 0.111D-04 0.345D-03-0.185D-02-0.202D-02 0.954D-02
 Coeff:      0.135D-01-0.346D-01-0.476D-01 0.461D-01 0.222D+00 0.517D-01
 Coeff:     -0.660D+00-0.415D+00 0.134D-01 0.181D+01
 Gap=     0.269 Goal=   None    Shift=    0.500
 RMSDP=6.47D-07 MaxDP=7.10D-05 DE=-1.26D-07 OVMax= 1.26D-04

 SCF Done:  E(RLC-wHPBE) =  -2293.40718533     A.U. after   16 cycles
            NFock= 16  Conv=0.65D-06     -V/T= 2.0039
 KE= 2.284548417843D+03 PE=-1.415963979064D+04 EE= 5.186542025523D+03
 Leave Link  502 at Fri Jan 29 12:10:33 2021, MaxMem=  4026531840 cpu:           14757.9 elap:            1864.5
 (Enter /opt/ohpc/pub/libs/gaussian/g16-A.03/sandybridge/g16/l508.exe)
 QCSCF skips out because SCF is already converged.
 Leave Link  508 at Fri Jan 29 12:10:33 2021, MaxMem=  4026531840 cpu:               0.0 elap:               0.0
 (Enter /opt/ohpc/pub/libs/gaussian/g16-A.03/sandybridge/g16/l601.exe)
 Copying SCF densities to generalized density rwf, IOpCl= 0 IROHF=0.

 **********************************************************************

            Population analysis using the SCF density.

 **********************************************************************

 Orbital symmetries:
       Occupied  (A) (A) (A) (A) (A) (A) (A) (A) (A) (A) (A) (A)
                 (A) (A) (A) (A) (A) (A) (A) (A) (A) (A) (A) (A)
                 (A) (A) (A) (A) (A) (A) (A) (A) (A) (A) (A) (A)
                 (A) (A) (A) (A) (A) (A) (A) (A) (A) (A) (A) (A)
                 (A) (A) (A) (A) (A) (A) (A) (A) (A) (A) (A) (A)
                 (A) (A) (A) (A) (A) (A) (A) (A) (A) (A) (A) (A)
                 (A) (A) (A) (A) (A) (A) (A) (A) (A) (A) (A) (A)
                 (A) (A) (A) (A) (A) (A) (A) (A) (A) (A) (A) (A)
                 (A) (A) (A) (A) (A) (A) (A) (A) (A) (A) (A) (A)
                 (A) (A) (A) (A) (A) (A) (A) (A) (A) (A) (A) (A)
                 (A) (A) (A) (A) (A) (A) (A) (A) (A) (A) (A) (A)
                 (A) (A) (A) (A) (A) (A) (A) (A) (A) (A) (A) (A)
                 (A)
       Virtual   (A) (A) (A) (A) (A) (A) (A) (A) (A) (A) (A) (A)
                 (A) (A) (A) (A) (A) (A) (A) (A) (A) (A) (A) (A)
                 (A) (A) (A) (A) (A) (A) (A) (A) (A) (A) (A) (A)
                 (A) (A) (A) (A) (A) (A) (A) (A) (A) (A) (A) (A)
                 (A) (A) (A) (A) (A) (A) (A) (A) (A) (A) (A) (A)
                 (A) (A) (A) (A) (A) (A) (A) (A) (A) (A) (A) (A)
                 (A) (A) (A) (A) (A) (A) (A) (A) (A) (A) (A) (A)
                 (A) (A) (A) (A) (A) (A) (A) (A) (A) (A) (A) (A)
                 (A) (A) (A) (A) (A) (A) (A) (A) (A) (A) (A) (A)
                 (A) (A) (A) (A) (A) (A) (A) (A) (A) (A) (A) (A)
                 (A) (A) (A) (A) (A) (A) (A) (A) (A) (A) (A) (A)
                 (A) (A) (A) (A) (A) (A) (A) (A) (A) (A) (A) (A)
                 (A) (A) (A) (A) (A) (A) (A) (A) (A) (A) (A) (A)
                 (A) (A) (A) (A) (A) (A) (A) (A) (A) (A) (A) (A)
                 (A) (A) (A) (A) (A) (A) (A) (A) (A) (A) (A) (A)
                 (A) (A) (A) (A) (A) (A) (A) (A) (A) (A) (A) (A)
                 (A) (A) (A) (A) (A) (A) (A) (A) (A) (A) (A) (A)
                 (A) (A) (A) (A) (A) (A) (A) (A) (A) (A) (A) (A)
                 (A) (A) (A) (A) (A) (A) (A) (A) (A) (A) (A) (A)
                 (A) (A) (A) (A) (A) (A) (A) (A) (A) (A) (A) (A)
                 (A) (A) (A) (A) (A) (A) (A) (A) (A) (A) (A) (A)
                 (A) (A) (A) (A) (A) (A) (A) (A) (A) (A) (A) (A)
                 (A) (A) (A) (A) (A) (A) (A) (A) (A) (A) (A) (A)
                 (A) (A) (A) (A) (A) (A) (A) (A) (A) (A) (A) (A)
                 (A) (A) (A) (A) (A) (A) (A) (A) (A) (A) (A) (A)
                 (A) (A) (A) (A) (A) (A) (A) (A) (A) (A) (A) (A)
                 (A) (A) (A) (A) (A) (A) (A) (A) (A) (A) (A) (A)
                 (A) (A) (A) (A) (A) (A) (A) (A) (A) (A) (A) (A)
                 (A) (A) (A) (A) (A) (A) (A) (A) (A) (A) (A) (A)
                 (A) (A) (A) (A) (A) (A) (A) (A) (A) (A) (A) (A)
                 (A) (A) (A) (A) (A) (A) (A) (A) (A) (A) (A) (A)
                 (A) (A) (A) (A) (A) (A) (A) (A) (A) (A) (A) (A)
                 (A) (A) (A) (A) (A) (A) (A) (A) (A) (A) (A) (A)
                 (A) (A) (A) (A) (A) (A) (A) (A) (A) (A) (A) (A)
                 (A) (A) (A) (A) (A) (A) (A) (A) (A) (A) (A) (A)
                 (A) (A) (A) (A) (A) (A) (A) (A) (A) (A) (A) (A)
                 (A) (A) (A) (A) (A) (A) (A) (A) (A) (A) (A) (A)
                 (A) (A) (A) (A) (A) (A) (A) (A) (A) (A) (A) (A)
                 (A) (A) (A) (A) (A) (A) (A) (A) (A) (A) (A) (A)
                 (A) (A) (A) (A) (A) (A) (A) (A) (A) (A) (A) (A)
                 (A) (A) (A) (A) (A) (A) (A) (A) (A) (A) (A) (A)
                 (A) (A) (A) (A) (A) (A) (A) (A) (A) (A) (A) (A)
                 (A) (A) (A) (A) (A) (A) (A) (A) (A) (A) (A) (A)
                 (A) (A) (A) (A) (A) (A) (A) (A) (A) (A) (A) (A)
                 (A) (A) (A) (A) (A) (A) (A) (A) (A) (A) (A) (A)
                 (A) (A) (A) (A) (A) (A) (A) (A) (A) (A) (A) (A)
                 (A) (A) (A) (A) (A) (A) (A) (A) (A) (A) (A) (A)
                 (A) (A) (A) (A) (A) (A) (A) (A) (A) (A) (A) (A)
                 (A) (A) (A) (A) (A) (A) (A) (A) (A) (A) (A) (A)
                 (A) (A) (A) (A) (A) (A) (A) (A) (A) (A) (A) (A)
                 (A) (A) (A) (A) (A) (A) (A) (A) (A) (A) (A) (A)
                 (A) (A) (A) (A) (A) (A) (A) (A) (A) (A) (A) (A)
                 (A) (A) (A) (A) (A) (A) (A) (A) (A) (A) (A) (A)
                 (A) (A) (A) (A) (A) (A) (A) (A) (A) (A) (A) (A)
                 (A) (A) (A) (A) (A) (A) (A) (A) (A) (A) (A) (A)
                 (A) (A) (A) (A) (A) (A) (A) (A) (A) (A) (A) (A)
                 (A) (A) (A) (A) (A) (A) (A) (A) (A) (A) (A) (A)
                 (A) (A) (A) (A) (A) (A) (A) (A) (A) (A) (A) (A)
                 (A) (A) (A) (A) (A) (A) (A) (A) (A) (A) (A) (A)
                 (A) (A) (A) (A) (A) (A) (A) (A) (A) (A) (A) (A)
                 (A) (A) (A) (A) (A) (A) (A) (A) (A) (A) (A) (A)
                 (A) (A) (A) (A) (A) (A) (A) (A) (A) (A) (A) (A)
                 (A) (A) (A) (A) (A) (A) (A) (A) (A) (A) (A) (A)
                 (A) (A) (A) (A) (A) (A) (A) (A) (A) (A) (A) (A)
                 (A) (A) (A) (A) (A) (A) (A) (A) (A) (A) (A) (A)
                 (A) (A) (A) (A) (A) (A) (A) (A) (A)
 The electronic state is 1-A.
 Alpha  occ. eigenvalues --  -88.21958 -88.21616 -14.14706 -14.14136 -10.05952
 Alpha  occ. eigenvalues --  -10.05869 -10.05671 -10.05541 -10.05309 -10.05186
 Alpha  occ. eigenvalues --  -10.05169 -10.05126 -10.04251 -10.02633 -10.02188
 Alpha  occ. eigenvalues --  -10.02186 -10.01589 -10.01563 -10.01463 -10.01425
 Alpha  occ. eigenvalues --  -10.01415 -10.01412 -10.01339 -10.01274 -10.01188
 Alpha  occ. eigenvalues --  -10.01170 -10.01146 -10.01137 -10.01132 -10.01126
 Alpha  occ. eigenvalues --  -10.01116 -10.01107 -10.01078 -10.00940 -10.00816
 Alpha  occ. eigenvalues --  -10.00808 -10.00802 -10.00797 -10.00640 -10.00619
 Alpha  occ. eigenvalues --   -7.81253  -7.80830  -5.83427  -5.83027  -5.82935
 Alpha  occ. eigenvalues --   -5.82527  -5.82172  -5.81731  -1.02708  -1.02124
 Alpha  occ. eigenvalues --   -0.94278  -0.92370  -0.92116  -0.91699  -0.90739
 Alpha  occ. eigenvalues --   -0.90056  -0.86388  -0.85426  -0.82679  -0.82163
 Alpha  occ. eigenvalues --   -0.81989  -0.81401  -0.80885  -0.80852  -0.80648
 Alpha  occ. eigenvalues --   -0.80470  -0.79753  -0.78435  -0.76213  -0.74783
 Alpha  occ. eigenvalues --   -0.70149  -0.69602  -0.69397  -0.68868  -0.67859
 Alpha  occ. eigenvalues --   -0.67462  -0.67129  -0.66723  -0.66579  -0.65873
 Alpha  occ. eigenvalues --   -0.64048  -0.63388  -0.61287  -0.61048  -0.60795
 Alpha  occ. eigenvalues --   -0.60301  -0.57433  -0.56767  -0.56414  -0.55080
 Alpha  occ. eigenvalues --   -0.54922  -0.54418  -0.54130  -0.53761  -0.52961
 Alpha  occ. eigenvalues --   -0.52339  -0.52086  -0.51895  -0.51116  -0.50925
 Alpha  occ. eigenvalues --   -0.50683  -0.50327  -0.50100  -0.50016  -0.49525
 Alpha  occ. eigenvalues --   -0.49313  -0.49185  -0.49028  -0.48793  -0.48077
 Alpha  occ. eigenvalues --   -0.47395  -0.46314  -0.46216  -0.45775  -0.45603
 Alpha  occ. eigenvalues --   -0.45374  -0.45254  -0.43620  -0.43371  -0.42911
 Alpha  occ. eigenvalues --   -0.42593  -0.42437  -0.42126  -0.41606  -0.41550
 Alpha  occ. eigenvalues --   -0.41088  -0.40962  -0.40709  -0.40461  -0.39835
 Alpha  occ. eigenvalues --   -0.38568  -0.37071  -0.35745  -0.34505  -0.34289
 Alpha  occ. eigenvalues --   -0.33993  -0.33870  -0.33369  -0.33164  -0.32756
 Alpha  occ. eigenvalues --   -0.32751  -0.30734  -0.29815  -0.25504  -0.25012
 Alpha virt. eigenvalues --    0.01884   0.02630   0.03195   0.03368   0.03474
 Alpha virt. eigenvalues --    0.03765   0.04648   0.05499   0.05704   0.05897
 Alpha virt. eigenvalues --    0.07109   0.07654   0.08472   0.10331   0.10498
 Alpha virt. eigenvalues --    0.11497   0.11687   0.12144   0.12263   0.12721
 Alpha virt. eigenvalues --    0.13638   0.13936   0.14293   0.14532   0.14661
 Alpha virt. eigenvalues --    0.14854   0.15086   0.15319   0.15732   0.16125
 Alpha virt. eigenvalues --    0.16252   0.16553   0.16743   0.17123   0.17341
 Alpha virt. eigenvalues --    0.17470   0.17690   0.17926   0.18079   0.18624
 Alpha virt. eigenvalues --    0.18760   0.18964   0.19112   0.19659   0.19746
 Alpha virt. eigenvalues --    0.20073   0.21560   0.21686   0.21946   0.22413
 Alpha virt. eigenvalues --    0.22654   0.23773   0.24490   0.24723   0.25109
 Alpha virt. eigenvalues --    0.25368   0.25576   0.25650   0.25802   0.26180
 Alpha virt. eigenvalues --    0.26423   0.26668   0.26804   0.26976   0.27073
 Alpha virt. eigenvalues --    0.27353   0.27522   0.27686   0.28149   0.28252
 Alpha virt. eigenvalues --    0.28393   0.28826   0.29061   0.29139   0.29480
 Alpha virt. eigenvalues --    0.29592   0.29694   0.30001   0.30263   0.30325
 Alpha virt. eigenvalues --    0.30366   0.30611   0.30722   0.30944   0.31041
 Alpha virt. eigenvalues --    0.31667   0.31706   0.31785   0.32146   0.32328
 Alpha virt. eigenvalues --    0.32585   0.33117   0.33282   0.33406   0.33822
 Alpha virt. eigenvalues --    0.34080   0.34233   0.34436   0.34729   0.35062
 Alpha virt. eigenvalues --    0.35276   0.35668   0.35870   0.36350   0.36380
 Alpha virt. eigenvalues --    0.36722   0.37178   0.37256   0.37353   0.37834
 Alpha virt. eigenvalues --    0.37956   0.38353   0.38485   0.38759   0.39065
 Alpha virt. eigenvalues --    0.39178   0.39246   0.39521   0.39904   0.40109
 Alpha virt. eigenvalues --    0.40595   0.40779   0.41639   0.42047   0.42277
 Alpha virt. eigenvalues --    0.42721   0.42968   0.43193   0.43400   0.43525
 Alpha virt. eigenvalues --    0.43886   0.44034   0.44123   0.44496   0.44644
 Alpha virt. eigenvalues --    0.44970   0.45233   0.45327   0.45470   0.45751
 Alpha virt. eigenvalues --    0.45854   0.46063   0.46311   0.46462   0.46487
 Alpha virt. eigenvalues --    0.46584   0.46782   0.46866   0.47046   0.47498
 Alpha virt. eigenvalues --    0.47757   0.47813   0.48073   0.48520   0.48589
 Alpha virt. eigenvalues --    0.48665   0.49076   0.49274   0.49324   0.49450
 Alpha virt. eigenvalues --    0.49685   0.49760   0.49997   0.50183   0.50343
 Alpha virt. eigenvalues --    0.50908   0.51078   0.51468   0.51808   0.51968
 Alpha virt. eigenvalues --    0.52376   0.52665   0.53215   0.53474   0.53721
 Alpha virt. eigenvalues --    0.53824   0.54557   0.54752   0.54925   0.55060
 Alpha virt. eigenvalues --    0.55392   0.55587   0.55844   0.55987   0.56061
 Alpha virt. eigenvalues --    0.56469   0.56604   0.56915   0.57071   0.57100
 Alpha virt. eigenvalues --    0.57356   0.57782   0.58021   0.58106   0.58172
 Alpha virt. eigenvalues --    0.58772   0.59223   0.59527   0.59720   0.60042
 Alpha virt. eigenvalues --    0.60385   0.60922   0.61413   0.61558   0.61927
 Alpha virt. eigenvalues --    0.62240   0.62574   0.62763   0.63041   0.63820
 Alpha virt. eigenvalues --    0.64204   0.64696   0.64947   0.65721   0.66474
 Alpha virt. eigenvalues --    0.67122   0.67706   0.68122   0.68551   0.68842
 Alpha virt. eigenvalues --    0.69182   0.69442   0.70364   0.70944   0.71735
 Alpha virt. eigenvalues --    0.72499   0.73140   0.73225   0.73646   0.73844
 Alpha virt. eigenvalues --    0.74139   0.74498   0.74969   0.75247   0.75411
 Alpha virt. eigenvalues --    0.75684   0.75943   0.76389   0.76412   0.76475
 Alpha virt. eigenvalues --    0.76649   0.76956   0.77321   0.77516   0.78036
 Alpha virt. eigenvalues --    0.78327   0.78641   0.78877   0.79178   0.79452
 Alpha virt. eigenvalues --    0.79861   0.80607   0.80649   0.81318   0.81693
 Alpha virt. eigenvalues --    0.82674   0.83199   0.83391   0.83730   0.84431
 Alpha virt. eigenvalues --    0.84835   0.85321   0.85509   0.86368   0.86741
 Alpha virt. eigenvalues --    0.88015   0.88537   0.89652   0.90736   0.91248
 Alpha virt. eigenvalues --    0.91485   0.91955   0.92167   0.92357   0.94091
 Alpha virt. eigenvalues --    0.95187   0.96403   0.96976   0.97568   0.98021
 Alpha virt. eigenvalues --    0.98899   0.99086   1.00642   1.02216   1.02988
 Alpha virt. eigenvalues --    1.04805   1.06968   1.09063   1.14822   1.19402
 Alpha virt. eigenvalues --    1.19566   1.20966   1.21273   1.23522   1.24834
 Alpha virt. eigenvalues --    1.25256   1.25719   1.26309   1.26845   1.26928
 Alpha virt. eigenvalues --    1.27826   1.28449   1.28716   1.28858   1.29032
 Alpha virt. eigenvalues --    1.29182   1.29386   1.30568   1.30728   1.31119
 Alpha virt. eigenvalues --    1.31345   1.31393   1.31649   1.31822   1.32193
 Alpha virt. eigenvalues --    1.32502   1.32942   1.32983   1.33348   1.33626
 Alpha virt. eigenvalues --    1.33865   1.34017   1.34124   1.34438   1.34725
 Alpha virt. eigenvalues --    1.35172   1.35429   1.35711   1.35765   1.35942
 Alpha virt. eigenvalues --    1.36313   1.36618   1.36803   1.37060   1.37840
 Alpha virt. eigenvalues --    1.38032   1.38138   1.38944   1.39121   1.39616
 Alpha virt. eigenvalues --    1.39838   1.40425   1.40669   1.41127   1.42186
 Alpha virt. eigenvalues --    1.44367   1.45397   1.46067   1.46628   1.47019
 Alpha virt. eigenvalues --    1.47033   1.47446   1.47632   1.47860   1.48208
 Alpha virt. eigenvalues --    1.48566   1.48748   1.48860   1.49066   1.49093
 Alpha virt. eigenvalues --    1.49276   1.49354   1.49391   1.49562   1.49778
 Alpha virt. eigenvalues --    1.49849   1.50232   1.50717   1.51075   1.51228
 Alpha virt. eigenvalues --    1.51555   1.51785   1.52110   1.52316   1.52551
 Alpha virt. eigenvalues --    1.52673   1.52801   1.53061   1.53101   1.53324
 Alpha virt. eigenvalues --    1.53797   1.54075   1.54867   1.55073   1.55515
 Alpha virt. eigenvalues --    1.56027   1.56283   1.56639   1.56704   1.57298
 Alpha virt. eigenvalues --    1.57560   1.57795   1.58050   1.58167   1.58430
 Alpha virt. eigenvalues --    1.58630   1.59094   1.59308   1.59753   1.60205
 Alpha virt. eigenvalues --    1.60289   1.60479   1.60581   1.60650   1.60891
 Alpha virt. eigenvalues --    1.61161   1.61301   1.61484   1.61674   1.62138
 Alpha virt. eigenvalues --    1.62224   1.62593   1.62709   1.63130   1.63208
 Alpha virt. eigenvalues --    1.63308   1.63444   1.63580   1.63976   1.64279
 Alpha virt. eigenvalues --    1.64643   1.65021   1.65154   1.65578   1.66294
 Alpha virt. eigenvalues --    1.66761   1.68538   1.69676   1.69866   1.71651
 Alpha virt. eigenvalues --    1.71921   1.72078   1.72271   1.72474   1.73261
 Alpha virt. eigenvalues --    1.75389   1.75450   1.75776   1.76488   1.76640
 Alpha virt. eigenvalues --    1.78021   1.78649   1.80118   1.80744   1.80960
 Alpha virt. eigenvalues --    1.81311   1.81453   1.81589   1.81691   1.81791
 Alpha virt. eigenvalues --    1.81865   1.82310   1.82447   1.83002   1.83184
 Alpha virt. eigenvalues --    1.83706   1.83875   1.84295   1.84495   1.84788
 Alpha virt. eigenvalues --    1.85285   1.85618   1.85790   1.86164   1.86350
 Alpha virt. eigenvalues --    1.86619   1.86736   1.86865   1.87277   1.87575
 Alpha virt. eigenvalues --    1.87811   1.88832   1.89377   1.89520   1.91220
 Alpha virt. eigenvalues --    1.91465   1.92308   1.92680   1.92975   1.93201
 Alpha virt. eigenvalues --    1.93432   1.93625   1.93732   1.93873   1.94870
 Alpha virt. eigenvalues --    1.95170   1.95745   1.95979   1.96389   1.96497
 Alpha virt. eigenvalues --    1.96710   1.96715   1.96917   1.97116   1.97192
 Alpha virt. eigenvalues --    1.97345   1.97439   1.97660   1.97697   1.98026
 Alpha virt. eigenvalues --    1.98206   1.98320   1.98370   1.98778   1.99252
 Alpha virt. eigenvalues --    1.99463   2.00180   2.00588   2.01256   2.01834
 Alpha virt. eigenvalues --    2.02073   2.02343   2.02421   2.02682   2.03027
 Alpha virt. eigenvalues --    2.04463   2.05152   2.05439   2.05692   2.05733
 Alpha virt. eigenvalues --    2.06418   2.07019   2.07153   2.07940   2.08144
 Alpha virt. eigenvalues --    2.08999   2.09514   2.10310   2.11706   2.12344
 Alpha virt. eigenvalues --    2.12674   2.13303   2.14297   2.15022   2.15252
 Alpha virt. eigenvalues --    2.16591   2.17002   2.18160   2.19574   2.20012
 Alpha virt. eigenvalues --    2.21508   2.22395   2.24251   2.24364   2.24984
 Alpha virt. eigenvalues --    2.25272   2.25854   2.27012   2.27821   2.28916
 Alpha virt. eigenvalues --    2.29016   2.29179   2.29503   2.31392   2.31958
 Alpha virt. eigenvalues --    2.33594   2.33857   2.34429   2.34855   2.35112
 Alpha virt. eigenvalues --    2.35374   2.36000   2.36046   2.36331   2.36521
 Alpha virt. eigenvalues --    2.36617   2.36763   2.36825   2.36972   2.37159
 Alpha virt. eigenvalues --    2.37714   2.37961   2.38351   2.38697   2.38890
 Alpha virt. eigenvalues --    2.39318   2.39481   2.39640   2.39882   2.40360
 Alpha virt. eigenvalues --    2.41008   2.41117   2.41216   2.41674   2.41867
 Alpha virt. eigenvalues --    2.42087   2.42132   2.42274   2.42615   2.42814
 Alpha virt. eigenvalues --    2.43008   2.43576   2.44309   2.46931   2.49456
 Alpha virt. eigenvalues --    2.50304   2.50621   2.50885   2.51251   2.52064
 Alpha virt. eigenvalues --    2.52240   2.53531   2.54782   2.55336   2.55575
 Alpha virt. eigenvalues --    2.55678   2.56364   2.56776   2.56960   2.57218
 Alpha virt. eigenvalues --    2.57398   2.57656   2.57776   2.58084   2.59192
 Alpha virt. eigenvalues --    2.59755   2.60766   2.60912   2.61829   2.62229
 Alpha virt. eigenvalues --    2.63613   2.64345   2.65321   2.66597   2.66960
 Alpha virt. eigenvalues --    2.67765   2.68486   2.68719   2.69108   2.69262
 Alpha virt. eigenvalues --    2.69339   2.69647   2.69732   2.69949   2.70087
 Alpha virt. eigenvalues --    2.70512   2.71109   2.71308   2.71394   2.71985
 Alpha virt. eigenvalues --    2.72431   2.72906   2.73055   2.73862   2.76321
 Alpha virt. eigenvalues --    2.78714   2.79093   2.79298   2.79425   2.80668
 Alpha virt. eigenvalues --    2.81695   2.81872   2.82137   2.82283   2.82525
 Alpha virt. eigenvalues --    2.84129   2.84203   2.84722   2.86836   2.87204
 Alpha virt. eigenvalues --    2.87338   2.87798   2.88983   2.89952   2.89990
 Alpha virt. eigenvalues --    2.90192   2.90472   2.91660   2.94311   2.94994
 Alpha virt. eigenvalues --    3.01009   3.01621   3.01816   3.02060   3.02222
 Alpha virt. eigenvalues --    3.02549   3.03355   3.03721   3.05945   3.06342
 Alpha virt. eigenvalues --    3.06864   3.07062   3.07479   3.07876   3.08255
 Alpha virt. eigenvalues --    3.08596   3.08984   3.09151   3.10367   3.11881
 Alpha virt. eigenvalues --    3.12775   3.13631   3.14297   3.14667   3.14960
 Alpha virt. eigenvalues --    3.15336   3.16269   3.16694   3.18359   3.19100
 Alpha virt. eigenvalues --    3.19479   3.19585   3.20735   3.21911   3.22438
 Alpha virt. eigenvalues --    3.22652   3.22985   3.23679   3.24634   3.24902
 Alpha virt. eigenvalues --    3.25195   3.25550   3.25767   3.26039   3.26200
 Alpha virt. eigenvalues --    3.26587   3.27356   3.29404   3.32356   3.32960
 Alpha virt. eigenvalues --    3.37535   3.37978   3.38051   3.38329   3.38622
 Alpha virt. eigenvalues --    3.39717   3.41563   3.44007   3.44977   3.45402
 Alpha virt. eigenvalues --    3.45663   3.50304   3.50922   3.56705   3.57358
 Alpha virt. eigenvalues --    3.58170   3.59574   3.59816   3.61563   3.62408
 Alpha virt. eigenvalues --    3.62659   3.66120   3.66458   3.82357   3.84803
 Alpha virt. eigenvalues --    3.94509   3.95811   3.97553   3.97938  18.82694
 Alpha virt. eigenvalues --   19.00817  21.21961  21.22518  21.24620  21.24728
 Alpha virt. eigenvalues --   21.26116  21.26643  21.71426  21.71932  21.74204
 Alpha virt. eigenvalues --   21.74594  21.74863  21.75818  21.76646  21.78545
 Alpha virt. eigenvalues --   21.82623  21.82792  21.83847  21.86081  21.94618
 Alpha virt. eigenvalues --   21.95539  21.98261  21.99159  22.00258  22.00644
 Alpha virt. eigenvalues --   22.01179  22.02425  22.06104  22.06778  22.07782
 Alpha virt. eigenvalues --   22.08349  22.12398  22.13717  22.18582  22.18697
 Alpha virt. eigenvalues --   22.20183  22.21670  32.07755  32.07894
          Condensed to atoms (all electrons):
 Mulliken charges:
               1
     1  C   -0.058270
     2  C   -0.265422
     3  S    0.069959
     4  C   -0.018377
     5  C    0.015125
     6  C   -0.204247
     7  C   -0.032759
     8  C   -0.033530
     9  H    0.088779
    10  C   -0.120081
    11  C   -0.109266
    12  C   -0.097431
    13  C   -0.071604
    14  H    0.146542
    15  H    0.124337
    16  H    0.148078
    17  C   -0.145959
    18  H    0.155703
    19  H    0.148066
    20  H    0.112954
    21  H    0.155104
    22  S   -0.025904
    23  N   -0.017607
    24  C   -0.052447
    25  C   -0.119399
    26  C   -0.114480
    27  C   -0.113308
    28  C   -0.113376
    29  C   -0.107677
    30  H    0.154866
    31  H    0.153250
    32  H    0.107632
    33  H    0.108196
    34  H    0.106604
    35  C   -0.051664
    36  C   -0.123778
    37  C   -0.109911
    38  C   -0.113150
    39  C   -0.115303
    40  C   -0.108125
    41  H    0.155126
    42  H    0.157894
    43  H    0.107449
    44  H    0.106667
    45  H    0.105914
    46  N   -0.017142
    47  C   -0.082281
    48  C   -0.106207
    49  C   -0.101956
    50  C   -0.117528
    51  C   -0.121183
    52  C   -0.100834
    53  H    0.155180
    54  H    0.161781
    55  H    0.109305
    56  H    0.108352
    57  H    0.108224
    58  C   -0.060756
    59  C   -0.114276
    60  C   -0.108423
    61  C   -0.111355
    62  C   -0.111904
    63  C   -0.106372
    64  H    0.153099
    65  H    0.151788
    66  H    0.109193
    67  H    0.109784
    68  H    0.108343
 Sum of Mulliken charges =  -0.00000
 Mulliken charges with hydrogens summed into heavy atoms:
               1
     1  C    0.097433
     2  C   -0.265422
     3  S    0.069959
     4  C   -0.018377
     5  C    0.163190
     6  C   -0.204247
     7  C   -0.032759
     8  C    0.079424
    10  C    0.026461
    11  C    0.015071
    12  C    0.050647
    13  C   -0.071604
    17  C    0.009145
    22  S    0.062874
    23  N   -0.017607
    24  C   -0.052447
    25  C    0.035466
    26  C    0.038770
    27  C   -0.005676
    28  C   -0.005181
    29  C   -0.001074
    35  C   -0.051664
    36  C    0.031348
    37  C    0.047983
    38  C   -0.005701
    39  C   -0.008636
    40  C   -0.002211
    46  N   -0.017142
    47  C   -0.082281
    48  C    0.048973
    49  C    0.059825
    50  C   -0.008222
    51  C   -0.012831
    52  C    0.007390
    58  C   -0.060756
    59  C    0.038823
    60  C    0.043365
    61  C   -0.002162
    62  C   -0.002120
    63  C    0.001972
 Electronic spatial extent (au):  <R**2>=          31233.3079
 Charge=             -0.0000 electrons
 Dipole moment (field-independent basis, Debye):
    X=             -0.9746    Y=              2.0669    Z=             -0.1128  Tot=              2.2879
 Quadrupole moment (field-independent basis, Debye-Ang):
   XX=           -228.2352   YY=           -235.4608   ZZ=           -238.3969
   XY=             -1.8373   XZ=             -0.3235   YZ=              7.1232
 Traceless Quadrupole moment (field-independent basis, Debye-Ang):
   XX=              5.7958   YY=             -1.4298   ZZ=             -4.3660
   XY=             -1.8373   XZ=             -0.3235   YZ=              7.1232
 Octapole moment (field-independent basis, Debye-Ang**2):
  XXX=              9.5538  YYY=             37.5197  ZZZ=             32.3896  XYY=             -9.7005
  XXY=            -20.0727  XXZ=            -48.8038  XZZ=            -16.6937  YZZ=             12.6642
  YYZ=            -18.8020  XYZ=              2.2769
 Hexadecapole moment (field-independent basis, Debye-Ang**3):
 XXXX=         -31866.8123 YYYY=          -6609.9004 ZZZZ=          -3702.4541 XXXY=           -210.2972
 XXXZ=             14.4947 YYYX=             99.1463 YYYZ=            -11.5633 ZZZX=             45.7028
 ZZZY=            187.9686 XXYY=          -6164.9841 XXZZ=          -6090.3581 YYZZ=          -1790.3762
 XXYZ=             70.5742 YYXZ=             14.2244 ZZXY=              8.5292
 N-N= 4.395142161951D+03 E-N=-1.415964063559D+04  KE= 2.284548417843D+03
 No NMR shielding tensors so no spin-rotation constants.
 Leave Link  601 at Fri Jan 29 12:10:34 2021, MaxMem=  4026531840 cpu:               9.1 elap:               1.3
 (Enter /opt/ohpc/pub/libs/gaussian/g16-A.03/sandybridge/g16/l9999.exe)

 Test job not archived.
 1\1\GINC-CNODE210\SP\RLC-wHPBE\TZVP\C36H28N2S2\RDU230\29-Jan-2021\0\\#
 P LC-wHPBE/TZVP iop(3/107=0221600000, 3/108=0221600000) scf=(conver=6,
 fermi,ndamp=35,noincfock,novaracc,vshift=500,xqc)\\H28 C36 S2 N2\\0,1\
 C,0,-2.604951,0.985352,-0.477595\C,0,-1.595468,1.227646,-1.396897\S,0,
 -0.459746,2.557842,-1.073663\C,0,-1.509976,0.467226,-2.564163\C,0,1.04
 3777,0.455726,-0.021717\C,0,1.03833,1.682104,-0.668307\C,0,-3.557585,-
 0.001751,-0.697168\C,0,-2.447111,-0.539154,-2.764444\H,0,-0.596318,-0.
 14267,-4.605045\C,0,2.238728,-0.147647,0.319798\C,0,2.246539,2.297832,
 -0.961919\C,0,3.442101,1.694718,-0.621166\C,0,3.453096,0.46292,0.02383
 7\H,0,2.234263,-1.106243,0.827797\H,0,2.253931,3.248348,-1.486346\H,0,
 4.381679,2.178238,-0.866461\C,0,-3.461673,-0.764082,-1.856276\H,0,-2.6
 46669,1.585519,0.424718\H,0,0.106936,-0.032641,0.224382\H,0,-2.404245,
 -1.146243,-3.663282\H,0,-4.192893,-1.542008,-2.047877\S,0,-0.233558,0.
 817463,-3.737465\N,0,4.673686,-0.159547,0.368747\C,0,5.732508,0.612661
 ,0.896564\C,0,7.045695,0.37796,0.499452\C,0,5.475865,1.622329,1.819567
 \C,0,8.078745,1.133154,1.024558\C,0,6.512871,2.384632,2.326214\C,0,7.8
 20306,2.143178,1.9369\H,0,7.251646,-0.403669,-0.22406\H,0,4.45483,1.80
 7304,2.136118\H,0,9.097402,0.93653,0.704866\H,0,6.295127,3.169013,3.04
 4416\H,0,8.632202,2.738403,2.341339\C,0,4.837054,-1.548147,0.168533\C,
 0,5.516065,-2.321618,1.105787\C,0,4.319017,-2.163542,-0.967486\C,0,5.6
 79987,-3.679833,0.902534\C,0,4.472338,-3.525567,-1.15401\C,0,5.156657,
 -4.292005,-0.224805\H,0,5.917204,-1.848815,1.995947\H,0,3.79167,-1.566
 068,-1.703651\H,0,6.213214,-4.268058,1.642948\H,0,4.061647,-3.98973,-2
 .045325\H,0,5.281223,-5.35883,-0.377899\N,0,-4.591369,-0.225236,0.2355
 72\C,0,-4.996809,-1.544618,0.539366\C,0,-6.345932,-1.849462,0.693639\C
 ,0,-4.053605,-2.557013,0.688173\C,0,-6.738551,-3.140118,0.998819\C,0,-
 4.45592,-3.848924,0.975713\C,0,-5.798707,-4.148587,1.137139\H,0,-7.085
 839,-1.064984,0.575406\H,0,-2.999778,-2.324624,0.576668\H,0,-7.794748,
 -3.361033,1.117399\H,0,-3.707423,-4.627077,1.088273\H,0,-6.110711,-5.1
 61215,1.369943\C,0,-5.228462,0.872905,0.859345\C,0,-5.548183,0.824769,
 2.212595\C,0,-5.541916,2.014931,0.129127\C,0,-6.178047,1.897088,2.8180
 17\C,0,-6.155123,3.090236,0.746513\C,0,-6.481192,3.037227,2.091754\H,0
 ,-5.300925,-0.061617,2.787177\H,0,-5.299559,2.056134,-0.927579\H,0,-6.
 421719,1.844307,3.874525\H,0,-6.390696,3.975287,0.163884\H,0,-6.967632
 ,3.87989,2.571608\\Version=EM64L-G16RevA.03\State=1-A\HF=-2293.4071853
 \RMSD=6.475e-07\Dipole=-0.3834313,-0.813164,0.0443648\Quadrupole=4.309
 0081,-1.0630221,-3.245986,1.3659995,0.2404948,5.2959441\PG=C01 [X(C36H
 28N2S2)]\\@


 THERE'S A SUCKER BORN EVERY MINUTE

              -- PHINEAS TAYLOR (P.T.) BARNUM
 Job cpu time:       0 days  4 hours  8 minutes 39.8 seconds.
 Elapsed time:       0 days  0 hours 31 minutes 25.2 seconds.
 File lengths (MBytes):  RWF=    304 Int=      0 D2E=      0 Chk=     56 Scr=      8
 Normal termination of Gaussian 16 at Fri Jan 29 12:10:35 2021.
