 Entering Gaussian System, Link 0=g16
 Input=mol_ta_pa_whol_tune_n9.gjf
 Output=mol_ta_pa_whol_tune_n9.log
 Initial command:
 /opt/ohpc/pub/libs/gaussian/g16-A.03/sandybridge/g16/l1.exe "/mnt/gpfs2_4m/scratch/rdu230/ondemand/projects/init_structures/gaussian/wtuning/mol_ta_pa_whol/tuning_mol_ta_pa_whol_ocycle0/Gau-3179.inp" -scrdir="/mnt/gpfs2_4m/scratch/rdu230/ondemand/projects/init_structures/gaussian/wtuning/mol_ta_pa_whol/tuning_mol_ta_pa_whol_ocycle0/"
 Entering Link 1 = /opt/ohpc/pub/libs/gaussian/g16-A.03/sandybridge/g16/l1.exe PID=      3180.
  
 Copyright (c) 1988,1990,1992,1993,1995,1998,2003,2009,2016,
            Gaussian, Inc.  All Rights Reserved.
  
 This is part of the Gaussian(R) 16 program.  It is based on
 the Gaussian(R) 09 system (copyright 2009, Gaussian, Inc.),
 the Gaussian(R) 03 system (copyright 2003, Gaussian, Inc.),
 the Gaussian(R) 98 system (copyright 1998, Gaussian, Inc.),
 the Gaussian(R) 94 system (copyright 1995, Gaussian, Inc.),
 the Gaussian 92(TM) system (copyright 1992, Gaussian, Inc.),
 the Gaussian 90(TM) system (copyright 1990, Gaussian, Inc.),
 the Gaussian 88(TM) system (copyright 1988, Gaussian, Inc.),
 the Gaussian 86(TM) system (copyright 1986, Carnegie Mellon
 University), and the Gaussian 82(TM) system (copyright 1983,
 Carnegie Mellon University). Gaussian is a federally registered
 trademark of Gaussian, Inc.
  
 This software contains proprietary and confidential information,
 including trade secrets, belonging to Gaussian, Inc.
  
 This software is provided under written license and may be
 used, copied, transmitted, or stored only in accord with that
 written license.
  
 The following legend is applicable only to US Government
 contracts under FAR:
  
                    RESTRICTED RIGHTS LEGEND
  
 Use, reproduction and disclosure by the US Government is
 subject to restrictions as set forth in subparagraphs (a)
 and (c) of the Commercial Computer Software - Restricted
 Rights clause in FAR 52.227-19.
  
 Gaussian, Inc.
 340 Quinnipiac St., Bldg. 40, Wallingford CT 06492
  
  
 ---------------------------------------------------------------
 Warning -- This program may not be used in any manner that
 competes with the business of Gaussian, Inc. or will provide
 assistance to any competitor of Gaussian, Inc.  The licensee
 of this program is prohibited from giving any competitor of
 Gaussian, Inc. access to this program.  By using this program,
 the user acknowledges that Gaussian, Inc. is engaged in the
 business of creating and licensing software in the field of
 computational chemistry and represents and warrants to the
 licensee that it is not a competitor of Gaussian, Inc. and that
 it will not use this program in any manner prohibited above.
 ---------------------------------------------------------------
  

 Cite this work as:
 Gaussian 16, Revision A.03,
 M. J. Frisch, G. W. Trucks, H. B. Schlegel, G. E. Scuseria, 
 M. A. Robb, J. R. Cheeseman, G. Scalmani, V. Barone, 
 G. A. Petersson, H. Nakatsuji, X. Li, M. Caricato, A. V. Marenich, 
 J. Bloino, B. G. Janesko, R. Gomperts, B. Mennucci, H. P. Hratchian, 
 J. V. Ortiz, A. F. Izmaylov, J. L. Sonnenberg, D. Williams-Young, 
 F. Ding, F. Lipparini, F. Egidi, J. Goings, B. Peng, A. Petrone, 
 T. Henderson, D. Ranasinghe, V. G. Zakrzewski, J. Gao, N. Rega, 
 G. Zheng, W. Liang, M. Hada, M. Ehara, K. Toyota, R. Fukuda, 
 J. Hasegawa, M. Ishida, T. Nakajima, Y. Honda, O. Kitao, H. Nakai, 
 T. Vreven, K. Throssell, J. A. Montgomery, Jr., J. E. Peralta, 
 F. Ogliaro, M. J. Bearpark, J. J. Heyd, E. N. Brothers, K. N. Kudin, 
 V. N. Staroverov, T. A. Keith, R. Kobayashi, J. Normand, 
 K. Raghavachari, A. P. Rendell, J. C. Burant, S. S. Iyengar, 
 J. Tomasi, M. Cossi, J. M. Millam, M. Klene, C. Adamo, R. Cammi, 
 J. W. Ochterski, R. L. Martin, K. Morokuma, O. Farkas, 
 J. B. Foresman, and D. J. Fox, Gaussian, Inc., Wallingford CT, 2016.
 
 ******************************************
 Gaussian 16:  EM64L-G16RevA.03 25-Dec-2016
                28-Jan-2021 
 ******************************************
 %mem=30GB
 %nproc=8
 Will use up to    8 processors via shared memory.
 ----------------------------------------------------------------------
 #P LC-wHPBE/TZVP iop(3/107=0224100000, 3/108=0224100000) scf=(conver=6
 ,fermi,ndamp=35,noincfock,novaracc,vshift=500,xqc)
 ----------------------------------------------------------------------
 1/38=1,172=1/1;
 2/12=2,17=6,18=5,40=1/2;
 3/5=19,7=101,11=2,25=1,30=1,74=-71,107=224100000,108=224100000/1,2,3;
 4//1;
 5/5=100002,6=6,8=3,10=500,13=1,18=-1,22=13,38=1,93=35/2,8;
 6/7=2,8=2,9=2,10=2,28=1/1;
 99/5=1,9=1/99;
 Leave Link    1 at Thu Jan 28 22:02:32 2021, MaxMem=  4026531840 cpu:               1.6 elap:               0.2
 (Enter /opt/ohpc/pub/libs/gaussian/g16-A.03/sandybridge/g16/l101.exe)
 -------------
 H28 C36 S2 N2
 -------------
 Symbolic Z-matrix:
 Charge =  0 Multiplicity = 1
 C                    -2.60495   0.98535  -0.4776 
 C                    -1.59547   1.22765  -1.3969 
 S                    -0.45975   2.55784  -1.07366 
 C                    -1.50998   0.46723  -2.56416 
 C                     1.04378   0.45573  -0.02172 
 C                     1.03833   1.6821   -0.66831 
 C                    -3.55759  -0.00175  -0.69717 
 C                    -2.44711  -0.53915  -2.76444 
 H                    -0.59632  -0.14267  -4.60505 
 C                     2.23873  -0.14765   0.3198 
 C                     2.24654   2.29783  -0.96192 
 C                     3.4421    1.69472  -0.62117 
 C                     3.4531    0.46292   0.02384 
 H                     2.23426  -1.10624   0.8278 
 H                     2.25393   3.24835  -1.48635 
 H                     4.38168   2.17824  -0.86646 
 C                    -3.46167  -0.76408  -1.85628 
 H                    -2.64667   1.58552   0.42472 
 H                     0.10694  -0.03264   0.22438 
 H                    -2.40424  -1.14624  -3.66328 
 H                    -4.19289  -1.54201  -2.04788 
 S                    -0.23356   0.81746  -3.73747 
 N                     4.67369  -0.15955   0.36875 
 C                     5.73251   0.61266   0.89656 
 C                     7.0457    0.37796   0.49945 
 C                     5.47587   1.62233   1.81957 
 C                     8.07874   1.13315   1.02456 
 C                     6.51287   2.38463   2.32621 
 C                     7.82031   2.14318   1.9369 
 H                     7.25165  -0.40367  -0.22406 
 H                     4.45483   1.8073    2.13612 
 H                     9.0974    0.93653   0.70487 
 H                     6.29513   3.16901   3.04442 
 H                     8.6322    2.7384    2.34134 
 C                     4.83705  -1.54815   0.16853 
 C                     5.51607  -2.32162   1.10579 
 C                     4.31902  -2.16354  -0.96749 
 C                     5.67999  -3.67983   0.90253 
 C                     4.47234  -3.52557  -1.15401 
 C                     5.15666  -4.29201  -0.22481 
 H                     5.9172   -1.84882   1.99595 
 H                     3.79167  -1.56607  -1.70365 
 H                     6.21321  -4.26806   1.64295 
 H                     4.06165  -3.98973  -2.04533 
 H                     5.28122  -5.35883  -0.3779 
 N                    -4.59137  -0.22524   0.23557 
 C                    -4.99681  -1.54462   0.53937 
 C                    -6.34593  -1.84946   0.69364 
 C                    -4.05361  -2.55701   0.68817 
 C                    -6.73855  -3.14012   0.99882 
 C                    -4.45592  -3.84892   0.97571 
 C                    -5.79871  -4.14859   1.13714 
 H                    -7.08584  -1.06498   0.57541 
 H                    -2.99978  -2.32462   0.57667 
 H                    -7.79475  -3.36103   1.1174 
 H                    -3.70742  -4.62708   1.08827 
 H                    -6.11071  -5.16122   1.36994 
 C                    -5.22846   0.87291   0.85935 
 C                    -5.54818   0.82477   2.2126 
 C                    -5.54192   2.01493   0.12913 
 C                    -6.17805   1.89709   2.81802 
 C                    -6.15512   3.09024   0.74651 
 C                    -6.48119   3.03723   2.09175 
 H                    -5.30093  -0.06162   2.78718 
 H                    -5.29956   2.05613  -0.92758 
 H                    -6.42172   1.84431   3.87453 
 H                    -6.3907    3.97529   0.16388 
 H                    -6.96763   3.87989   2.57161 
 
 ITRead=  0  0  0  0  0  0  0  0  0  0  0  0  0  0  0  0  0  0  0  0
 ITRead=  0  0  0  0  0  0  0  0  0  0  0  0  0  0  0  0  0  0  0  0
 ITRead=  0  0  0  0  0  0  0  0  0  0  0  0  0  0  0  0  0  0  0  0
 ITRead=  0  0  0  0  0  0  0  0
 MicOpt= -1 -1 -1 -1 -1 -1 -1 -1 -1 -1 -1 -1 -1 -1 -1 -1 -1 -1 -1 -1
 MicOpt= -1 -1 -1 -1 -1 -1 -1 -1 -1 -1 -1 -1 -1 -1 -1 -1 -1 -1 -1 -1
 MicOpt= -1 -1 -1 -1 -1 -1 -1 -1 -1 -1 -1 -1 -1 -1 -1 -1 -1 -1 -1 -1
 MicOpt= -1 -1 -1 -1 -1 -1 -1 -1
 NAtoms=     68 NQM=       68 NQMF=       0 NMMI=      0 NMMIF=      0
                NMic=       0 NMicF=      0.
                    Isotopes and Nuclear Properties:
 (Nuclear quadrupole moments (NQMom) in fm**2, nuclear magnetic moments (NMagM)
  in nuclear magnetons)

  Atom         1           2           3           4           5           6           7           8           9          10
 IAtWgt=          12          12          32          12          12          12          12          12           1          12
 AtmWgt=  12.0000000  12.0000000  31.9720718  12.0000000  12.0000000  12.0000000  12.0000000  12.0000000   1.0078250  12.0000000
 NucSpn=           0           0           0           0           0           0           0           0           1           0
 AtZEff=  -0.0000000  -0.0000000  -0.0000000  -0.0000000  -0.0000000  -0.0000000  -0.0000000  -0.0000000  -0.0000000  -0.0000000
 NQMom=    0.0000000   0.0000000   0.0000000   0.0000000   0.0000000   0.0000000   0.0000000   0.0000000   0.0000000   0.0000000
 NMagM=    0.0000000   0.0000000   0.0000000   0.0000000   0.0000000   0.0000000   0.0000000   0.0000000   2.7928460   0.0000000
 AtZNuc=   6.0000000   6.0000000  16.0000000   6.0000000   6.0000000   6.0000000   6.0000000   6.0000000   1.0000000   6.0000000

  Atom        11          12          13          14          15          16          17          18          19          20
 IAtWgt=          12          12          12           1           1           1          12           1           1           1
 AtmWgt=  12.0000000  12.0000000  12.0000000   1.0078250   1.0078250   1.0078250  12.0000000   1.0078250   1.0078250   1.0078250
 NucSpn=           0           0           0           1           1           1           0           1           1           1
 AtZEff=  -0.0000000  -0.0000000  -0.0000000  -0.0000000  -0.0000000  -0.0000000  -0.0000000  -0.0000000  -0.0000000  -0.0000000
 NQMom=    0.0000000   0.0000000   0.0000000   0.0000000   0.0000000   0.0000000   0.0000000   0.0000000   0.0000000   0.0000000
 NMagM=    0.0000000   0.0000000   0.0000000   2.7928460   2.7928460   2.7928460   0.0000000   2.7928460   2.7928460   2.7928460
 AtZNuc=   6.0000000   6.0000000   6.0000000   1.0000000   1.0000000   1.0000000   6.0000000   1.0000000   1.0000000   1.0000000

  Atom        21          22          23          24          25          26          27          28          29          30
 IAtWgt=           1          32          14          12          12          12          12          12          12           1
 AtmWgt=   1.0078250  31.9720718  14.0030740  12.0000000  12.0000000  12.0000000  12.0000000  12.0000000  12.0000000   1.0078250
 NucSpn=           1           0           2           0           0           0           0           0           0           1
 AtZEff=  -0.0000000  -0.0000000  -0.0000000  -0.0000000  -0.0000000  -0.0000000  -0.0000000  -0.0000000  -0.0000000  -0.0000000
 NQMom=    0.0000000   0.0000000   2.0440000   0.0000000   0.0000000   0.0000000   0.0000000   0.0000000   0.0000000   0.0000000
 NMagM=    2.7928460   0.0000000   0.4037610   0.0000000   0.0000000   0.0000000   0.0000000   0.0000000   0.0000000   2.7928460
 AtZNuc=   1.0000000  16.0000000   7.0000000   6.0000000   6.0000000   6.0000000   6.0000000   6.0000000   6.0000000   1.0000000

  Atom        31          32          33          34          35          36          37          38          39          40
 IAtWgt=           1           1           1           1          12          12          12          12          12          12
 AtmWgt=   1.0078250   1.0078250   1.0078250   1.0078250  12.0000000  12.0000000  12.0000000  12.0000000  12.0000000  12.0000000
 NucSpn=           1           1           1           1           0           0           0           0           0           0
 AtZEff=  -0.0000000  -0.0000000  -0.0000000  -0.0000000  -0.0000000  -0.0000000  -0.0000000  -0.0000000  -0.0000000  -0.0000000
 NQMom=    0.0000000   0.0000000   0.0000000   0.0000000   0.0000000   0.0000000   0.0000000   0.0000000   0.0000000   0.0000000
 NMagM=    2.7928460   2.7928460   2.7928460   2.7928460   0.0000000   0.0000000   0.0000000   0.0000000   0.0000000   0.0000000
 AtZNuc=   1.0000000   1.0000000   1.0000000   1.0000000   6.0000000   6.0000000   6.0000000   6.0000000   6.0000000   6.0000000

  Atom        41          42          43          44          45          46          47          48          49          50
 IAtWgt=           1           1           1           1           1          14          12          12          12          12
 AtmWgt=   1.0078250   1.0078250   1.0078250   1.0078250   1.0078250  14.0030740  12.0000000  12.0000000  12.0000000  12.0000000
 NucSpn=           1           1           1           1           1           2           0           0           0           0
 AtZEff=  -0.0000000  -0.0000000  -0.0000000  -0.0000000  -0.0000000  -0.0000000  -0.0000000  -0.0000000  -0.0000000  -0.0000000
 NQMom=    0.0000000   0.0000000   0.0000000   0.0000000   0.0000000   2.0440000   0.0000000   0.0000000   0.0000000   0.0000000
 NMagM=    2.7928460   2.7928460   2.7928460   2.7928460   2.7928460   0.4037610   0.0000000   0.0000000   0.0000000   0.0000000
 AtZNuc=   1.0000000   1.0000000   1.0000000   1.0000000   1.0000000   7.0000000   6.0000000   6.0000000   6.0000000   6.0000000

  Atom        51          52          53          54          55          56          57          58          59          60
 IAtWgt=          12          12           1           1           1           1           1          12          12          12
 AtmWgt=  12.0000000  12.0000000   1.0078250   1.0078250   1.0078250   1.0078250   1.0078250  12.0000000  12.0000000  12.0000000
 NucSpn=           0           0           1           1           1           1           1           0           0           0
 AtZEff=  -0.0000000  -0.0000000  -0.0000000  -0.0000000  -0.0000000  -0.0000000  -0.0000000  -0.0000000  -0.0000000  -0.0000000
 NQMom=    0.0000000   0.0000000   0.0000000   0.0000000   0.0000000   0.0000000   0.0000000   0.0000000   0.0000000   0.0000000
 NMagM=    0.0000000   0.0000000   2.7928460   2.7928460   2.7928460   2.7928460   2.7928460   0.0000000   0.0000000   0.0000000
 AtZNuc=   6.0000000   6.0000000   1.0000000   1.0000000   1.0000000   1.0000000   1.0000000   6.0000000   6.0000000   6.0000000

  Atom        61          62          63          64          65          66          67          68
 IAtWgt=          12          12          12           1           1           1           1           1
 AtmWgt=  12.0000000  12.0000000  12.0000000   1.0078250   1.0078250   1.0078250   1.0078250   1.0078250
 NucSpn=           0           0           0           1           1           1           1           1
 AtZEff=  -0.0000000  -0.0000000  -0.0000000  -0.0000000  -0.0000000  -0.0000000  -0.0000000  -0.0000000
 NQMom=    0.0000000   0.0000000   0.0000000   0.0000000   0.0000000   0.0000000   0.0000000   0.0000000
 NMagM=    0.0000000   0.0000000   0.0000000   2.7928460   2.7928460   2.7928460   2.7928460   2.7928460
 AtZNuc=   6.0000000   6.0000000   6.0000000   1.0000000   1.0000000   1.0000000   1.0000000   1.0000000
 Leave Link  101 at Thu Jan 28 22:02:32 2021, MaxMem=  4026531840 cpu:               0.9 elap:               0.2
 (Enter /opt/ohpc/pub/libs/gaussian/g16-A.03/sandybridge/g16/l202.exe)
 Stoichiometry    C36H28N2S2
 Framework group  C1[X(C36H28N2S2)]
 Deg. of freedom   198
 Full point group                 C1      NOp   1
 Largest Abelian subgroup         C1      NOp   1
 Largest concise Abelian subgroup C1      NOp   1
                         Standard orientation:                         
 ---------------------------------------------------------------------
 Center     Atomic      Atomic             Coordinates (Angstroms)
 Number     Number       Type             X           Y           Z
 ---------------------------------------------------------------------
      1          6           0       -2.604951   -0.985352    0.477595
      2          6           0       -1.595468   -1.227646    1.396897
      3         16           0       -0.459746   -2.557842    1.073663
      4          6           0       -1.509976   -0.467226    2.564163
      5          6           0        1.043777   -0.455726    0.021717
      6          6           0        1.038330   -1.682104    0.668307
      7          6           0       -3.557585    0.001751    0.697168
      8          6           0       -2.447111    0.539154    2.764444
      9          1           0       -0.596318    0.142670    4.605045
     10          6           0        2.238728    0.147647   -0.319798
     11          6           0        2.246539   -2.297832    0.961919
     12          6           0        3.442101   -1.694718    0.621166
     13          6           0        3.453096   -0.462920   -0.023837
     14          1           0        2.234263    1.106243   -0.827797
     15          1           0        2.253931   -3.248348    1.486346
     16          1           0        4.381679   -2.178238    0.866461
     17          6           0       -3.461673    0.764082    1.856276
     18          1           0       -2.646669   -1.585519   -0.424718
     19          1           0        0.106936    0.032641   -0.224382
     20          1           0       -2.404245    1.146243    3.663282
     21          1           0       -4.192893    1.542008    2.047877
     22         16           0       -0.233558   -0.817463    3.737465
     23          7           0        4.673686    0.159547   -0.368747
     24          6           0        5.732508   -0.612661   -0.896564
     25          6           0        7.045695   -0.377960   -0.499452
     26          6           0        5.475865   -1.622329   -1.819567
     27          6           0        8.078745   -1.133154   -1.024558
     28          6           0        6.512871   -2.384632   -2.326214
     29          6           0        7.820306   -2.143178   -1.936900
     30          1           0        7.251646    0.403669    0.224060
     31          1           0        4.454830   -1.807304   -2.136118
     32          1           0        9.097402   -0.936530   -0.704866
     33          1           0        6.295127   -3.169013   -3.044416
     34          1           0        8.632202   -2.738403   -2.341339
     35          6           0        4.837054    1.548147   -0.168533
     36          6           0        5.516065    2.321618   -1.105787
     37          6           0        4.319017    2.163542    0.967486
     38          6           0        5.679987    3.679833   -0.902534
     39          6           0        4.472338    3.525567    1.154010
     40          6           0        5.156657    4.292005    0.224805
     41          1           0        5.917204    1.848815   -1.995947
     42          1           0        3.791670    1.566068    1.703651
     43          1           0        6.213214    4.268058   -1.642948
     44          1           0        4.061647    3.989730    2.045325
     45          1           0        5.281223    5.358830    0.377899
     46          7           0       -4.591369    0.225236   -0.235572
     47          6           0       -4.996809    1.544618   -0.539366
     48          6           0       -6.345932    1.849462   -0.693639
     49          6           0       -4.053605    2.557013   -0.688173
     50          6           0       -6.738551    3.140118   -0.998819
     51          6           0       -4.455920    3.848924   -0.975713
     52          6           0       -5.798707    4.148587   -1.137139
     53          1           0       -7.085839    1.064984   -0.575406
     54          1           0       -2.999778    2.324624   -0.576668
     55          1           0       -7.794748    3.361033   -1.117399
     56          1           0       -3.707423    4.627077   -1.088273
     57          1           0       -6.110711    5.161215   -1.369943
     58          6           0       -5.228462   -0.872905   -0.859345
     59          6           0       -5.548183   -0.824769   -2.212595
     60          6           0       -5.541916   -2.014931   -0.129127
     61          6           0       -6.178047   -1.897088   -2.818017
     62          6           0       -6.155123   -3.090236   -0.746513
     63          6           0       -6.481192   -3.037227   -2.091754
     64          1           0       -5.300925    0.061617   -2.787177
     65          1           0       -5.299559   -2.056134    0.927579
     66          1           0       -6.421719   -1.844307   -3.874525
     67          1           0       -6.390696   -3.975287   -0.163884
     68          1           0       -6.967632   -3.879890   -2.571608
 ---------------------------------------------------------------------
 Rotational constants (GHZ):           0.1314912           0.0372042           0.0344004
 Leave Link  202 at Thu Jan 28 22:02:32 2021, MaxMem=  4026531840 cpu:               0.1 elap:               0.0
 (Enter /opt/ohpc/pub/libs/gaussian/g16-A.03/sandybridge/g16/l301.exe)
 Standard basis: TZVP (5D, 7F)
 Ernie: Thresh=  0.10000D-02 Tol=  0.10000D-05 Strict=F.
 There are   974 symmetry adapted cartesian basis functions of A   symmetry.
 There are   934 symmetry adapted basis functions of A   symmetry.
   934 basis functions,  1648 primitive gaussians,   974 cartesian basis functions
   145 alpha electrons      145 beta electrons
       nuclear repulsion energy      4395.1421619507 Hartrees.
 IExCor=33909 DFT=T Ex+Corr=LC-wHPBE ExCW=0 ScaHFX=  1.000000
 ScaDFX=  1.000000  1.000000  1.000000  1.000000 ScalE2=  1.000000  1.000000
 IRadAn=      5 IRanWt=     -1 IRanGd=            0 ICorTp=0 IEmpDi=  4
 HFx  wShort=  0.000000 wLong=  0.224100 cFull=  0.000000 cShort=  0.000000 cLong=  1.000000
 DFx  wShort=  0.000000 wLong=  0.224100 cFull=  0.000000 cShort=  1.000000 cLong=  0.000000
 NAtoms=   68 NActive=   68 NUniq=   68 SFac= 1.00D+00 NAtFMM=   60 NAOKFM=T Big=T
 Integral buffers will be    131072 words long.
 Raffenetti 2 integral format.
 Two-electron integral symmetry is turned on.
 Leave Link  301 at Thu Jan 28 22:02:32 2021, MaxMem=  4026531840 cpu:               0.5 elap:               0.1
 (Enter /opt/ohpc/pub/libs/gaussian/g16-A.03/sandybridge/g16/l302.exe)
 NPDir=0 NMtPBC=     1 NCelOv=     1 NCel=       1 NClECP=     1 NCelD=      1
         NCelK=      1 NCelE2=     1 NClLst=     1 CellRange=     0.0.
 One-electron integrals computed using PRISM.
 One-electron integral symmetry used in STVInt
 NBasis=   934 RedAO= T EigKep=  5.84D-06  NBF=   934
 NBsUse=   934 1.00D-06 EigRej= -1.00D+00 NBFU=   934
 Precomputing XC quadrature grid using
 IXCGrd= 4 IRadAn=           5 IRanWt=          -1 IRanGd=           0 AccXCQ= 0.00D+00.
 Generated NRdTot=       0 NPtTot=           0 NUsed=           0 NTot=          32
 NSgBfM=   919   919   919   919   919 MxSgAt=    68 MxSgA2=    68.
 Leave Link  302 at Thu Jan 28 22:02:35 2021, MaxMem=  4026531840 cpu:              25.7 elap:               3.2
 (Enter /opt/ohpc/pub/libs/gaussian/g16-A.03/sandybridge/g16/l303.exe)
 DipDrv:  MaxL=1.
 Leave Link  303 at Thu Jan 28 22:02:36 2021, MaxMem=  4026531840 cpu:               1.8 elap:               0.3
 (Enter /opt/ohpc/pub/libs/gaussian/g16-A.03/sandybridge/g16/l401.exe)
 ExpMin= 9.52D-02 ExpMax= 6.07D+04 ExpMxC= 2.07D+03 IAcc=3 IRadAn=         5 AccDes= 0.00D+00
 Harris functional with IExCor=33909 and IRadAn=       5 diagonalized for initial guess.
 HarFok:  IExCor=33909 AccDes= 0.00D+00 IRadAn=         5 IDoV= 1 UseB2=F ITyADJ=14
 ICtDFT=  3500011 ScaDFX=  1.000000  1.000000  1.000000  1.000000
 FoFCou: FMM=F IPFlag=           0 FMFlag=      100000 FMFlg1=        2001
         NFxFlg=           0 DoJE=T BraDBF=F KetDBF=T FulRan=T
         wScrn=  0.000000 ICntrl=       500 IOpCl=  0 I1Cent=   200000004 NGrid=           0
         NMat0=    1 NMatS0=      1 NMatT0=    0 NMatD0=    1 NMtDS0=    0 NMtDT0=    0
 Petite list used in FoFCou.
 Harris En= -2259.00394323099    
 JPrj=0 DoOrth=F DoCkMO=F.
 Leave Link  401 at Thu Jan 28 22:02:51 2021, MaxMem=  4026531840 cpu:             120.9 elap:              15.2
 (Enter /opt/ohpc/pub/libs/gaussian/g16-A.03/sandybridge/g16/l502.exe)
 Integral symmetry usage will be decided dynamically.
 Closed shell SCF:
 Using DIIS extrapolation, IDIIS=    10.
 NGot=  4026531840 LenX=  4024617300 LenY=  4023667650
 Requested convergence on RMS density matrix=1.00D-06 within  32 cycles.
 Requested convergence on MAX density matrix=1.00D-04.
 Requested convergence on             energy=1.00D-04.
 Virtual orbitals will be shifted by   0.500 hartree.
 No special actions if energy rises.
 Dynamic level shift is on during FON iterations.

 Cycle   1  Pass 1  IDiag  1:
 FoFJK:  IHMeth= 1 ICntrl=       0 DoSepK=T KAlg= 0 I1Cent=           0 FoldK=F
 IRaf=         1 NMat=       1 IRICut=       1 DoRegI=T DoRafI=F ISym2E= 0 IDoP0=0 IntGTp=1.
 FoFCou: FMM=T IPFlag=           0 FMFlag=      100000 FMFlg1=        2001
         NFxFlg=           0 DoJE=T BraDBF=F KetDBF=F FulRan=T
         wScrn=  0.000000 ICntrl=       500 IOpCl=  0 I1Cent=           0 NGrid=           0
         NMat0=    1 NMatS0=      1 NMatT0=    0 NMatD0=    1 NMtDS0=    0 NMtDT0=    0
 Symmetry not used in FoFCou.
 FMM levels:  10  Number of levels for PrismC:   9
 E= -2292.71157550021    
 DIIS: error= 3.08D-02 at cycle   1 NSaved=   1.
 NSaved= 1 IEnMin= 1 EnMin= -2292.71157550021     IErMin= 1 ErrMin= 3.08D-02
 ErrMax= 3.08D-02  0.00D+00 EMaxC= 1.00D+00 BMatC= 7.05D-01 BMatP= 7.05D-01
 IDIUse=1 WtCom= 1.00D+00 WtEn= 0.00D+00
 Coeff-Com:  0.100D+01
 Coeff:      0.100D+01
 Gap=     0.411 Goal=   None    Shift=    0.500
 T= 1512. Gap= 0.713 NK=0 IS=  146 IE=  934 IFin=  145
          NO(<0.9)=   0  NV(>0.1)=   0    145.00e < EF      0.00e >EF  Err=0.0D+00
 GapD=    0.411 DampG=2.000 DampE=0.500 DampFc=1.0000 IDamp=-1.
 RMSDP=2.37D-03 MaxDP=2.16D-01              OVMax= 8.06D-02

 Cycle   2  Pass 1  IDiag  1:
 E= -2293.34555245133     Delta-E=       -0.633976951119 Rises=F Damp=F
 DIIS: error= 7.27D-03 at cycle   2 NSaved=   2.
 NSaved= 2 IEnMin= 2 EnMin= -2293.34555245133     IErMin= 2 ErrMin= 7.27D-03
 ErrMax= 7.27D-03  0.00D+00 EMaxC= 1.00D+00 BMatC= 8.25D-02 BMatP= 7.05D-01
 IDIUse=1 WtCom= 1.00D+00 WtEn= 0.00D+00
 Coeff-Com:  0.219D+00 0.781D+00
 Coeff:      0.219D+00 0.781D+00
 Gap=     0.306 Goal=   None    Shift=    0.500
 T= 1335. Gap= 0.750 NK=0 IS=  146 IE=  934 IFin=  145
          NO(<0.9)=   0  NV(>0.1)=   0    145.00e < EF      0.00e >EF  Err=0.0D+00
 GapD=    0.306 DampG=1.000 DampE=1.000 DampFc=1.0000 IDamp=-1.
 RMSDP=8.16D-04 MaxDP=9.70D-02 DE=-6.34D-01 OVMax= 1.94D-02

 Cycle   3  Pass 1  IDiag  1:
 E= -2293.40349068706     Delta-E=       -0.057938235729 Rises=F Damp=F
 DIIS: error= 2.02D-03 at cycle   3 NSaved=   3.
 NSaved= 3 IEnMin= 3 EnMin= -2293.40349068706     IErMin= 3 ErrMin= 2.02D-03
 ErrMax= 2.02D-03  0.00D+00 EMaxC= 1.00D+00 BMatC= 6.06D-03 BMatP= 8.25D-02
 IDIUse=1 WtCom= 1.00D+00 WtEn= 0.00D+00
 Coeff-Com:  0.671D-01 0.109D-01 0.922D+00
 Coeff:      0.671D-01 0.109D-01 0.922D+00
 Gap=     0.272 Goal=   None    Shift=    0.500
 T= 1011. Gap= 0.769 NK=0 IS=  146 IE=  934 IFin=  145
          NO(<0.9)=   0  NV(>0.1)=   0    145.00e < EF      0.00e >EF  Err=0.0D+00
 GapD=    0.272 DampG=1.000 DampE=1.000 DampFc=1.0000 IDamp=-1.
 RMSDP=3.07D-04 MaxDP=4.45D-02 DE=-5.79D-02 OVMax= 1.24D-02

 Cycle   4  Pass 1  IDiag  1:
 E= -2293.40970024158     Delta-E=       -0.006209554525 Rises=F Damp=F
 DIIS: error= 1.04D-03 at cycle   4 NSaved=   4.
 NSaved= 4 IEnMin= 4 EnMin= -2293.40970024158     IErMin= 4 ErrMin= 1.04D-03
 ErrMax= 1.04D-03  0.00D+00 EMaxC= 1.00D+00 BMatC= 9.95D-04 BMatP= 6.06D-03
 IDIUse=1 WtCom= 1.00D+00 WtEn= 0.00D+00
 Coeff-Com:  0.121D-01-0.649D-01 0.612D-01 0.992D+00
 Coeff:      0.121D-01-0.649D-01 0.612D-01 0.992D+00
 Gap=     0.268 Goal=   None    Shift=    0.500
 T=  197. Gap= 0.768 NK=0 IS=  146 IE=  934 IFin=  145
          NO(<0.9)=   0  NV(>0.1)=   0    145.00e < EF      0.00e >EF  Err=0.0D+00
 GapD=    0.268 DampG=1.000 DampE=1.000 DampFc=1.0000 IDamp=-1.
 RMSDP=1.59D-04 MaxDP=1.71D-02 DE=-6.21D-03 OVMax= 7.50D-03

 Cycle   5  Pass 1  IDiag  1:
 E= -2293.41122518018     Delta-E=       -0.001524938599 Rises=F Damp=F
 DIIS: error= 8.70D-04 at cycle   5 NSaved=   5.
 NSaved= 5 IEnMin= 5 EnMin= -2293.41122518018     IErMin= 5 ErrMin= 8.70D-04
 ErrMax= 8.70D-04  0.00D+00 EMaxC= 1.00D+00 BMatC= 1.86D-04 BMatP= 9.95D-04
 IDIUse=1 WtCom= 1.00D+00 WtEn= 0.00D+00
 Coeff-Com: -0.562D-02-0.101D-01-0.951D-01-0.231D+00 0.134D+01
 Coeff:     -0.562D-02-0.101D-01-0.951D-01-0.231D+00 0.134D+01
 Gap=     0.269 Goal=   None    Shift=    0.500
 RMSDP=1.10D-04 MaxDP=9.38D-03 DE=-1.52D-03 OVMax= 6.42D-03

 Cycle   6  Pass 1  IDiag  1:
 E= -2293.41179911747     Delta-E=       -0.000573937292 Rises=F Damp=F
 DIIS: error= 6.48D-04 at cycle   6 NSaved=   6.
 NSaved= 6 IEnMin= 6 EnMin= -2293.41179911747     IErMin= 6 ErrMin= 6.48D-04
 ErrMax= 6.48D-04  0.00D+00 EMaxC= 1.00D+00 BMatC= 6.46D-05 BMatP= 1.86D-04
 IDIUse=1 WtCom= 1.00D+00 WtEn= 0.00D+00
 Coeff-Com: -0.571D-02 0.123D-01-0.357D-01-0.272D+00-0.187D+00 0.149D+01
 Coeff:     -0.571D-02 0.123D-01-0.357D-01-0.272D+00-0.187D+00 0.149D+01
 Gap=     0.270 Goal=   None    Shift=    0.500
 RMSDP=7.06D-05 MaxDP=5.70D-03 DE=-5.74D-04 OVMax= 5.26D-03

 Cycle   7  Pass 1  IDiag  1:
 E= -2293.41207780359     Delta-E=       -0.000278686115 Rises=F Damp=F
 DIIS: error= 4.64D-04 at cycle   7 NSaved=   7.
 NSaved= 7 IEnMin= 7 EnMin= -2293.41207780359     IErMin= 7 ErrMin= 4.64D-04
 ErrMax= 4.64D-04  0.00D+00 EMaxC= 1.00D+00 BMatC= 2.72D-05 BMatP= 6.46D-05
 IDIUse=1 WtCom= 1.00D+00 WtEn= 0.00D+00
 Coeff-Com: -0.123D-02 0.592D-02 0.212D-01 0.208D-01-0.614D+00-0.185D+00
 Coeff-Com:  0.175D+01
 Coeff:     -0.123D-02 0.592D-02 0.212D-01 0.208D-01-0.614D+00-0.185D+00
 Coeff:      0.175D+01
 Gap=     0.270 Goal=   None    Shift=    0.500
 RMSDP=4.69D-05 MaxDP=4.76D-03 DE=-2.79D-04 OVMax= 4.13D-03

 Cycle   8  Pass 1  IDiag  1:
 E= -2293.41221828097     Delta-E=       -0.000140477379 Rises=F Damp=F
 DIIS: error= 3.29D-04 at cycle   8 NSaved=   8.
 NSaved= 8 IEnMin= 8 EnMin= -2293.41221828097     IErMin= 8 ErrMin= 3.29D-04
 ErrMax= 3.29D-04  0.00D+00 EMaxC= 1.00D+00 BMatC= 1.14D-05 BMatP= 2.72D-05
 IDIUse=1 WtCom= 1.00D+00 WtEn= 0.00D+00
 Coeff-Com:  0.749D-03-0.164D-02 0.495D-02 0.121D+00-0.835D-01-0.665D+00
 Coeff-Com: -0.331D+00 0.195D+01
 Coeff:      0.749D-03-0.164D-02 0.495D-02 0.121D+00-0.835D-01-0.665D+00
 Coeff:     -0.331D+00 0.195D+01
 Gap=     0.270 Goal=   None    Shift=    0.500
 RMSDP=3.00D-05 MaxDP=3.18D-03 DE=-1.40D-04 OVMax= 3.09D-03

 Cycle   9  Pass 1  IDiag  1:
 E= -2293.41228203855     Delta-E=       -0.000063757588 Rises=F Damp=F
 DIIS: error= 2.22D-04 at cycle   9 NSaved=   9.
 NSaved= 9 IEnMin= 9 EnMin= -2293.41228203855     IErMin= 9 ErrMin= 2.22D-04
 ErrMax= 2.22D-04  0.00D+00 EMaxC= 1.00D+00 BMatC= 4.98D-06 BMatP= 1.14D-05
 IDIUse=1 WtCom= 1.00D+00 WtEn= 0.00D+00
 Coeff-Com:  0.343D-03-0.149D-02-0.130D-01 0.561D-01 0.167D+00-0.304D+00
 Coeff-Com: -0.726D+00 0.174D+00 0.165D+01
 Coeff:      0.343D-03-0.149D-02-0.130D-01 0.561D-01 0.167D+00-0.304D+00
 Coeff:     -0.726D+00 0.174D+00 0.165D+01
 Gap=     0.270 Goal=   None    Shift=    0.500
 RMSDP=1.82D-05 MaxDP=1.89D-03 DE=-6.38D-05 OVMax= 2.14D-03

 Cycle  10  Pass 1  IDiag  1:
 E= -2293.41230941960     Delta-E=       -0.000027381043 Rises=F Damp=F
 DIIS: error= 1.52D-04 at cycle  10 NSaved=  10.
 NSaved=10 IEnMin=10 EnMin= -2293.41230941960     IErMin=10 ErrMin= 1.52D-04
 ErrMax= 1.52D-04  0.00D+00 EMaxC= 1.00D+00 BMatC= 2.04D-06 BMatP= 4.98D-06
 IDIUse=1 WtCom= 1.00D+00 WtEn= 0.00D+00
 Coeff-Com: -0.222D-03 0.930D-03-0.677D-02-0.132D-01 0.366D-01 0.128D+00
 Coeff-Com: -0.284D-01-0.796D+00-0.409D+00 0.209D+01
 Coeff:     -0.222D-03 0.930D-03-0.677D-02-0.132D-01 0.366D-01 0.128D+00
 Coeff:     -0.284D-01-0.796D+00-0.409D+00 0.209D+01
 Gap=     0.270 Goal=   None    Shift=    0.500
 RMSDP=1.28D-05 MaxDP=1.69D-03 DE=-2.74D-05 OVMax= 1.48D-03

 Cycle  11  Pass 1  IDiag  1:
 E= -2293.41232079874     Delta-E=       -0.000011379139 Rises=F Damp=F
 DIIS: error= 1.01D-04 at cycle  11 NSaved=  11.
 NSaved=11 IEnMin=11 EnMin= -2293.41232079874     IErMin=11 ErrMin= 1.01D-04
 ErrMax= 1.01D-04  0.00D+00 EMaxC= 1.00D+00 BMatC= 8.94D-07 BMatP= 2.04D-06
 IDIUse=1 WtCom= 1.00D+00 WtEn= 0.00D+00
 Coeff-Com: -0.210D-03 0.104D-02 0.996D-03-0.160D-01-0.437D-01 0.141D+00
 Coeff-Com:  0.195D+00-0.413D+00-0.859D+00 0.455D+00 0.154D+01
 Coeff:     -0.210D-03 0.104D-02 0.996D-03-0.160D-01-0.437D-01 0.141D+00
 Coeff:      0.195D+00-0.413D+00-0.859D+00 0.455D+00 0.154D+01
 Gap=     0.270 Goal=   None    Shift=    0.500
 RMSDP=7.99D-06 MaxDP=1.15D-03 DE=-1.14D-05 OVMax= 9.96D-04

 Cycle  12  Pass 1  IDiag  1:
 E= -2293.41232543261     Delta-E=       -0.000004633879 Rises=F Damp=F
 DIIS: error= 6.57D-05 at cycle  12 NSaved=  12.
 NSaved=12 IEnMin=12 EnMin= -2293.41232543261     IErMin=12 ErrMin= 6.57D-05
 ErrMax= 6.57D-05  0.00D+00 EMaxC= 1.00D+00 BMatC= 3.61D-07 BMatP= 8.94D-07
 IDIUse=1 WtCom= 1.00D+00 WtEn= 0.00D+00
 Coeff-Com: -0.503D-04 0.208D-03 0.250D-02-0.221D-03-0.292D-01 0.129D-01
 Coeff-Com:  0.641D-01 0.175D+00-0.347D+00-0.572D+00-0.290D+00 0.198D+01
 Coeff:     -0.503D-04 0.208D-03 0.250D-02-0.221D-03-0.292D-01 0.129D-01
 Coeff:      0.641D-01 0.175D+00-0.347D+00-0.572D+00-0.290D+00 0.198D+01
 Gap=     0.270 Goal=   None    Shift=    0.500
 RMSDP=5.24D-06 MaxDP=8.88D-04 DE=-4.63D-06 OVMax= 6.59D-04

 Cycle  13  Pass 1  IDiag  1:
 E= -2293.41232729152     Delta-E=       -0.000001858903 Rises=F Damp=F
 DIIS: error= 4.41D-05 at cycle  13 NSaved=  13.
 NSaved=13 IEnMin=13 EnMin= -2293.41232729152     IErMin=13 ErrMin= 4.41D-05
 ErrMax= 4.41D-05  0.00D+00 EMaxC= 1.00D+00 BMatC= 1.67D-07 BMatP= 3.61D-07
 IDIUse=1 WtCom= 1.00D+00 WtEn= 0.00D+00
 Coeff-Com:  0.118D-04-0.177D-03 0.222D-04 0.518D-02 0.574D-02-0.350D-01
 Coeff-Com: -0.534D-01 0.227D+00 0.131D+00-0.362D+00-0.114D+01 0.530D+00
 Coeff-Com:  0.169D+01
 Coeff:      0.118D-04-0.177D-03 0.222D-04 0.518D-02 0.574D-02-0.350D-01
 Coeff:     -0.534D-01 0.227D+00 0.131D+00-0.362D+00-0.114D+01 0.530D+00
 Coeff:      0.169D+01
 Gap=     0.270 Goal=   None    Shift=    0.500
 RMSDP=3.11D-06 MaxDP=4.65D-04 DE=-1.86D-06 OVMax= 4.48D-04

 Cycle  14  Pass 1  IDiag  1:
 E= -2293.41232806417     Delta-E=       -0.000000772652 Rises=F Damp=F
 DIIS: error= 2.86D-05 at cycle  14 NSaved=  14.
 NSaved=14 IEnMin=14 EnMin= -2293.41232806417     IErMin=14 ErrMin= 2.86D-05
 ErrMax= 2.86D-05  0.00D+00 EMaxC= 1.00D+00 BMatC= 6.85D-08 BMatP= 1.67D-07
 IDIUse=1 WtCom= 1.00D+00 WtEn= 0.00D+00
 Coeff-Com:  0.264D-05-0.131D-03-0.835D-03 0.161D-02 0.996D-02-0.109D-01
 Coeff-Com: -0.407D-01 0.265D-01 0.156D+00 0.761D-01-0.589D+00-0.116D+00
 Coeff-Com: -0.656D+00 0.214D+01
 Coeff:      0.264D-05-0.131D-03-0.835D-03 0.161D-02 0.996D-02-0.109D-01
 Coeff:     -0.407D-01 0.265D-01 0.156D+00 0.761D-01-0.589D+00-0.116D+00
 Coeff:     -0.656D+00 0.214D+01
 Gap=     0.270 Goal=   None    Shift=    0.500
 RMSDP=1.88D-06 MaxDP=2.78D-04 DE=-7.73D-07 OVMax= 2.93D-04

 Cycle  15  Pass 1  IDiag  1:
 E= -2293.41232837304     Delta-E=       -0.000000308868 Rises=F Damp=F
 DIIS: error= 1.85D-05 at cycle  15 NSaved=  15.
 NSaved=15 IEnMin=15 EnMin= -2293.41232837304     IErMin=15 ErrMin= 1.85D-05
 ErrMax= 1.85D-05  0.00D+00 EMaxC= 1.00D+00 BMatC= 2.89D-08 BMatP= 6.85D-08
 IDIUse=1 WtCom= 1.00D+00 WtEn= 0.00D+00
 Coeff-Com: -0.107D-04-0.384D-04-0.163D-03-0.171D-02 0.236D-02 0.954D-02
 Coeff-Com: -0.123D-02-0.562D-01 0.226D-01 0.144D+00 0.398D-01-0.740D-01
 Coeff-Com: -0.132D+01 0.562D+00 0.167D+01
 Coeff:     -0.107D-04-0.384D-04-0.163D-03-0.171D-02 0.236D-02 0.954D-02
 Coeff:     -0.123D-02-0.562D-01 0.226D-01 0.144D+00 0.398D-01-0.740D-01
 Coeff:     -0.132D+01 0.562D+00 0.167D+01
 Gap=     0.270 Goal=   None    Shift=    0.500
 RMSDP=1.11D-06 MaxDP=1.53D-04 DE=-3.09D-07 OVMax= 1.92D-04

 Cycle  16  Pass 1  IDiag  1:
 E= -2293.41232849715     Delta-E=       -0.000000124108 Rises=F Damp=F
 DIIS: error= 1.19D-05 at cycle  16 NSaved=  16.
 NSaved=16 IEnMin=16 EnMin= -2293.41232849715     IErMin=16 ErrMin= 1.19D-05
 ErrMax= 1.19D-05  0.00D+00 EMaxC= 1.00D+00 BMatC= 1.22D-08 BMatP= 2.89D-08
 IDIUse=1 WtCom= 1.00D+00 WtEn= 0.00D+00
 Coeff-Com: -0.949D-05 0.117D-04 0.357D-03-0.183D-02-0.211D-02 0.942D-02
 Coeff-Com:  0.137D-01-0.337D-01-0.484D-01 0.443D-01 0.223D+00 0.525D-01
 Coeff-Com: -0.653D+00-0.423D+00 0.136D-01 0.181D+01
 Coeff:     -0.949D-05 0.117D-04 0.357D-03-0.183D-02-0.211D-02 0.942D-02
 Coeff:      0.137D-01-0.337D-01-0.484D-01 0.443D-01 0.223D+00 0.525D-01
 Coeff:     -0.653D+00-0.423D+00 0.136D-01 0.181D+01
 Gap=     0.270 Goal=   None    Shift=    0.500
 RMSDP=6.42D-07 MaxDP=7.04D-05 DE=-1.24D-07 OVMax= 1.25D-04

 SCF Done:  E(RLC-wHPBE) =  -2293.41232850     A.U. after   16 cycles
            NFock= 16  Conv=0.64D-06     -V/T= 2.0039
 KE= 2.284534905108D+03 PE=-1.415962957625D+04 EE= 5.186540180695D+03
 Leave Link  502 at Thu Jan 28 22:34:02 2021, MaxMem=  4026531840 cpu:           14789.8 elap:            1871.7
 (Enter /opt/ohpc/pub/libs/gaussian/g16-A.03/sandybridge/g16/l508.exe)
 QCSCF skips out because SCF is already converged.
 Leave Link  508 at Thu Jan 28 22:34:03 2021, MaxMem=  4026531840 cpu:               0.2 elap:               0.1
 (Enter /opt/ohpc/pub/libs/gaussian/g16-A.03/sandybridge/g16/l601.exe)
 Copying SCF densities to generalized density rwf, IOpCl= 0 IROHF=0.

 **********************************************************************

            Population analysis using the SCF density.

 **********************************************************************

 Orbital symmetries:
       Occupied  (A) (A) (A) (A) (A) (A) (A) (A) (A) (A) (A) (A)
                 (A) (A) (A) (A) (A) (A) (A) (A) (A) (A) (A) (A)
                 (A) (A) (A) (A) (A) (A) (A) (A) (A) (A) (A) (A)
                 (A) (A) (A) (A) (A) (A) (A) (A) (A) (A) (A) (A)
                 (A) (A) (A) (A) (A) (A) (A) (A) (A) (A) (A) (A)
                 (A) (A) (A) (A) (A) (A) (A) (A) (A) (A) (A) (A)
                 (A) (A) (A) (A) (A) (A) (A) (A) (A) (A) (A) (A)
                 (A) (A) (A) (A) (A) (A) (A) (A) (A) (A) (A) (A)
                 (A) (A) (A) (A) (A) (A) (A) (A) (A) (A) (A) (A)
                 (A) (A) (A) (A) (A) (A) (A) (A) (A) (A) (A) (A)
                 (A) (A) (A) (A) (A) (A) (A) (A) (A) (A) (A) (A)
                 (A) (A) (A) (A) (A) (A) (A) (A) (A) (A) (A) (A)
                 (A)
       Virtual   (A) (A) (A) (A) (A) (A) (A) (A) (A) (A) (A) (A)
                 (A) (A) (A) (A) (A) (A) (A) (A) (A) (A) (A) (A)
                 (A) (A) (A) (A) (A) (A) (A) (A) (A) (A) (A) (A)
                 (A) (A) (A) (A) (A) (A) (A) (A) (A) (A) (A) (A)
                 (A) (A) (A) (A) (A) (A) (A) (A) (A) (A) (A) (A)
                 (A) (A) (A) (A) (A) (A) (A) (A) (A) (A) (A) (A)
                 (A) (A) (A) (A) (A) (A) (A) (A) (A) (A) (A) (A)
                 (A) (A) (A) (A) (A) (A) (A) (A) (A) (A) (A) (A)
                 (A) (A) (A) (A) (A) (A) (A) (A) (A) (A) (A) (A)
                 (A) (A) (A) (A) (A) (A) (A) (A) (A) (A) (A) (A)
                 (A) (A) (A) (A) (A) (A) (A) (A) (A) (A) (A) (A)
                 (A) (A) (A) (A) (A) (A) (A) (A) (A) (A) (A) (A)
                 (A) (A) (A) (A) (A) (A) (A) (A) (A) (A) (A) (A)
                 (A) (A) (A) (A) (A) (A) (A) (A) (A) (A) (A) (A)
                 (A) (A) (A) (A) (A) (A) (A) (A) (A) (A) (A) (A)
                 (A) (A) (A) (A) (A) (A) (A) (A) (A) (A) (A) (A)
                 (A) (A) (A) (A) (A) (A) (A) (A) (A) (A) (A) (A)
                 (A) (A) (A) (A) (A) (A) (A) (A) (A) (A) (A) (A)
                 (A) (A) (A) (A) (A) (A) (A) (A) (A) (A) (A) (A)
                 (A) (A) (A) (A) (A) (A) (A) (A) (A) (A) (A) (A)
                 (A) (A) (A) (A) (A) (A) (A) (A) (A) (A) (A) (A)
                 (A) (A) (A) (A) (A) (A) (A) (A) (A) (A) (A) (A)
                 (A) (A) (A) (A) (A) (A) (A) (A) (A) (A) (A) (A)
                 (A) (A) (A) (A) (A) (A) (A) (A) (A) (A) (A) (A)
                 (A) (A) (A) (A) (A) (A) (A) (A) (A) (A) (A) (A)
                 (A) (A) (A) (A) (A) (A) (A) (A) (A) (A) (A) (A)
                 (A) (A) (A) (A) (A) (A) (A) (A) (A) (A) (A) (A)
                 (A) (A) (A) (A) (A) (A) (A) (A) (A) (A) (A) (A)
                 (A) (A) (A) (A) (A) (A) (A) (A) (A) (A) (A) (A)
                 (A) (A) (A) (A) (A) (A) (A) (A) (A) (A) (A) (A)
                 (A) (A) (A) (A) (A) (A) (A) (A) (A) (A) (A) (A)
                 (A) (A) (A) (A) (A) (A) (A) (A) (A) (A) (A) (A)
                 (A) (A) (A) (A) (A) (A) (A) (A) (A) (A) (A) (A)
                 (A) (A) (A) (A) (A) (A) (A) (A) (A) (A) (A) (A)
                 (A) (A) (A) (A) (A) (A) (A) (A) (A) (A) (A) (A)
                 (A) (A) (A) (A) (A) (A) (A) (A) (A) (A) (A) (A)
                 (A) (A) (A) (A) (A) (A) (A) (A) (A) (A) (A) (A)
                 (A) (A) (A) (A) (A) (A) (A) (A) (A) (A) (A) (A)
                 (A) (A) (A) (A) (A) (A) (A) (A) (A) (A) (A) (A)
                 (A) (A) (A) (A) (A) (A) (A) (A) (A) (A) (A) (A)
                 (A) (A) (A) (A) (A) (A) (A) (A) (A) (A) (A) (A)
                 (A) (A) (A) (A) (A) (A) (A) (A) (A) (A) (A) (A)
                 (A) (A) (A) (A) (A) (A) (A) (A) (A) (A) (A) (A)
                 (A) (A) (A) (A) (A) (A) (A) (A) (A) (A) (A) (A)
                 (A) (A) (A) (A) (A) (A) (A) (A) (A) (A) (A) (A)
                 (A) (A) (A) (A) (A) (A) (A) (A) (A) (A) (A) (A)
                 (A) (A) (A) (A) (A) (A) (A) (A) (A) (A) (A) (A)
                 (A) (A) (A) (A) (A) (A) (A) (A) (A) (A) (A) (A)
                 (A) (A) (A) (A) (A) (A) (A) (A) (A) (A) (A) (A)
                 (A) (A) (A) (A) (A) (A) (A) (A) (A) (A) (A) (A)
                 (A) (A) (A) (A) (A) (A) (A) (A) (A) (A) (A) (A)
                 (A) (A) (A) (A) (A) (A) (A) (A) (A) (A) (A) (A)
                 (A) (A) (A) (A) (A) (A) (A) (A) (A) (A) (A) (A)
                 (A) (A) (A) (A) (A) (A) (A) (A) (A) (A) (A) (A)
                 (A) (A) (A) (A) (A) (A) (A) (A) (A) (A) (A) (A)
                 (A) (A) (A) (A) (A) (A) (A) (A) (A) (A) (A) (A)
                 (A) (A) (A) (A) (A) (A) (A) (A) (A) (A) (A) (A)
                 (A) (A) (A) (A) (A) (A) (A) (A) (A) (A) (A) (A)
                 (A) (A) (A) (A) (A) (A) (A) (A) (A) (A) (A) (A)
                 (A) (A) (A) (A) (A) (A) (A) (A) (A) (A) (A) (A)
                 (A) (A) (A) (A) (A) (A) (A) (A) (A) (A) (A) (A)
                 (A) (A) (A) (A) (A) (A) (A) (A) (A) (A) (A) (A)
                 (A) (A) (A) (A) (A) (A) (A) (A) (A) (A) (A) (A)
                 (A) (A) (A) (A) (A) (A) (A) (A) (A) (A) (A) (A)
                 (A) (A) (A) (A) (A) (A) (A) (A) (A) (A) (A) (A)
                 (A) (A) (A) (A) (A) (A) (A) (A) (A)
 The electronic state is 1-A.
 Alpha  occ. eigenvalues --  -88.22093 -88.21752 -14.14836 -14.14267 -10.06097
 Alpha  occ. eigenvalues --  -10.06013 -10.05814 -10.05684 -10.05453 -10.05329
 Alpha  occ. eigenvalues --  -10.05312 -10.05269 -10.04394 -10.02775 -10.02330
 Alpha  occ. eigenvalues --  -10.02328 -10.01730 -10.01704 -10.01605 -10.01566
 Alpha  occ. eigenvalues --  -10.01556 -10.01554 -10.01479 -10.01414 -10.01328
 Alpha  occ. eigenvalues --  -10.01310 -10.01286 -10.01278 -10.01274 -10.01266
 Alpha  occ. eigenvalues --  -10.01257 -10.01248 -10.01219 -10.01080 -10.00956
 Alpha  occ. eigenvalues --  -10.00948 -10.00942 -10.00937 -10.00781 -10.00760
 Alpha  occ. eigenvalues --   -7.81390  -7.80969  -5.83562  -5.83162  -5.83069
 Alpha  occ. eigenvalues --   -5.82662  -5.82305  -5.81865  -1.02854  -1.02270
 Alpha  occ. eigenvalues --   -0.94429  -0.92519  -0.92265  -0.91847  -0.90886
 Alpha  occ. eigenvalues --   -0.90203  -0.86532  -0.85569  -0.82819  -0.82304
 Alpha  occ. eigenvalues --   -0.82128  -0.81541  -0.81024  -0.80992  -0.80788
 Alpha  occ. eigenvalues --   -0.80610  -0.79890  -0.78571  -0.76345  -0.74914
 Alpha  occ. eigenvalues --   -0.70274  -0.69727  -0.69521  -0.68992  -0.67984
 Alpha  occ. eigenvalues --   -0.67587  -0.67253  -0.66847  -0.66702  -0.65995
 Alpha  occ. eigenvalues --   -0.64167  -0.63507  -0.61403  -0.61163  -0.60911
 Alpha  occ. eigenvalues --   -0.60414  -0.57544  -0.56878  -0.56524  -0.55188
 Alpha  occ. eigenvalues --   -0.55029  -0.54524  -0.54239  -0.53865  -0.53067
 Alpha  occ. eigenvalues --   -0.52445  -0.52191  -0.52000  -0.51220  -0.51030
 Alpha  occ. eigenvalues --   -0.50786  -0.50429  -0.50202  -0.50118  -0.49628
 Alpha  occ. eigenvalues --   -0.49415  -0.49287  -0.49131  -0.48894  -0.48176
 Alpha  occ. eigenvalues --   -0.47497  -0.46414  -0.46322  -0.45881  -0.45709
 Alpha  occ. eigenvalues --   -0.45479  -0.45351  -0.43711  -0.43463  -0.43003
 Alpha  occ. eigenvalues --   -0.42685  -0.42529  -0.42218  -0.41696  -0.41638
 Alpha  occ. eigenvalues --   -0.41177  -0.41051  -0.40798  -0.40548  -0.39923
 Alpha  occ. eigenvalues --   -0.38654  -0.37153  -0.35823  -0.34575  -0.34358
 Alpha  occ. eigenvalues --   -0.34062  -0.33939  -0.33437  -0.33232  -0.32824
 Alpha  occ. eigenvalues --   -0.32819  -0.30802  -0.29884  -0.25560  -0.25068
 Alpha virt. eigenvalues --    0.01931   0.02677   0.03244   0.03417   0.03523
 Alpha virt. eigenvalues --    0.03813   0.04700   0.05553   0.05758   0.05951
 Alpha virt. eigenvalues --    0.07169   0.07708   0.08527   0.10380   0.10556
 Alpha virt. eigenvalues --    0.11549   0.11740   0.12197   0.12315   0.12772
 Alpha virt. eigenvalues --    0.13688   0.13988   0.14342   0.14581   0.14710
 Alpha virt. eigenvalues --    0.14903   0.15136   0.15372   0.15783   0.16175
 Alpha virt. eigenvalues --    0.16306   0.16602   0.16796   0.17173   0.17389
 Alpha virt. eigenvalues --    0.17519   0.17740   0.17975   0.18130   0.18672
 Alpha virt. eigenvalues --    0.18824   0.19016   0.19167   0.19735   0.19826
 Alpha virt. eigenvalues --    0.20156   0.21633   0.21753   0.22010   0.22474
 Alpha virt. eigenvalues --    0.22716   0.23833   0.24556   0.24783   0.25166
 Alpha virt. eigenvalues --    0.25428   0.25637   0.25709   0.25860   0.26242
 Alpha virt. eigenvalues --    0.26483   0.26731   0.26865   0.27037   0.27134
 Alpha virt. eigenvalues --    0.27413   0.27583   0.27745   0.28209   0.28313
 Alpha virt. eigenvalues --    0.28454   0.28884   0.29120   0.29195   0.29539
 Alpha virt. eigenvalues --    0.29652   0.29757   0.30061   0.30324   0.30388
 Alpha virt. eigenvalues --    0.30430   0.30672   0.30781   0.31005   0.31101
 Alpha virt. eigenvalues --    0.31730   0.31771   0.31849   0.32211   0.32396
 Alpha virt. eigenvalues --    0.32651   0.33182   0.33351   0.33472   0.33885
 Alpha virt. eigenvalues --    0.34145   0.34299   0.34503   0.34797   0.35130
 Alpha virt. eigenvalues --    0.35343   0.35737   0.35940   0.36417   0.36447
 Alpha virt. eigenvalues --    0.36791   0.37246   0.37324   0.37422   0.37904
 Alpha virt. eigenvalues --    0.38024   0.38423   0.38553   0.38828   0.39134
 Alpha virt. eigenvalues --    0.39249   0.39314   0.39591   0.39977   0.40180
 Alpha virt. eigenvalues --    0.40668   0.40851   0.41712   0.42118   0.42346
 Alpha virt. eigenvalues --    0.42793   0.43038   0.43266   0.43473   0.43599
 Alpha virt. eigenvalues --    0.43960   0.44109   0.44199   0.44570   0.44717
 Alpha virt. eigenvalues --    0.45044   0.45309   0.45400   0.45543   0.45824
 Alpha virt. eigenvalues --    0.45925   0.46130   0.46381   0.46532   0.46556
 Alpha virt. eigenvalues --    0.46657   0.46854   0.46937   0.47119   0.47570
 Alpha virt. eigenvalues --    0.47826   0.47883   0.48145   0.48589   0.48655
 Alpha virt. eigenvalues --    0.48733   0.49144   0.49342   0.49391   0.49519
 Alpha virt. eigenvalues --    0.49754   0.49829   0.50064   0.50251   0.50415
 Alpha virt. eigenvalues --    0.50981   0.51151   0.51536   0.51878   0.52038
 Alpha virt. eigenvalues --    0.52445   0.52738   0.53288   0.53547   0.53795
 Alpha virt. eigenvalues --    0.53900   0.54633   0.54829   0.54999   0.55137
 Alpha virt. eigenvalues --    0.55468   0.55662   0.55914   0.56061   0.56137
 Alpha virt. eigenvalues --    0.56544   0.56680   0.56991   0.57146   0.57176
 Alpha virt. eigenvalues --    0.57434   0.57859   0.58096   0.58185   0.58251
 Alpha virt. eigenvalues --    0.58852   0.59305   0.59607   0.59799   0.60121
 Alpha virt. eigenvalues --    0.60460   0.60999   0.61492   0.61637   0.62004
 Alpha virt. eigenvalues --    0.62319   0.62653   0.62839   0.63121   0.63901
 Alpha virt. eigenvalues --    0.64282   0.64778   0.65028   0.65803   0.66554
 Alpha virt. eigenvalues --    0.67202   0.67790   0.68208   0.68636   0.68931
 Alpha virt. eigenvalues --    0.69268   0.69524   0.70447   0.71026   0.71818
 Alpha virt. eigenvalues --    0.72580   0.73225   0.73307   0.73732   0.73929
 Alpha virt. eigenvalues --    0.74228   0.74579   0.75052   0.75331   0.75501
 Alpha virt. eigenvalues --    0.75775   0.76023   0.76474   0.76501   0.76564
 Alpha virt. eigenvalues --    0.76736   0.77045   0.77419   0.77601   0.78127
 Alpha virt. eigenvalues --    0.78417   0.78733   0.78963   0.79265   0.79539
 Alpha virt. eigenvalues --    0.79945   0.80693   0.80729   0.81400   0.81775
 Alpha virt. eigenvalues --    0.82755   0.83281   0.83474   0.83807   0.84509
 Alpha virt. eigenvalues --    0.84922   0.85397   0.85591   0.86450   0.86823
 Alpha virt. eigenvalues --    0.88099   0.88619   0.89739   0.90814   0.91327
 Alpha virt. eigenvalues --    0.91568   0.92037   0.92251   0.92440   0.94175
 Alpha virt. eigenvalues --    0.95280   0.96493   0.97068   0.97654   0.98104
 Alpha virt. eigenvalues --    0.98991   0.99174   1.00725   1.02296   1.03088
 Alpha virt. eigenvalues --    1.04901   1.07071   1.09162   1.14922   1.19499
 Alpha virt. eigenvalues --    1.19663   1.21063   1.21370   1.23621   1.24938
 Alpha virt. eigenvalues --    1.25361   1.25821   1.26413   1.26947   1.27032
 Alpha virt. eigenvalues --    1.27930   1.28555   1.28822   1.28960   1.29139
 Alpha virt. eigenvalues --    1.29286   1.29490   1.30674   1.30833   1.31225
 Alpha virt. eigenvalues --    1.31453   1.31499   1.31754   1.31928   1.32300
 Alpha virt. eigenvalues --    1.32608   1.33049   1.33089   1.33454   1.33731
 Alpha virt. eigenvalues --    1.33970   1.34121   1.34227   1.34537   1.34826
 Alpha virt. eigenvalues --    1.35276   1.35534   1.35815   1.35868   1.36046
 Alpha virt. eigenvalues --    1.36415   1.36721   1.36904   1.37161   1.37943
 Alpha virt. eigenvalues --    1.38135   1.38240   1.39047   1.39227   1.39722
 Alpha virt. eigenvalues --    1.39944   1.40532   1.40777   1.41233   1.42293
 Alpha virt. eigenvalues --    1.44473   1.45503   1.46175   1.46734   1.47127
 Alpha virt. eigenvalues --    1.47141   1.47555   1.47740   1.47968   1.48317
 Alpha virt. eigenvalues --    1.48675   1.48856   1.48968   1.49175   1.49202
 Alpha virt. eigenvalues --    1.49385   1.49463   1.49500   1.49668   1.49887
 Alpha virt. eigenvalues --    1.49956   1.50338   1.50824   1.51183   1.51335
 Alpha virt. eigenvalues --    1.51663   1.51892   1.52218   1.52422   1.52660
 Alpha virt. eigenvalues --    1.52781   1.52909   1.53169   1.53209   1.53431
 Alpha virt. eigenvalues --    1.53904   1.54183   1.54974   1.55180   1.55621
 Alpha virt. eigenvalues --    1.56134   1.56390   1.56746   1.56810   1.57404
 Alpha virt. eigenvalues --    1.57668   1.57903   1.58158   1.58275   1.58540
 Alpha virt. eigenvalues --    1.58738   1.59204   1.59417   1.59864   1.60315
 Alpha virt. eigenvalues --    1.60398   1.60589   1.60691   1.60760   1.61001
 Alpha virt. eigenvalues --    1.61269   1.61410   1.61592   1.61783   1.62246
 Alpha virt. eigenvalues --    1.62330   1.62700   1.62816   1.63238   1.63315
 Alpha virt. eigenvalues --    1.63416   1.63552   1.63687   1.64084   1.64385
 Alpha virt. eigenvalues --    1.64750   1.65127   1.65261   1.65685   1.66402
 Alpha virt. eigenvalues --    1.66867   1.68646   1.69783   1.69973   1.71756
 Alpha virt. eigenvalues --    1.72027   1.72183   1.72377   1.72581   1.73369
 Alpha virt. eigenvalues --    1.75496   1.75559   1.75884   1.76596   1.76750
 Alpha virt. eigenvalues --    1.78130   1.78757   1.80228   1.80855   1.81072
 Alpha virt. eigenvalues --    1.81423   1.81564   1.81701   1.81803   1.81903
 Alpha virt. eigenvalues --    1.81977   1.82422   1.82559   1.83114   1.83296
 Alpha virt. eigenvalues --    1.83818   1.83987   1.84407   1.84606   1.84901
 Alpha virt. eigenvalues --    1.85398   1.85730   1.85903   1.86278   1.86463
 Alpha virt. eigenvalues --    1.86731   1.86849   1.86978   1.87390   1.87688
 Alpha virt. eigenvalues --    1.87923   1.88944   1.89489   1.89633   1.91332
 Alpha virt. eigenvalues --    1.91577   1.92420   1.92792   1.93088   1.93313
 Alpha virt. eigenvalues --    1.93545   1.93738   1.93845   1.93986   1.94982
 Alpha virt. eigenvalues --    1.95283   1.95858   1.96093   1.96502   1.96610
 Alpha virt. eigenvalues --    1.96823   1.96828   1.97030   1.97229   1.97305
 Alpha virt. eigenvalues --    1.97458   1.97553   1.97773   1.97810   1.98139
 Alpha virt. eigenvalues --    1.98319   1.98433   1.98483   1.98892   1.99365
 Alpha virt. eigenvalues --    1.99577   2.00293   2.00704   2.01369   2.01949
 Alpha virt. eigenvalues --    2.02188   2.02458   2.02536   2.02798   2.03142
 Alpha virt. eigenvalues --    2.04578   2.05266   2.05553   2.05808   2.05848
 Alpha virt. eigenvalues --    2.06533   2.07134   2.07269   2.08055   2.08260
 Alpha virt. eigenvalues --    2.09114   2.09630   2.10425   2.11821   2.12458
 Alpha virt. eigenvalues --    2.12787   2.13417   2.14411   2.15138   2.15367
 Alpha virt. eigenvalues --    2.16707   2.17118   2.18275   2.19691   2.20128
 Alpha virt. eigenvalues --    2.21626   2.22512   2.24369   2.24482   2.25102
 Alpha virt. eigenvalues --    2.25390   2.25972   2.27131   2.27940   2.29037
 Alpha virt. eigenvalues --    2.29136   2.29298   2.29622   2.31513   2.32079
 Alpha virt. eigenvalues --    2.33712   2.33976   2.34548   2.34975   2.35233
 Alpha virt. eigenvalues --    2.35492   2.36119   2.36166   2.36450   2.36640
 Alpha virt. eigenvalues --    2.36737   2.36882   2.36945   2.37091   2.37279
 Alpha virt. eigenvalues --    2.37834   2.38081   2.38471   2.38817   2.39010
 Alpha virt. eigenvalues --    2.39438   2.39601   2.39760   2.40002   2.40479
 Alpha virt. eigenvalues --    2.41127   2.41237   2.41335   2.41794   2.41986
 Alpha virt. eigenvalues --    2.42206   2.42251   2.42394   2.42734   2.42934
 Alpha virt. eigenvalues --    2.43127   2.43696   2.44428   2.47051   2.49574
 Alpha virt. eigenvalues --    2.50422   2.50739   2.51003   2.51370   2.52184
 Alpha virt. eigenvalues --    2.52359   2.53650   2.54903   2.55456   2.55694
 Alpha virt. eigenvalues --    2.55798   2.56483   2.56895   2.57079   2.57336
 Alpha virt. eigenvalues --    2.57516   2.57774   2.57894   2.58201   2.59310
 Alpha virt. eigenvalues --    2.59875   2.60886   2.61033   2.61947   2.62348
 Alpha virt. eigenvalues --    2.63728   2.64463   2.65438   2.66715   2.67079
 Alpha virt. eigenvalues --    2.67882   2.68604   2.68839   2.69227   2.69381
 Alpha virt. eigenvalues --    2.69460   2.69769   2.69852   2.70069   2.70209
 Alpha virt. eigenvalues --    2.70630   2.71227   2.71425   2.71514   2.72103
 Alpha virt. eigenvalues --    2.72548   2.73023   2.73172   2.73981   2.76441
 Alpha virt. eigenvalues --    2.78834   2.79213   2.79418   2.79545   2.80789
 Alpha virt. eigenvalues --    2.81818   2.81994   2.82260   2.82405   2.82644
 Alpha virt. eigenvalues --    2.84248   2.84322   2.84840   2.86955   2.87323
 Alpha virt. eigenvalues --    2.87456   2.87916   2.89101   2.90070   2.90108
 Alpha virt. eigenvalues --    2.90310   2.90590   2.91780   2.94430   2.95113
 Alpha virt. eigenvalues --    3.01128   3.01741   3.01936   3.02177   3.02338
 Alpha virt. eigenvalues --    3.02662   3.03469   3.03835   3.06061   3.06458
 Alpha virt. eigenvalues --    3.06981   3.07178   3.07594   3.07991   3.08372
 Alpha virt. eigenvalues --    3.08713   3.09101   3.09268   3.10484   3.11997
 Alpha virt. eigenvalues --    3.12892   3.13748   3.14413   3.14784   3.15077
 Alpha virt. eigenvalues --    3.15453   3.16388   3.16812   3.18479   3.19219
 Alpha virt. eigenvalues --    3.19596   3.19702   3.20853   3.22031   3.22559
 Alpha virt. eigenvalues --    3.22773   3.23106   3.23800   3.24754   3.25022
 Alpha virt. eigenvalues --    3.25315   3.25670   3.25887   3.26160   3.26319
 Alpha virt. eigenvalues --    3.26705   3.27475   3.29523   3.32472   3.33078
 Alpha virt. eigenvalues --    3.37657   3.38101   3.38173   3.38451   3.38743
 Alpha virt. eigenvalues --    3.39839   3.41681   3.44123   3.45093   3.45518
 Alpha virt. eigenvalues --    3.45778   3.50425   3.51043   3.56826   3.57479
 Alpha virt. eigenvalues --    3.58294   3.59696   3.59938   3.61685   3.62533
 Alpha virt. eigenvalues --    3.62780   3.66246   3.66584   3.82482   3.84929
 Alpha virt. eigenvalues --    3.94635   3.95937   3.97679   3.98065  18.82834
 Alpha virt. eigenvalues --   19.00956  21.22100  21.22657  21.24759  21.24867
 Alpha virt. eigenvalues --   21.26255  21.26781  21.71565  21.72072  21.74343
 Alpha virt. eigenvalues --   21.74733  21.75001  21.75956  21.76785  21.78683
 Alpha virt. eigenvalues --   21.82762  21.82930  21.83986  21.86219  21.94756
 Alpha virt. eigenvalues --   21.95677  21.98400  21.99299  22.00396  22.00783
 Alpha virt. eigenvalues --   22.01317  22.02564  22.06243  22.06916  22.07920
 Alpha virt. eigenvalues --   22.08488  22.12537  22.13856  22.18721  22.18836
 Alpha virt. eigenvalues --   22.20321  22.21807  32.07904  32.08043
          Condensed to atoms (all electrons):
 Mulliken charges:
               1
     1  C   -0.058421
     2  C   -0.265893
     3  S    0.070394
     4  C   -0.018784
     5  C    0.014775
     6  C   -0.204547
     7  C   -0.032915
     8  C   -0.033703
     9  H    0.088743
    10  C   -0.120195
    11  C   -0.109506
    12  C   -0.097653
    13  C   -0.071786
    14  H    0.146975
    15  H    0.124704
    16  H    0.148498
    17  C   -0.146190
    18  H    0.156226
    19  H    0.148341
    20  H    0.113329
    21  H    0.155531
    22  S   -0.025596
    23  N   -0.018472
    24  C   -0.052397
    25  C   -0.119695
    26  C   -0.114782
    27  C   -0.113553
    28  C   -0.113622
    29  C   -0.108111
    30  H    0.155264
    31  H    0.153652
    32  H    0.107954
    33  H    0.108519
    34  H    0.106933
    35  C   -0.051611
    36  C   -0.124070
    37  C   -0.110226
    38  C   -0.113395
    39  C   -0.115545
    40  C   -0.108563
    41  H    0.155525
    42  H    0.158300
    43  H    0.107772
    44  H    0.106991
    45  H    0.106244
    46  N   -0.018006
    47  C   -0.082196
    48  C   -0.106508
    49  C   -0.102273
    50  C   -0.117773
    51  C   -0.121412
    52  C   -0.101278
    53  H    0.155581
    54  H    0.162149
    55  H    0.109628
    56  H    0.108677
    57  H    0.108553
    58  C   -0.060699
    59  C   -0.114570
    60  C   -0.108732
    61  C   -0.111606
    62  C   -0.112147
    63  C   -0.106802
    64  H    0.153495
    65  H    0.152186
    66  H    0.109515
    67  H    0.110107
    68  H    0.108671
 Sum of Mulliken charges =  -0.00000
 Mulliken charges with hydrogens summed into heavy atoms:
               1
     1  C    0.097805
     2  C   -0.265893
     3  S    0.070394
     4  C   -0.018784
     5  C    0.163116
     6  C   -0.204547
     7  C   -0.032915
     8  C    0.079626
    10  C    0.026780
    11  C    0.015198
    12  C    0.050844
    13  C   -0.071786
    17  C    0.009342
    22  S    0.063147
    23  N   -0.018472
    24  C   -0.052397
    25  C    0.035569
    26  C    0.038870
    27  C   -0.005598
    28  C   -0.005104
    29  C   -0.001178
    35  C   -0.051611
    36  C    0.031455
    37  C    0.048074
    38  C   -0.005624
    39  C   -0.008554
    40  C   -0.002319
    46  N   -0.018006
    47  C   -0.082196
    48  C    0.049073
    49  C    0.059876
    50  C   -0.008145
    51  C   -0.012735
    52  C    0.007275
    58  C   -0.060699
    59  C    0.038925
    60  C    0.043454
    61  C   -0.002091
    62  C   -0.002040
    63  C    0.001869
 Electronic spatial extent (au):  <R**2>=          31233.2393
 Charge=             -0.0000 electrons
 Dipole moment (field-independent basis, Debye):
    X=             -0.9751    Y=              2.0695    Z=             -0.1143  Tot=              2.2905
 Quadrupole moment (field-independent basis, Debye-Ang):
   XX=           -228.1917   YY=           -235.4311   ZZ=           -238.3779
   XY=             -1.8396   XZ=             -0.3249   YZ=              7.1310
 Traceless Quadrupole moment (field-independent basis, Debye-Ang):
   XX=              5.8085   YY=             -1.4309   ZZ=             -4.3777
   XY=             -1.8396   XZ=             -0.3249   YZ=              7.1310
 Octapole moment (field-independent basis, Debye-Ang**2):
  XXX=              9.5953  YYY=             37.5831  ZZZ=             32.3610  XYY=             -9.7008
  XXY=            -20.0775  XXZ=            -48.8603  XZZ=            -16.7076  YZZ=             12.6841
  YYZ=            -18.8285  XYZ=              2.2816
 Hexadecapole moment (field-independent basis, Debye-Ang**3):
 XXXX=         -31861.9946 YYYY=          -6608.8597 ZZZZ=          -3702.0376 XXXY=           -210.5017
 XXXZ=             14.4727 YYYX=             99.2075 YYYZ=            -11.5325 ZZZX=             45.7217
 ZZZY=            188.1571 XXYY=          -6163.7724 XXZZ=          -6089.6341 YYZZ=          -1790.1615
 XXYZ=             70.6597 YYXZ=             14.2468 ZZXY=              8.5304
 N-N= 4.395142161951D+03 E-N=-1.415963041738D+04  KE= 2.284534905108D+03
 No NMR shielding tensors so no spin-rotation constants.
 Leave Link  601 at Thu Jan 28 22:34:04 2021, MaxMem=  4026531840 cpu:               7.7 elap:               1.1
 (Enter /opt/ohpc/pub/libs/gaussian/g16-A.03/sandybridge/g16/l9999.exe)

 Test job not archived.
 1\1\GINC-CNODE210\SP\RLC-wHPBE\TZVP\C36H28N2S2\RDU230\28-Jan-2021\0\\#
 P LC-wHPBE/TZVP iop(3/107=0224100000, 3/108=0224100000) scf=(conver=6,
 fermi,ndamp=35,noincfock,novaracc,vshift=500,xqc)\\H28 C36 S2 N2\\0,1\
 C,0,-2.604951,0.985352,-0.477595\C,0,-1.595468,1.227646,-1.396897\S,0,
 -0.459746,2.557842,-1.073663\C,0,-1.509976,0.467226,-2.564163\C,0,1.04
 3777,0.455726,-0.021717\C,0,1.03833,1.682104,-0.668307\C,0,-3.557585,-
 0.001751,-0.697168\C,0,-2.447111,-0.539154,-2.764444\H,0,-0.596318,-0.
 14267,-4.605045\C,0,2.238728,-0.147647,0.319798\C,0,2.246539,2.297832,
 -0.961919\C,0,3.442101,1.694718,-0.621166\C,0,3.453096,0.46292,0.02383
 7\H,0,2.234263,-1.106243,0.827797\H,0,2.253931,3.248348,-1.486346\H,0,
 4.381679,2.178238,-0.866461\C,0,-3.461673,-0.764082,-1.856276\H,0,-2.6
 46669,1.585519,0.424718\H,0,0.106936,-0.032641,0.224382\H,0,-2.404245,
 -1.146243,-3.663282\H,0,-4.192893,-1.542008,-2.047877\S,0,-0.233558,0.
 817463,-3.737465\N,0,4.673686,-0.159547,0.368747\C,0,5.732508,0.612661
 ,0.896564\C,0,7.045695,0.37796,0.499452\C,0,5.475865,1.622329,1.819567
 \C,0,8.078745,1.133154,1.024558\C,0,6.512871,2.384632,2.326214\C,0,7.8
 20306,2.143178,1.9369\H,0,7.251646,-0.403669,-0.22406\H,0,4.45483,1.80
 7304,2.136118\H,0,9.097402,0.93653,0.704866\H,0,6.295127,3.169013,3.04
 4416\H,0,8.632202,2.738403,2.341339\C,0,4.837054,-1.548147,0.168533\C,
 0,5.516065,-2.321618,1.105787\C,0,4.319017,-2.163542,-0.967486\C,0,5.6
 79987,-3.679833,0.902534\C,0,4.472338,-3.525567,-1.15401\C,0,5.156657,
 -4.292005,-0.224805\H,0,5.917204,-1.848815,1.995947\H,0,3.79167,-1.566
 068,-1.703651\H,0,6.213214,-4.268058,1.642948\H,0,4.061647,-3.98973,-2
 .045325\H,0,5.281223,-5.35883,-0.377899\N,0,-4.591369,-0.225236,0.2355
 72\C,0,-4.996809,-1.544618,0.539366\C,0,-6.345932,-1.849462,0.693639\C
 ,0,-4.053605,-2.557013,0.688173\C,0,-6.738551,-3.140118,0.998819\C,0,-
 4.45592,-3.848924,0.975713\C,0,-5.798707,-4.148587,1.137139\H,0,-7.085
 839,-1.064984,0.575406\H,0,-2.999778,-2.324624,0.576668\H,0,-7.794748,
 -3.361033,1.117399\H,0,-3.707423,-4.627077,1.088273\H,0,-6.110711,-5.1
 61215,1.369943\C,0,-5.228462,0.872905,0.859345\C,0,-5.548183,0.824769,
 2.212595\C,0,-5.541916,2.014931,0.129127\C,0,-6.178047,1.897088,2.8180
 17\C,0,-6.155123,3.090236,0.746513\C,0,-6.481192,3.037227,2.091754\H,0
 ,-5.300925,-0.061617,2.787177\H,0,-5.299559,2.056134,-0.927579\H,0,-6.
 421719,1.844307,3.874525\H,0,-6.390696,3.975287,0.163884\H,0,-6.967632
 ,3.87989,2.571608\\Version=EM64L-G16RevA.03\State=1-A\HF=-2293.4123285
 \RMSD=6.420e-07\Dipole=-0.3836261,-0.814186,0.0449738\Quadrupole=4.318
 5068,-1.0638135,-3.2546933,1.3676739,0.2415355,5.3017076\PG=C01 [X(C36
 H28N2S2)]\\@


 THE GREAT THING ABOUT BEING IMPERFECT IS THE JOY IT BRINGS OTHERS.
   -- SIGN OUTSIDE LAKE AGASSIZ JR. HIGH SCHOOL, FARGO, N.D.
 Job cpu time:       0 days  4 hours  9 minutes 10.8 seconds.
 Elapsed time:       0 days  0 hours 31 minutes 32.3 seconds.
 File lengths (MBytes):  RWF=    304 Int=      0 D2E=      0 Chk=     56 Scr=      8
 Normal termination of Gaussian 16 at Thu Jan 28 22:34:04 2021.
