 Entering Gaussian System, Link 0=g16
 Input=mol_ta_pa_whol_tune_c0.gjf
 Output=mol_ta_pa_whol_tune_c0.log
 Initial command:
 /opt/ohpc/pub/libs/gaussian/g16-A.03/sandybridge/g16/l1.exe "/mnt/gpfs2_4m/scratch/rdu230/ondemand/projects/init_structures/gaussian/wtuning/mol_ta_pa_whol/tuning_mol_ta_pa_whol_ocycle0/Gau-11873.inp" -scrdir="/mnt/gpfs2_4m/scratch/rdu230/ondemand/projects/init_structures/gaussian/wtuning/mol_ta_pa_whol/tuning_mol_ta_pa_whol_ocycle0/"
 Entering Link 1 = /opt/ohpc/pub/libs/gaussian/g16-A.03/sandybridge/g16/l1.exe PID=     11874.
  
 Copyright (c) 1988,1990,1992,1993,1995,1998,2003,2009,2016,
            Gaussian, Inc.  All Rights Reserved.
  
 This is part of the Gaussian(R) 16 program.  It is based on
 the Gaussian(R) 09 system (copyright 2009, Gaussian, Inc.),
 the Gaussian(R) 03 system (copyright 2003, Gaussian, Inc.),
 the Gaussian(R) 98 system (copyright 1998, Gaussian, Inc.),
 the Gaussian(R) 94 system (copyright 1995, Gaussian, Inc.),
 the Gaussian 92(TM) system (copyright 1992, Gaussian, Inc.),
 the Gaussian 90(TM) system (copyright 1990, Gaussian, Inc.),
 the Gaussian 88(TM) system (copyright 1988, Gaussian, Inc.),
 the Gaussian 86(TM) system (copyright 1986, Carnegie Mellon
 University), and the Gaussian 82(TM) system (copyright 1983,
 Carnegie Mellon University). Gaussian is a federally registered
 trademark of Gaussian, Inc.
  
 This software contains proprietary and confidential information,
 including trade secrets, belonging to Gaussian, Inc.
  
 This software is provided under written license and may be
 used, copied, transmitted, or stored only in accord with that
 written license.
  
 The following legend is applicable only to US Government
 contracts under FAR:
  
                    RESTRICTED RIGHTS LEGEND
  
 Use, reproduction and disclosure by the US Government is
 subject to restrictions as set forth in subparagraphs (a)
 and (c) of the Commercial Computer Software - Restricted
 Rights clause in FAR 52.227-19.
  
 Gaussian, Inc.
 340 Quinnipiac St., Bldg. 40, Wallingford CT 06492
  
  
 ---------------------------------------------------------------
 Warning -- This program may not be used in any manner that
 competes with the business of Gaussian, Inc. or will provide
 assistance to any competitor of Gaussian, Inc.  The licensee
 of this program is prohibited from giving any competitor of
 Gaussian, Inc. access to this program.  By using this program,
 the user acknowledges that Gaussian, Inc. is engaged in the
 business of creating and licensing software in the field of
 computational chemistry and represents and warrants to the
 licensee that it is not a competitor of Gaussian, Inc. and that
 it will not use this program in any manner prohibited above.
 ---------------------------------------------------------------
  

 Cite this work as:
 Gaussian 16, Revision A.03,
 M. J. Frisch, G. W. Trucks, H. B. Schlegel, G. E. Scuseria, 
 M. A. Robb, J. R. Cheeseman, G. Scalmani, V. Barone, 
 G. A. Petersson, H. Nakatsuji, X. Li, M. Caricato, A. V. Marenich, 
 J. Bloino, B. G. Janesko, R. Gomperts, B. Mennucci, H. P. Hratchian, 
 J. V. Ortiz, A. F. Izmaylov, J. L. Sonnenberg, D. Williams-Young, 
 F. Ding, F. Lipparini, F. Egidi, J. Goings, B. Peng, A. Petrone, 
 T. Henderson, D. Ranasinghe, V. G. Zakrzewski, J. Gao, N. Rega, 
 G. Zheng, W. Liang, M. Hada, M. Ehara, K. Toyota, R. Fukuda, 
 J. Hasegawa, M. Ishida, T. Nakajima, Y. Honda, O. Kitao, H. Nakai, 
 T. Vreven, K. Throssell, J. A. Montgomery, Jr., J. E. Peralta, 
 F. Ogliaro, M. J. Bearpark, J. J. Heyd, E. N. Brothers, K. N. Kudin, 
 V. N. Staroverov, T. A. Keith, R. Kobayashi, J. Normand, 
 K. Raghavachari, A. P. Rendell, J. C. Burant, S. S. Iyengar, 
 J. Tomasi, M. Cossi, J. M. Millam, M. Klene, C. Adamo, R. Cammi, 
 J. W. Ochterski, R. L. Martin, K. Morokuma, O. Farkas, 
 J. B. Foresman, and D. J. Fox, Gaussian, Inc., Wallingford CT, 2016.
 
 ******************************************
 Gaussian 16:  EM64L-G16RevA.03 25-Dec-2016
                27-Jan-2021 
 ******************************************
 %mem=30GB
 %nproc=8
 Will use up to    8 processors via shared memory.
 ----------------------------------------------------------------------
 #P LC-wHPBE/TZVP iop(3/107=0221900000, 3/108=0221900000) scf=(conver=6
 ,fermi,ndamp=35,noincfock,novaracc,vshift=500,xqc)
 ----------------------------------------------------------------------
 1/38=1,172=1/1;
 2/12=2,17=6,18=5,40=1/2;
 3/5=19,7=101,11=2,25=1,30=1,74=-71,107=221900000,108=221900000/1,2,3;
 4//1;
 5/5=100002,6=6,8=3,10=500,13=1,18=-1,22=13,38=1,93=35/2,8;
 6/7=2,8=2,9=2,10=2,28=1/1;
 99/5=1,9=1/99;
 Leave Link    1 at Wed Jan 27 09:11:51 2021, MaxMem=  4026531840 cpu:               1.6 elap:               0.2
 (Enter /opt/ohpc/pub/libs/gaussian/g16-A.03/sandybridge/g16/l101.exe)
 -------------
 H28 C36 S2 N2
 -------------
 Symbolic Z-matrix:
 Charge =  1 Multiplicity = 2
 C                    -2.60495   0.98535  -0.4776 
 C                    -1.59547   1.22765  -1.3969 
 S                    -0.45975   2.55784  -1.07366 
 C                    -1.50998   0.46723  -2.56416 
 C                     1.04378   0.45573  -0.02172 
 C                     1.03833   1.6821   -0.66831 
 C                    -3.55759  -0.00175  -0.69717 
 C                    -2.44711  -0.53915  -2.76444 
 H                    -0.59632  -0.14267  -4.60505 
 C                     2.23873  -0.14765   0.3198 
 C                     2.24654   2.29783  -0.96192 
 C                     3.4421    1.69472  -0.62117 
 C                     3.4531    0.46292   0.02384 
 H                     2.23426  -1.10624   0.8278 
 H                     2.25393   3.24835  -1.48635 
 H                     4.38168   2.17824  -0.86646 
 C                    -3.46167  -0.76408  -1.85628 
 H                    -2.64667   1.58552   0.42472 
 H                     0.10694  -0.03264   0.22438 
 H                    -2.40424  -1.14624  -3.66328 
 H                    -4.19289  -1.54201  -2.04788 
 S                    -0.23356   0.81746  -3.73747 
 N                     4.67369  -0.15955   0.36875 
 C                     5.73251   0.61266   0.89656 
 C                     7.0457    0.37796   0.49945 
 C                     5.47587   1.62233   1.81957 
 C                     8.07874   1.13315   1.02456 
 C                     6.51287   2.38463   2.32621 
 C                     7.82031   2.14318   1.9369 
 H                     7.25165  -0.40367  -0.22406 
 H                     4.45483   1.8073    2.13612 
 H                     9.0974    0.93653   0.70487 
 H                     6.29513   3.16901   3.04442 
 H                     8.6322    2.7384    2.34134 
 C                     4.83705  -1.54815   0.16853 
 C                     5.51607  -2.32162   1.10579 
 C                     4.31902  -2.16354  -0.96749 
 C                     5.67999  -3.67983   0.90253 
 C                     4.47234  -3.52557  -1.15401 
 C                     5.15666  -4.29201  -0.22481 
 H                     5.9172   -1.84882   1.99595 
 H                     3.79167  -1.56607  -1.70365 
 H                     6.21321  -4.26806   1.64295 
 H                     4.06165  -3.98973  -2.04533 
 H                     5.28122  -5.35883  -0.3779 
 N                    -4.59137  -0.22524   0.23557 
 C                    -4.99681  -1.54462   0.53937 
 C                    -6.34593  -1.84946   0.69364 
 C                    -4.05361  -2.55701   0.68817 
 C                    -6.73855  -3.14012   0.99882 
 C                    -4.45592  -3.84892   0.97571 
 C                    -5.79871  -4.14859   1.13714 
 H                    -7.08584  -1.06498   0.57541 
 H                    -2.99978  -2.32462   0.57667 
 H                    -7.79475  -3.36103   1.1174 
 H                    -3.70742  -4.62708   1.08827 
 H                    -6.11071  -5.16122   1.36994 
 C                    -5.22846   0.87291   0.85935 
 C                    -5.54818   0.82477   2.2126 
 C                    -5.54192   2.01493   0.12913 
 C                    -6.17805   1.89709   2.81802 
 C                    -6.15512   3.09024   0.74651 
 C                    -6.48119   3.03723   2.09175 
 H                    -5.30093  -0.06162   2.78718 
 H                    -5.29956   2.05613  -0.92758 
 H                    -6.42172   1.84431   3.87453 
 H                    -6.3907    3.97529   0.16388 
 H                    -6.96763   3.87989   2.57161 
 
 ITRead=  0  0  0  0  0  0  0  0  0  0  0  0  0  0  0  0  0  0  0  0
 ITRead=  0  0  0  0  0  0  0  0  0  0  0  0  0  0  0  0  0  0  0  0
 ITRead=  0  0  0  0  0  0  0  0  0  0  0  0  0  0  0  0  0  0  0  0
 ITRead=  0  0  0  0  0  0  0  0
 MicOpt= -1 -1 -1 -1 -1 -1 -1 -1 -1 -1 -1 -1 -1 -1 -1 -1 -1 -1 -1 -1
 MicOpt= -1 -1 -1 -1 -1 -1 -1 -1 -1 -1 -1 -1 -1 -1 -1 -1 -1 -1 -1 -1
 MicOpt= -1 -1 -1 -1 -1 -1 -1 -1 -1 -1 -1 -1 -1 -1 -1 -1 -1 -1 -1 -1
 MicOpt= -1 -1 -1 -1 -1 -1 -1 -1
 NAtoms=     68 NQM=       68 NQMF=       0 NMMI=      0 NMMIF=      0
                NMic=       0 NMicF=      0.
                    Isotopes and Nuclear Properties:
 (Nuclear quadrupole moments (NQMom) in fm**2, nuclear magnetic moments (NMagM)
  in nuclear magnetons)

  Atom         1           2           3           4           5           6           7           8           9          10
 IAtWgt=          12          12          32          12          12          12          12          12           1          12
 AtmWgt=  12.0000000  12.0000000  31.9720718  12.0000000  12.0000000  12.0000000  12.0000000  12.0000000   1.0078250  12.0000000
 NucSpn=           0           0           0           0           0           0           0           0           1           0
 AtZEff=  -0.0000000  -0.0000000  -0.0000000  -0.0000000  -0.0000000  -0.0000000  -0.0000000  -0.0000000  -0.0000000  -0.0000000
 NQMom=    0.0000000   0.0000000   0.0000000   0.0000000   0.0000000   0.0000000   0.0000000   0.0000000   0.0000000   0.0000000
 NMagM=    0.0000000   0.0000000   0.0000000   0.0000000   0.0000000   0.0000000   0.0000000   0.0000000   2.7928460   0.0000000
 AtZNuc=   6.0000000   6.0000000  16.0000000   6.0000000   6.0000000   6.0000000   6.0000000   6.0000000   1.0000000   6.0000000

  Atom        11          12          13          14          15          16          17          18          19          20
 IAtWgt=          12          12          12           1           1           1          12           1           1           1
 AtmWgt=  12.0000000  12.0000000  12.0000000   1.0078250   1.0078250   1.0078250  12.0000000   1.0078250   1.0078250   1.0078250
 NucSpn=           0           0           0           1           1           1           0           1           1           1
 AtZEff=  -0.0000000  -0.0000000  -0.0000000  -0.0000000  -0.0000000  -0.0000000  -0.0000000  -0.0000000  -0.0000000  -0.0000000
 NQMom=    0.0000000   0.0000000   0.0000000   0.0000000   0.0000000   0.0000000   0.0000000   0.0000000   0.0000000   0.0000000
 NMagM=    0.0000000   0.0000000   0.0000000   2.7928460   2.7928460   2.7928460   0.0000000   2.7928460   2.7928460   2.7928460
 AtZNuc=   6.0000000   6.0000000   6.0000000   1.0000000   1.0000000   1.0000000   6.0000000   1.0000000   1.0000000   1.0000000

  Atom        21          22          23          24          25          26          27          28          29          30
 IAtWgt=           1          32          14          12          12          12          12          12          12           1
 AtmWgt=   1.0078250  31.9720718  14.0030740  12.0000000  12.0000000  12.0000000  12.0000000  12.0000000  12.0000000   1.0078250
 NucSpn=           1           0           2           0           0           0           0           0           0           1
 AtZEff=  -0.0000000  -0.0000000  -0.0000000  -0.0000000  -0.0000000  -0.0000000  -0.0000000  -0.0000000  -0.0000000  -0.0000000
 NQMom=    0.0000000   0.0000000   2.0440000   0.0000000   0.0000000   0.0000000   0.0000000   0.0000000   0.0000000   0.0000000
 NMagM=    2.7928460   0.0000000   0.4037610   0.0000000   0.0000000   0.0000000   0.0000000   0.0000000   0.0000000   2.7928460
 AtZNuc=   1.0000000  16.0000000   7.0000000   6.0000000   6.0000000   6.0000000   6.0000000   6.0000000   6.0000000   1.0000000

  Atom        31          32          33          34          35          36          37          38          39          40
 IAtWgt=           1           1           1           1          12          12          12          12          12          12
 AtmWgt=   1.0078250   1.0078250   1.0078250   1.0078250  12.0000000  12.0000000  12.0000000  12.0000000  12.0000000  12.0000000
 NucSpn=           1           1           1           1           0           0           0           0           0           0
 AtZEff=  -0.0000000  -0.0000000  -0.0000000  -0.0000000  -0.0000000  -0.0000000  -0.0000000  -0.0000000  -0.0000000  -0.0000000
 NQMom=    0.0000000   0.0000000   0.0000000   0.0000000   0.0000000   0.0000000   0.0000000   0.0000000   0.0000000   0.0000000
 NMagM=    2.7928460   2.7928460   2.7928460   2.7928460   0.0000000   0.0000000   0.0000000   0.0000000   0.0000000   0.0000000
 AtZNuc=   1.0000000   1.0000000   1.0000000   1.0000000   6.0000000   6.0000000   6.0000000   6.0000000   6.0000000   6.0000000

  Atom        41          42          43          44          45          46          47          48          49          50
 IAtWgt=           1           1           1           1           1          14          12          12          12          12
 AtmWgt=   1.0078250   1.0078250   1.0078250   1.0078250   1.0078250  14.0030740  12.0000000  12.0000000  12.0000000  12.0000000
 NucSpn=           1           1           1           1           1           2           0           0           0           0
 AtZEff=  -0.0000000  -0.0000000  -0.0000000  -0.0000000  -0.0000000  -0.0000000  -0.0000000  -0.0000000  -0.0000000  -0.0000000
 NQMom=    0.0000000   0.0000000   0.0000000   0.0000000   0.0000000   2.0440000   0.0000000   0.0000000   0.0000000   0.0000000
 NMagM=    2.7928460   2.7928460   2.7928460   2.7928460   2.7928460   0.4037610   0.0000000   0.0000000   0.0000000   0.0000000
 AtZNuc=   1.0000000   1.0000000   1.0000000   1.0000000   1.0000000   7.0000000   6.0000000   6.0000000   6.0000000   6.0000000

  Atom        51          52          53          54          55          56          57          58          59          60
 IAtWgt=          12          12           1           1           1           1           1          12          12          12
 AtmWgt=  12.0000000  12.0000000   1.0078250   1.0078250   1.0078250   1.0078250   1.0078250  12.0000000  12.0000000  12.0000000
 NucSpn=           0           0           1           1           1           1           1           0           0           0
 AtZEff=  -0.0000000  -0.0000000  -0.0000000  -0.0000000  -0.0000000  -0.0000000  -0.0000000  -0.0000000  -0.0000000  -0.0000000
 NQMom=    0.0000000   0.0000000   0.0000000   0.0000000   0.0000000   0.0000000   0.0000000   0.0000000   0.0000000   0.0000000
 NMagM=    0.0000000   0.0000000   2.7928460   2.7928460   2.7928460   2.7928460   2.7928460   0.0000000   0.0000000   0.0000000
 AtZNuc=   6.0000000   6.0000000   1.0000000   1.0000000   1.0000000   1.0000000   1.0000000   6.0000000   6.0000000   6.0000000

  Atom        61          62          63          64          65          66          67          68
 IAtWgt=          12          12          12           1           1           1           1           1
 AtmWgt=  12.0000000  12.0000000  12.0000000   1.0078250   1.0078250   1.0078250   1.0078250   1.0078250
 NucSpn=           0           0           0           1           1           1           1           1
 AtZEff=  -0.0000000  -0.0000000  -0.0000000  -0.0000000  -0.0000000  -0.0000000  -0.0000000  -0.0000000
 NQMom=    0.0000000   0.0000000   0.0000000   0.0000000   0.0000000   0.0000000   0.0000000   0.0000000
 NMagM=    0.0000000   0.0000000   0.0000000   2.7928460   2.7928460   2.7928460   2.7928460   2.7928460
 AtZNuc=   6.0000000   6.0000000   6.0000000   1.0000000   1.0000000   1.0000000   1.0000000   1.0000000
 Leave Link  101 at Wed Jan 27 09:11:51 2021, MaxMem=  4026531840 cpu:               0.8 elap:               0.1
 (Enter /opt/ohpc/pub/libs/gaussian/g16-A.03/sandybridge/g16/l202.exe)
 Stoichiometry    C36H28N2S2(1+,2)
 Framework group  C1[X(C36H28N2S2)]
 Deg. of freedom   198
 Full point group                 C1      NOp   1
 Largest Abelian subgroup         C1      NOp   1
 Largest concise Abelian subgroup C1      NOp   1
                         Standard orientation:                         
 ---------------------------------------------------------------------
 Center     Atomic      Atomic             Coordinates (Angstroms)
 Number     Number       Type             X           Y           Z
 ---------------------------------------------------------------------
      1          6           0       -2.604951   -0.985352    0.477595
      2          6           0       -1.595468   -1.227646    1.396897
      3         16           0       -0.459746   -2.557842    1.073663
      4          6           0       -1.509976   -0.467226    2.564163
      5          6           0        1.043777   -0.455726    0.021717
      6          6           0        1.038330   -1.682104    0.668307
      7          6           0       -3.557585    0.001751    0.697168
      8          6           0       -2.447111    0.539154    2.764444
      9          1           0       -0.596318    0.142670    4.605045
     10          6           0        2.238728    0.147647   -0.319798
     11          6           0        2.246539   -2.297832    0.961919
     12          6           0        3.442101   -1.694718    0.621166
     13          6           0        3.453096   -0.462920   -0.023837
     14          1           0        2.234263    1.106243   -0.827797
     15          1           0        2.253931   -3.248348    1.486346
     16          1           0        4.381679   -2.178238    0.866461
     17          6           0       -3.461673    0.764082    1.856276
     18          1           0       -2.646669   -1.585519   -0.424718
     19          1           0        0.106936    0.032641   -0.224382
     20          1           0       -2.404245    1.146243    3.663282
     21          1           0       -4.192893    1.542008    2.047877
     22         16           0       -0.233558   -0.817463    3.737465
     23          7           0        4.673686    0.159547   -0.368747
     24          6           0        5.732508   -0.612661   -0.896564
     25          6           0        7.045695   -0.377960   -0.499452
     26          6           0        5.475865   -1.622329   -1.819567
     27          6           0        8.078745   -1.133154   -1.024558
     28          6           0        6.512871   -2.384632   -2.326214
     29          6           0        7.820306   -2.143178   -1.936900
     30          1           0        7.251646    0.403669    0.224060
     31          1           0        4.454830   -1.807304   -2.136118
     32          1           0        9.097402   -0.936530   -0.704866
     33          1           0        6.295127   -3.169013   -3.044416
     34          1           0        8.632202   -2.738403   -2.341339
     35          6           0        4.837054    1.548147   -0.168533
     36          6           0        5.516065    2.321618   -1.105787
     37          6           0        4.319017    2.163542    0.967486
     38          6           0        5.679987    3.679833   -0.902534
     39          6           0        4.472338    3.525567    1.154010
     40          6           0        5.156657    4.292005    0.224805
     41          1           0        5.917204    1.848815   -1.995947
     42          1           0        3.791670    1.566068    1.703651
     43          1           0        6.213214    4.268058   -1.642948
     44          1           0        4.061647    3.989730    2.045325
     45          1           0        5.281223    5.358830    0.377899
     46          7           0       -4.591369    0.225236   -0.235572
     47          6           0       -4.996809    1.544618   -0.539366
     48          6           0       -6.345932    1.849462   -0.693639
     49          6           0       -4.053605    2.557013   -0.688173
     50          6           0       -6.738551    3.140118   -0.998819
     51          6           0       -4.455920    3.848924   -0.975713
     52          6           0       -5.798707    4.148587   -1.137139
     53          1           0       -7.085839    1.064984   -0.575406
     54          1           0       -2.999778    2.324624   -0.576668
     55          1           0       -7.794748    3.361033   -1.117399
     56          1           0       -3.707423    4.627077   -1.088273
     57          1           0       -6.110711    5.161215   -1.369943
     58          6           0       -5.228462   -0.872905   -0.859345
     59          6           0       -5.548183   -0.824769   -2.212595
     60          6           0       -5.541916   -2.014931   -0.129127
     61          6           0       -6.178047   -1.897088   -2.818017
     62          6           0       -6.155123   -3.090236   -0.746513
     63          6           0       -6.481192   -3.037227   -2.091754
     64          1           0       -5.300925    0.061617   -2.787177
     65          1           0       -5.299559   -2.056134    0.927579
     66          1           0       -6.421719   -1.844307   -3.874525
     67          1           0       -6.390696   -3.975287   -0.163884
     68          1           0       -6.967632   -3.879890   -2.571608
 ---------------------------------------------------------------------
 Rotational constants (GHZ):           0.1314912           0.0372042           0.0344004
 Leave Link  202 at Wed Jan 27 09:11:51 2021, MaxMem=  4026531840 cpu:               0.1 elap:               0.0
 (Enter /opt/ohpc/pub/libs/gaussian/g16-A.03/sandybridge/g16/l301.exe)
 Standard basis: TZVP (5D, 7F)
 Ernie: Thresh=  0.10000D-02 Tol=  0.10000D-05 Strict=F.
 There are   974 symmetry adapted cartesian basis functions of A   symmetry.
 There are   934 symmetry adapted basis functions of A   symmetry.
   934 basis functions,  1648 primitive gaussians,   974 cartesian basis functions
   145 alpha electrons      144 beta electrons
       nuclear repulsion energy      4395.1421619507 Hartrees.
 IExCor=33909 DFT=T Ex+Corr=LC-wHPBE ExCW=0 ScaHFX=  1.000000
 ScaDFX=  1.000000  1.000000  1.000000  1.000000 ScalE2=  1.000000  1.000000
 IRadAn=      5 IRanWt=     -1 IRanGd=            0 ICorTp=0 IEmpDi=  4
 HFx  wShort=  0.000000 wLong=  0.221900 cFull=  0.000000 cShort=  0.000000 cLong=  1.000000
 DFx  wShort=  0.000000 wLong=  0.221900 cFull=  0.000000 cShort=  1.000000 cLong=  0.000000
 NAtoms=   68 NActive=   68 NUniq=   68 SFac= 1.00D+00 NAtFMM=   60 NAOKFM=T Big=T
 Integral buffers will be    131072 words long.
 Raffenetti 2 integral format.
 Two-electron integral symmetry is turned on.
 Leave Link  301 at Wed Jan 27 09:11:51 2021, MaxMem=  4026531840 cpu:               0.4 elap:               0.1
 (Enter /opt/ohpc/pub/libs/gaussian/g16-A.03/sandybridge/g16/l302.exe)
 NPDir=0 NMtPBC=     1 NCelOv=     1 NCel=       1 NClECP=     1 NCelD=      1
         NCelK=      1 NCelE2=     1 NClLst=     1 CellRange=     0.0.
 One-electron integrals computed using PRISM.
 One-electron integral symmetry used in STVInt
 NBasis=   934 RedAO= T EigKep=  5.84D-06  NBF=   934
 NBsUse=   934 1.00D-06 EigRej= -1.00D+00 NBFU=   934
 Precomputing XC quadrature grid using
 IXCGrd= 4 IRadAn=           5 IRanWt=          -1 IRanGd=           0 AccXCQ= 0.00D+00.
 Generated NRdTot=       0 NPtTot=           0 NUsed=           0 NTot=          32
 NSgBfM=   919   919   919   919   919 MxSgAt=    68 MxSgA2=    68.
 Leave Link  302 at Wed Jan 27 09:11:55 2021, MaxMem=  4026531840 cpu:              25.3 elap:               3.2
 (Enter /opt/ohpc/pub/libs/gaussian/g16-A.03/sandybridge/g16/l303.exe)
 DipDrv:  MaxL=1.
 Leave Link  303 at Wed Jan 27 09:11:55 2021, MaxMem=  4026531840 cpu:               1.9 elap:               0.4
 (Enter /opt/ohpc/pub/libs/gaussian/g16-A.03/sandybridge/g16/l401.exe)
 ExpMin= 9.52D-02 ExpMax= 6.07D+04 ExpMxC= 2.07D+03 IAcc=3 IRadAn=         5 AccDes= 0.00D+00
 Harris functional with IExCor=33909 and IRadAn=       5 diagonalized for initial guess.
 HarFok:  IExCor=33909 AccDes= 0.00D+00 IRadAn=         5 IDoV= 1 UseB2=F ITyADJ=14
 ICtDFT=  3500011 ScaDFX=  1.000000  1.000000  1.000000  1.000000
 FoFCou: FMM=F IPFlag=           0 FMFlag=      100000 FMFlg1=        2001
         NFxFlg=           0 DoJE=T BraDBF=F KetDBF=T FulRan=T
         wScrn=  0.000000 ICntrl=       500 IOpCl=  0 I1Cent=   200000004 NGrid=           0
         NMat0=    1 NMatS0=      1 NMatT0=    0 NMatD0=    1 NMtDS0=    0 NMtDT0=    0
 Petite list used in FoFCou.
 Harris En= -2259.17571028490    
 JPrj=0 DoOrth=F DoCkMO=F.
 Initial guess <Sx>= 0.0000 <Sy>= 0.0000 <Sz>= 0.5000 <S**2>= 0.7500 S= 0.5000
 Leave Link  401 at Wed Jan 27 09:12:11 2021, MaxMem=  4026531840 cpu:             123.6 elap:              15.6
 (Enter /opt/ohpc/pub/libs/gaussian/g16-A.03/sandybridge/g16/l502.exe)
 Integral symmetry usage will be decided dynamically.
 UHF open shell SCF:
 Using DIIS extrapolation, IDIIS=    10.
 NGot=  4026531840 LenX=  4024617300 LenY=  4023667650
 Requested convergence on RMS density matrix=1.00D-06 within  32 cycles.
 Requested convergence on MAX density matrix=1.00D-04.
 Requested convergence on             energy=1.00D-04.
 Virtual orbitals will be shifted by   0.500 hartree.
 No special actions if energy rises.
 Dynamic level shift is on during FON iterations.

 Cycle   1  Pass 1  IDiag  1:
 FoFJK:  IHMeth= 1 ICntrl=       0 DoSepK=T KAlg= 0 I1Cent=           0 FoldK=F
 IRaf=         1 NMat=       1 IRICut=       1 DoRegI=T DoRafI=F ISym2E= 0 IDoP0=0 IntGTp=1.
 FoFCou: FMM=T IPFlag=           0 FMFlag=      100000 FMFlg1=        2001
         NFxFlg=           0 DoJE=T BraDBF=F KetDBF=F FulRan=T
         wScrn=  0.000000 ICntrl=       500 IOpCl=  0 I1Cent=           0 NGrid=           0
         NMat0=    1 NMatS0=      1 NMatT0=    0 NMatD0=    1 NMtDS0=    0 NMtDT0=    0
 Symmetry not used in FoFCou.
 FMM levels:  10  Number of levels for PrismC:   9
 E= -2292.39864319206    
 DIIS: error= 3.00D-02 at cycle   1 NSaved=   1.
 NSaved= 1 IEnMin= 1 EnMin= -2292.39864319206     IErMin= 1 ErrMin= 3.00D-02
 ErrMax= 3.00D-02  0.00D+00 EMaxC= 1.00D+00 BMatC= 2.94D+00 BMatP= 2.94D+00
 IDIUse=1 WtCom= 1.00D+00 WtEn= 0.00D+00
 Coeff-Com:  0.100D+01
 Coeff:      0.100D+01
 Gap=     0.498 Goal=   None    Shift=    0.500
 T= 1496. Gap= 0.599 NK=0 IS=  146 IE=  934 IFin=  145
          NO(<0.9)=   0  NV(>0.1)=   0    145.00e < EF      0.00e >EF  Err=0.0D+00
 Gap=     0.120 Goal=   None    Shift=    0.500
 T= 1496. Gap= 0.432 NK=0 IS=  145 IE=  934 IFin=  144
          NO(<0.9)=   0  NV(>0.1)=   0    144.00e < EF      0.00e >EF  Err=0.0D+00
 GapD=    0.120 DampG=1.000 DampE=0.500 DampFc=0.5000 IDamp=-1.
 Damping current iteration by 5.00D-01
 RMSDP=2.58D-03 MaxDP=2.10D-01              OVMax= 9.26D-02

 Cycle   2  Pass 1  IDiag  1:
 E= -2292.86039791363     Delta-E=       -0.461754721575 Rises=F Damp=T
 DIIS: error= 1.34D-02 at cycle   2 NSaved=   2.
 NSaved= 2 IEnMin= 2 EnMin= -2292.86039791363     IErMin= 2 ErrMin= 1.34D-02
 ErrMax= 1.34D-02  0.00D+00 EMaxC= 1.00D+00 BMatC= 4.67D-01 BMatP= 2.94D+00
 IDIUse=1 WtCom= 1.00D+00 WtEn= 0.00D+00
 Coeff-Com: -0.535D+00 0.153D+01
 Coeff:     -0.535D+00 0.153D+01
 Gap=     0.248 Goal=   None    Shift=    0.500
 T= 1373. Gap= 0.699 NK=0 IS=  146 IE=  934 IFin=  145
          NO(<0.9)=   0  NV(>0.1)=   0    145.00e < EF      0.00e >EF  Err=0.0D+00
 Gap=     0.068 Goal=   None    Shift=    0.500
 T= 1373. Gap= 0.548 NK=0 IS=  145 IE=  934 IFin=  144
          NO(<0.9)=   0  NV(>0.1)=   0    144.00e < EF      0.00e >EF  Err=0.0D+00
 GapD=    0.068 DampG=0.500 DampE=0.500 DampFc=0.2500 IDamp=-1.
 Damping current iteration by 2.50D-01
 RMSDP=1.61D-03 MaxDP=1.55D-01 DE=-4.62D-01 OVMax= 4.61D-02

 Cycle   3  Pass 1  IDiag  1:
 E= -2292.94276155716     Delta-E=       -0.082363643525 Rises=F Damp=T
 DIIS: error= 9.59D-03 at cycle   3 NSaved=   3.
 NSaved= 3 IEnMin= 3 EnMin= -2292.94276155716     IErMin= 3 ErrMin= 9.59D-03
 ErrMax= 9.59D-03  0.00D+00 EMaxC= 1.00D+00 BMatC= 2.36D-01 BMatP= 4.67D-01
 IDIUse=1 WtCom= 1.00D+00 WtEn= 0.00D+00
 Coeff-Com:  0.768D-01-0.278D+01 0.370D+01
 Coeff:      0.768D-01-0.278D+01 0.370D+01
 Gap=     0.235 Goal=   None    Shift=    0.500
 T= 1178. Gap= 0.733 NK=0 IS=  146 IE=  934 IFin=  145
          NO(<0.9)=   0  NV(>0.1)=   0    145.00e < EF      0.00e >EF  Err=0.0D+00
 Gap=     0.077 Goal=   None    Shift=    0.500
 T= 1178. Gap= 0.576 NK=0 IS=  145 IE=  934 IFin=  144
          NO(<0.9)=   0  NV(>0.1)=   0    144.00e < EF      0.00e >EF  Err=0.0D+00
 GapD=    0.077 DampG=0.500 DampE=1.000 DampFc=0.5000 IDamp=-1.
 Damping current iteration by 5.00D-01
 RMSDP=1.42D-03 MaxDP=1.39D-01 DE=-8.24D-02 OVMax= 2.29D-02

 Cycle   4  Pass 1  IDiag  1:
 E= -2293.05166201634     Delta-E=       -0.108900459178 Rises=F Damp=T
 DIIS: error= 6.71D-03 at cycle   4 NSaved=   4.
 NSaved= 4 IEnMin= 4 EnMin= -2293.05166201634     IErMin= 4 ErrMin= 6.71D-03
 ErrMax= 6.71D-03  0.00D+00 EMaxC= 1.00D+00 BMatC= 5.39D-02 BMatP= 2.36D-01
 IDIUse=1 WtCom= 1.00D+00 WtEn= 0.00D+00
 Coeff-Com:  0.798D-01-0.250D+00-0.848D+00 0.202D+01
 Coeff:      0.798D-01-0.250D+00-0.848D+00 0.202D+01
 Gap=     0.236 Goal=   None    Shift=    0.500
 T=  831. Gap= 0.735 NK=0 IS=  146 IE=  934 IFin=  145
          NO(<0.9)=   0  NV(>0.1)=   0    145.00e < EF      0.00e >EF  Err=0.0D+00
 Gap=     0.076 Goal=   None    Shift=    0.500
 T=  831. Gap= 0.577 NK=0 IS=  145 IE=  934 IFin=  144
          NO(<0.9)=   0  NV(>0.1)=   0    144.00e < EF      0.00e >EF  Err=0.0D+00
 GapD=    0.076 DampG=0.500 DampE=1.000 DampFc=0.5000 IDamp=-1.
 Damping current iteration by 5.00D-01
 RMSDP=8.03D-04 MaxDP=8.35D-02 DE=-1.09D-01 OVMax= 2.42D-02

 Cycle   5  Pass 1  IDiag  1:
 E= -2293.10216443288     Delta-E=       -0.050502416540 Rises=F Damp=T
 DIIS: error= 5.12D-03 at cycle   5 NSaved=   5.
 NSaved= 5 IEnMin= 5 EnMin= -2293.10216443288     IErMin= 5 ErrMin= 5.12D-03
 ErrMax= 5.12D-03  0.00D+00 EMaxC= 1.00D+00 BMatC= 1.39D-02 BMatP= 5.39D-02
 IDIUse=1 WtCom= 1.00D+00 WtEn= 0.00D+00
 Coeff-Com: -0.698D-02 0.478D+00-0.443D+00-0.175D+01 0.272D+01
 Coeff:     -0.698D-02 0.478D+00-0.443D+00-0.175D+01 0.272D+01
 Gap=     0.240 Goal=   None    Shift=    0.500
 T=  635. Gap= 0.740 NK=0 IS=  146 IE=  934 IFin=  145
          NO(<0.9)=   0  NV(>0.1)=   0    145.00e < EF      0.00e >EF  Err=0.0D+00
 Gap=     0.078 Goal=   None    Shift=    0.500
 T=  635. Gap= 0.579 NK=0 IS=  145 IE=  934 IFin=  144
          NO(<0.9)=   0  NV(>0.1)=   0    144.00e < EF      0.00e >EF  Err=0.0D+00
 GapD=    0.078 DampG=0.500 DampE=1.000 DampFc=0.5000 IDamp=-1.
 Damping current iteration by 5.00D-01
 RMSDP=4.61D-04 MaxDP=5.33D-02 DE=-5.05D-02 OVMax= 2.27D-02

 Cycle   6  Pass 1  IDiag  1:
 E= -2293.12736627278     Delta-E=       -0.025201839902 Rises=F Damp=T
 DIIS: error= 4.21D-03 at cycle   6 NSaved=   6.
 NSaved= 6 IEnMin= 6 EnMin= -2293.12736627278     IErMin= 6 ErrMin= 4.21D-03
 ErrMax= 4.21D-03  0.00D+00 EMaxC= 1.00D+00 BMatC= 4.33D-03 BMatP= 1.39D-02
 IDIUse=1 WtCom= 1.00D+00 WtEn= 0.00D+00
 Coeff-Com: -0.267D-01 0.168D+00 0.115D+00-0.783D-01-0.281D+01 0.363D+01
 Coeff:     -0.267D-01 0.168D+00 0.115D+00-0.783D-01-0.281D+01 0.363D+01
 Gap=     0.243 Goal=   None    Shift=    0.500
 T=  461. Gap= 0.743 NK=0 IS=  146 IE=  934 IFin=  145
          NO(<0.9)=   0  NV(>0.1)=   0    145.00e < EF      0.00e >EF  Err=0.0D+00
 Gap=     0.079 Goal=   None    Shift=    0.500
 T=  461. Gap= 0.580 NK=0 IS=  145 IE=  934 IFin=  144
          NO(<0.9)=   0  NV(>0.1)=   0    144.00e < EF      0.00e >EF  Err=0.0D+00
 GapD=    0.079 DampG=0.500 DampE=1.000 DampFc=0.5000 IDamp=-1.
 Damping current iteration by 5.00D-01
 RMSDP=2.91D-04 MaxDP=3.76D-02 DE=-2.52D-02 OVMax= 2.31D-02

 Cycle   7  Pass 1  IDiag  1:
 E= -2293.14050976848     Delta-E=       -0.013143495703 Rises=F Damp=T
 DIIS: error= 3.67D-03 at cycle   7 NSaved=   7.
 NSaved= 7 IEnMin= 7 EnMin= -2293.14050976848     IErMin= 7 ErrMin= 3.67D-03
 ErrMax= 3.67D-03  0.00D+00 EMaxC= 1.00D+00 BMatC= 1.71D-03 BMatP= 4.33D-03
 IDIUse=1 WtCom= 1.00D+00 WtEn= 0.00D+00
 Coeff-Com: -0.587D-02-0.145D+00 0.236D+00 0.732D+00-0.163D+01-0.170D+01
 Coeff-Com:  0.352D+01
 Coeff:     -0.587D-02-0.145D+00 0.236D+00 0.732D+00-0.163D+01-0.170D+01
 Coeff:      0.352D+01
 Gap=     0.244 Goal=   None    Shift=    0.500
 T=  335. Gap= 0.744 NK=0 IS=  146 IE=  934 IFin=  145
          NO(<0.9)=   0  NV(>0.1)=   0    145.00e < EF      0.00e >EF  Err=0.0D+00
 Gap=     0.079 Goal=   None    Shift=    0.500
 T=  335. Gap= 0.579 NK=0 IS=  145 IE=  934 IFin=  144
          NO(<0.9)=   0  NV(>0.1)=   0    144.00e < EF      0.00e >EF  Err=0.0D+00
 GapD=    0.079 DampG=0.500 DampE=1.000 DampFc=0.5000 IDamp=-1.
 Damping current iteration by 5.00D-01
 RMSDP=2.16D-04 MaxDP=2.60D-02 DE=-1.31D-02 OVMax= 2.30D-02

 Cycle   8  Pass 1  IDiag  1:
 E= -2293.14762610480     Delta-E=       -0.007116336323 Rises=F Damp=T
 DIIS: error= 3.28D-03 at cycle   8 NSaved=   8.
 NSaved= 8 IEnMin= 8 EnMin= -2293.14762610480     IErMin= 8 ErrMin= 3.28D-03
 ErrMax= 3.28D-03  0.00D+00 EMaxC= 1.00D+00 BMatC= 8.62D-04 BMatP= 1.71D-03
 IDIUse=1 WtCom= 1.00D+00 WtEn= 0.00D+00
 Coeff-Com:  0.857D-02-0.856D-01-0.160D-01-0.376D-01 0.170D+01-0.171D+01
 Coeff-Com: -0.392D+01 0.505D+01
 Coeff:      0.857D-02-0.856D-01-0.160D-01-0.376D-01 0.170D+01-0.171D+01
 Coeff:     -0.392D+01 0.505D+01
 Gap=     0.246 Goal=   None    Shift=    0.500
 T=  244. Gap= 0.746 NK=0 IS=  146 IE=  934 IFin=  145
          NO(<0.9)=   0  NV(>0.1)=   0    145.00e < EF      0.00e >EF  Err=0.0D+00
 Gap=     0.078 Goal=   None    Shift=    0.500
 T=  244. Gap= 0.579 NK=0 IS=  145 IE=  934 IFin=  144
          NO(<0.9)=   0  NV(>0.1)=   0    144.00e < EF      0.00e >EF  Err=0.0D+00
 GapD=    0.078 DampG=0.500 DampE=1.000 DampFc=0.5000 IDamp=-1.
 Damping current iteration by 5.00D-01
 RMSDP=1.83D-04 MaxDP=1.87D-02 DE=-7.12D-03 OVMax= 2.33D-02

 Cycle   9  Pass 1  IDiag  1:
 E= -2293.15164488851     Delta-E=       -0.004018783708 Rises=F Damp=T
 DIIS: error= 2.97D-03 at cycle   9 NSaved=   9.
 NSaved= 9 IEnMin= 9 EnMin= -2293.15164488851     IErMin= 9 ErrMin= 2.97D-03
 ErrMax= 2.97D-03  0.00D+00 EMaxC= 1.00D+00 BMatC= 5.31D-04 BMatP= 8.62D-04
 IDIUse=1 WtCom= 1.00D+00 WtEn= 0.00D+00
 Coeff-Com:  0.431D-02 0.253D-01-0.452D-01-0.732D+00 0.223D+01-0.174D-01
 Coeff-Com: -0.385D+01-0.225D+00 0.362D+01
 Coeff:      0.431D-02 0.253D-01-0.452D-01-0.732D+00 0.223D+01-0.174D-01
 Coeff:     -0.385D+01-0.225D+00 0.362D+01
 Gap=     0.247 Goal=   None    Shift=    0.500
 T=  173. Gap= 0.747 NK=0 IS=  146 IE=  934 IFin=  145
          NO(<0.9)=   0  NV(>0.1)=   0    145.00e < EF      0.00e >EF  Err=0.0D+00
 Gap=     0.078 Goal=   None    Shift=    0.500
 T=  173. Gap= 0.578 NK=0 IS=  145 IE=  934 IFin=  144
          NO(<0.9)=   0  NV(>0.1)=   0    144.00e < EF      0.00e >EF  Err=0.0D+00
 GapD=    0.078 DampG=0.500 DampE=1.000 DampFc=0.5000 IDamp=-1.
 Damping current iteration by 5.00D-01
 RMSDP=1.54D-04 MaxDP=1.70D-02 DE=-4.02D-03 OVMax= 2.21D-02

 Cycle  10  Pass 1  IDiag  1:
 E= -2293.15403025997     Delta-E=       -0.002385371462 Rises=F Damp=T
 DIIS: error= 2.70D-03 at cycle  10 NSaved=  10.
 NSaved=10 IEnMin=10 EnMin= -2293.15403025997     IErMin=10 ErrMin= 2.70D-03
 ErrMax= 2.70D-03  0.00D+00 EMaxC= 1.00D+00 BMatC= 3.71D-04 BMatP= 5.31D-04
 IDIUse=1 WtCom= 1.00D+00 WtEn= 0.00D+00
 Coeff-Com: -0.761D-02 0.115D-01 0.224D+00-0.609D+00-0.625D+00 0.207D+01
 Coeff-Com:  0.189D+01-0.405D+01-0.420D+01 0.630D+01
 Coeff:     -0.761D-02 0.115D-01 0.224D+00-0.609D+00-0.625D+00 0.207D+01
 Coeff:      0.189D+01-0.405D+01-0.420D+01 0.630D+01
 Gap=     0.249 Goal=   None    Shift=    0.500
 T=  111. Gap= 0.749 NK=0 IS=  146 IE=  934 IFin=  145
          NO(<0.9)=   0  NV(>0.1)=   0    145.00e < EF      0.00e >EF  Err=0.0D+00
 Gap=     0.077 Goal=   None    Shift=    0.500
 T=  111. Gap= 0.578 NK=0 IS=  145 IE=  934 IFin=  144
          NO(<0.9)=   0  NV(>0.1)=   0    144.00e < EF      0.00e >EF  Err=0.0D+00
 GapD=    0.077 DampG=0.500 DampE=1.000 DampFc=0.5000 IDamp=-1.
 Damping current iteration by 5.00D-01
 RMSDP=1.44D-04 MaxDP=1.55D-02 DE=-2.39D-03 OVMax= 2.33D-02

 Cycle  11  Pass 1  IDiag  1:
 E= -2293.15552965603     Delta-E=       -0.001499396059 Rises=F Damp=T
 DIIS: error= 2.47D-03 at cycle  11 NSaved=  11.
 NSaved=11 IEnMin=11 EnMin= -2293.15552965603     IErMin=11 ErrMin= 2.47D-03
 ErrMax= 2.47D-03  0.00D+00 EMaxC= 1.00D+00 BMatC= 2.94D-04 BMatP= 3.71D-04
 IDIUse=1 WtCom= 1.00D+00 WtEn= 0.00D+00
 Coeff-Com: -0.720D-02-0.777D-01 0.387D+00-0.490D+00-0.125D+01 0.197D+01
 Coeff-Com:  0.260D+01-0.256D+01-0.507D+01 0.295D+01 0.254D+01
 Coeff:     -0.720D-02-0.777D-01 0.387D+00-0.490D+00-0.125D+01 0.197D+01
 Coeff:      0.260D+01-0.256D+01-0.507D+01 0.295D+01 0.254D+01
 Gap=     0.250 Goal=   None    Shift=    0.500
 Gap=     0.077 Goal=   None    Shift=    0.500
 GapD=    0.077 DampG=0.500 DampE=1.000 DampFc=0.5000 IDamp=-1.
 Damping current iteration by 5.00D-01
 RMSDP=1.20D-04 MaxDP=1.25D-02 DE=-1.50D-03 OVMax= 2.04D-02

 Cycle  12  Pass 1  IDiag  1:
 E= -2293.15653724186     Delta-E=       -0.001007585831 Rises=F Damp=T
 DIIS: error= 2.23D-03 at cycle  12 NSaved=  12.
 NSaved=12 IEnMin=12 EnMin= -2293.15653724186     IErMin=12 ErrMin= 2.23D-03
 ErrMax= 2.23D-03  0.00D+00 EMaxC= 1.00D+00 BMatC= 2.40D-04 BMatP= 2.94D-04
 IDIUse=1 WtCom= 1.00D+00 WtEn= 0.00D+00
 Large coefficients: NSaved= 12 BigCof=   10.13 CofMax=   10.00 Det=-3.30D-07
 Inversion failed.  Reducing to 11 matrices.
 Coeff-Com: -0.108D+00 0.224D+00-0.297D-01-0.399D+00-0.100D-01-0.498D+00
 Coeff-Com:  0.319D+01-0.153D+01 0.981D+00-0.993D+01 0.911D+01
 Coeff:     -0.108D+00 0.224D+00-0.297D-01-0.399D+00-0.100D-01-0.498D+00
 Coeff:      0.319D+01-0.153D+01 0.981D+00-0.993D+01 0.911D+01
 Gap=     0.252 Goal=   None    Shift=    0.500
 Gap=     0.075 Goal=   None    Shift=    0.500
 GapD=    0.075 DampG=0.500 DampE=1.000 DampFc=0.5000 IDamp=-1.
 Damping current iteration by 5.00D-01
 RMSDP=1.19D-04 MaxDP=1.34D-02 DE=-1.01D-03 OVMax= 2.26D-02

 Cycle  13  Pass 1  IDiag  1:
 E= -2293.15724044985     Delta-E=       -0.000703207984 Rises=F Damp=T
 DIIS: error= 2.03D-03 at cycle  13 NSaved=  12.
 NSaved=12 IEnMin=12 EnMin= -2293.15724044985     IErMin=12 ErrMin= 2.03D-03
 ErrMax= 2.03D-03  0.00D+00 EMaxC= 1.00D+00 BMatC= 2.25D-04 BMatP= 2.40D-04
 IDIUse=1 WtCom= 1.00D+00 WtEn= 0.00D+00
 Large coefficients: NSaved= 12 BigCof=   11.02 CofMax=   10.00 Det=-3.00D-07
 Inversion failed.  Reducing to 11 matrices.
 Large coefficients: NSaved= 11 BigCof=   12.04 CofMax=   10.00 Det=-3.29D-07
 Inversion failed.  Reducing to 10 matrices.
 Large coefficients: NSaved= 10 BigCof=   13.29 CofMax=   10.00 Det=-4.55D-07
 Inversion failed.  Reducing to  9 matrices.
 Large coefficients: NSaved=  9 BigCof=   13.14 CofMax=   10.00 Det=-4.56D-07
 Inversion failed.  Reducing to  8 matrices.
 Large coefficients: NSaved=  8 BigCof=   12.50 CofMax=   10.00 Det=-5.06D-07
 Inversion failed.  Reducing to  7 matrices.
 Large coefficients: NSaved=  7 BigCof=   12.21 CofMax=   10.00 Det=-5.31D-07
 Inversion failed.  Reducing to  6 matrices.
 Large coefficients: NSaved=  6 BigCof=   11.13 CofMax=   10.00 Det=-5.49D-07
 Inversion failed.  Reducing to  5 matrices.
 Large coefficients: NSaved=  5 BigCof=   10.87 CofMax=   10.00 Det=-5.98D-07
 Inversion failed.  Reducing to  4 matrices.
 Large coefficients: NSaved=  4 BigCof=   10.97 CofMax=   10.00 Det=-5.99D-07
 Inversion failed.  Reducing to  3 matrices.
 Coeff-Com: -0.348D+01 0.548D+01-0.101D+01
 Coeff:     -0.348D+01 0.548D+01-0.101D+01
 Gap=     0.250 Goal=   None    Shift=    0.500
 Gap=     0.078 Goal=   None    Shift=    0.500
 GapD=    0.078 DampG=0.500 DampE=1.000 DampFc=0.5000 IDamp=-1.
 Damping current iteration by 5.00D-01
 RMSDP=6.67D-05 MaxDP=6.09D-03 DE=-7.03D-04 OVMax= 1.13D-02

 Cycle  14  Pass 1  IDiag  1:
 E= -2293.15777691231     Delta-E=       -0.000536462458 Rises=F Damp=T
 DIIS: error= 1.75D-03 at cycle  14 NSaved=   4.
 NSaved= 4 IEnMin= 4 EnMin= -2293.15777691231     IErMin= 4 ErrMin= 1.75D-03
 ErrMax= 1.75D-03  0.00D+00 EMaxC= 1.00D+00 BMatC= 1.43D-04 BMatP= 2.25D-04
 IDIUse=1 WtCom= 1.00D+00 WtEn= 0.00D+00
 Coeff-Com: -0.174D+01 0.187D+01-0.112D+01 0.199D+01
 Coeff:     -0.174D+01 0.187D+01-0.112D+01 0.199D+01
 Gap=     0.252 Goal=   None    Shift=    0.500
 Gap=     0.077 Goal=   None    Shift=    0.500
 GapD=    0.077 DampG=0.500 DampE=1.000 DampFc=0.5000 IDamp=-1.
 Damping current iteration by 5.00D-01
 RMSDP=6.94D-05 MaxDP=6.50D-03 DE=-5.36D-04 OVMax= 1.42D-02

 Cycle  15  Pass 1  IDiag  1:
 E= -2293.15814790715     Delta-E=       -0.000370994843 Rises=F Damp=T
 DIIS: error= 1.56D-03 at cycle  15 NSaved=   5.
 NSaved= 5 IEnMin= 5 EnMin= -2293.15814790715     IErMin= 5 ErrMin= 1.56D-03
 ErrMax= 1.56D-03  0.00D+00 EMaxC= 1.00D+00 BMatC= 1.19D-04 BMatP= 1.43D-04
 IDIUse=1 WtCom= 1.00D+00 WtEn= 0.00D+00
 Coeff-Com:  0.329D+01-0.453D+01-0.526D+00-0.435D+01 0.711D+01
 Coeff:      0.329D+01-0.453D+01-0.526D+00-0.435D+01 0.711D+01
 Gap=     0.254 Goal=   None    Shift=    0.500
 Gap=     0.074 Goal=   None    Shift=    0.500
 GapD=    0.074 DampG=0.500 DampE=1.000 DampFc=0.5000 IDamp=-1.
 Damping current iteration by 5.00D-01
 RMSDP=8.73D-05 MaxDP=7.66D-03 DE=-3.71D-04 OVMax= 1.87D-02

 Cycle  16  Pass 1  IDiag  1:
 E= -2293.15842780256     Delta-E=       -0.000279895407 Rises=F Damp=T
 DIIS: error= 1.44D-03 at cycle  16 NSaved=   6.
 NSaved= 6 IEnMin= 6 EnMin= -2293.15842780256     IErMin= 6 ErrMin= 1.44D-03
 ErrMax= 1.44D-03  0.00D+00 EMaxC= 1.00D+00 BMatC= 1.30D-04 BMatP= 1.19D-04
 IDIUse=1 WtCom= 1.00D+00 WtEn= 0.00D+00
 Coeff-Com:  0.274D+01-0.252D+01-0.268D+01-0.233D+01 0.355D+01 0.224D+01
 Coeff:      0.274D+01-0.252D+01-0.268D+01-0.233D+01 0.355D+01 0.224D+01
 Gap=     0.254 Goal=   None    Shift=    0.500
 Gap=     0.074 Goal=   None    Shift=    0.500
 GapD=    0.074 DampG=0.500 DampE=1.000 DampFc=0.5000 IDamp=-1.
 Damping current iteration by 5.00D-01
 RMSDP=7.88D-05 MaxDP=6.69D-03 DE=-2.80D-04 OVMax= 1.60D-02

 Cycle  17  Pass 1  IDiag  1:
 E= -2293.15866071940     Delta-E=       -0.000232916842 Rises=F Damp=T
 DIIS: error= 1.32D-03 at cycle  17 NSaved=   7.
 NSaved= 7 IEnMin= 7 EnMin= -2293.15866071940     IErMin= 7 ErrMin= 1.32D-03
 ErrMax= 1.32D-03  0.00D+00 EMaxC= 1.00D+00 BMatC= 1.39D-04 BMatP= 1.19D-04
 IDIUse=1 WtCom= 1.00D+00 WtEn= 0.00D+00
 Coeff-Com:  0.146D+01-0.416D+00-0.328D+01-0.753D+00 0.342D+01-0.292D+01
 Coeff-Com:  0.349D+01
 Coeff:      0.146D+01-0.416D+00-0.328D+01-0.753D+00 0.342D+01-0.292D+01
 Coeff:      0.349D+01
 Gap=     0.254 Goal=   None    Shift=    0.500
 Gap=     0.073 Goal=   None    Shift=    0.500
 GapD=    0.073 DampG=0.500 DampE=1.000 DampFc=0.5000 IDamp=-1.
 Damping current iteration by 5.00D-01
 RMSDP=6.57D-05 MaxDP=5.33D-03 DE=-2.33D-04 OVMax= 1.37D-02

 Cycle  18  Pass 1  IDiag  1:
 E= -2293.15885526017     Delta-E=       -0.000194540772 Rises=F Damp=T
 DIIS: error= 1.18D-03 at cycle  18 NSaved=   8.
 NSaved= 8 IEnMin= 8 EnMin= -2293.15885526017     IErMin= 8 ErrMin= 1.18D-03
 ErrMax= 1.18D-03  0.00D+00 EMaxC= 1.00D+00 BMatC= 1.28D-04 BMatP= 1.19D-04
 IDIUse=1 WtCom= 1.00D+00 WtEn= 0.00D+00
 Coeff-Com:  0.398D+00-0.202D+00-0.750D+00-0.114D+01 0.384D+01-0.135D+01
 Coeff-Com: -0.651D+01 0.672D+01
 Coeff:      0.398D+00-0.202D+00-0.750D+00-0.114D+01 0.384D+01-0.135D+01
 Coeff:     -0.651D+01 0.672D+01
 Gap=     0.254 Goal=   None    Shift=    0.500
 Gap=     0.073 Goal=   None    Shift=    0.500
 GapD=    0.073 DampG=0.500 DampE=1.000 DampFc=0.5000 IDamp=-1.
 Damping current iteration by 5.00D-01
 RMSDP=5.70D-05 MaxDP=4.83D-03 DE=-1.95D-04 OVMax= 1.24D-02

 Cycle  19  Pass 1  IDiag  1:
 E= -2293.15901076724     Delta-E=       -0.000155507071 Rises=F Damp=T
 DIIS: error= 1.04D-03 at cycle  19 NSaved=   9.
 NSaved= 9 IEnMin= 9 EnMin= -2293.15901076724     IErMin= 9 ErrMin= 1.04D-03
 ErrMax= 1.04D-03  0.00D+00 EMaxC= 1.00D+00 BMatC= 1.10D-04 BMatP= 1.19D-04
 IDIUse=1 WtCom= 1.00D+00 WtEn= 0.00D+00
 Coeff-Com:  0.476D+00-0.723D+00 0.346D+00-0.233D+01 0.353D+01 0.151D+01
 Coeff-Com: -0.455D+01-0.332D+01 0.607D+01
 Coeff:      0.476D+00-0.723D+00 0.346D+00-0.233D+01 0.353D+01 0.151D+01
 Coeff:     -0.455D+01-0.332D+01 0.607D+01
 Gap=     0.255 Goal=   None    Shift=    0.500
 Gap=     0.073 Goal=   None    Shift=    0.500
 GapD=    0.073 DampG=0.500 DampE=1.000 DampFc=0.5000 IDamp=-1.
 Damping current iteration by 5.00D-01
 RMSDP=5.13D-05 MaxDP=4.56D-03 DE=-1.56D-04 OVMax= 1.13D-02

 Cycle  20  Pass 1  IDiag  1:
 E= -2293.15913072551     Delta-E=       -0.000119958270 Rises=F Damp=T
 DIIS: error= 9.10D-04 at cycle  20 NSaved=  10.
 NSaved=10 IEnMin=10 EnMin= -2293.15913072551     IErMin=10 ErrMin= 9.10D-04
 ErrMax= 9.10D-04  0.00D+00 EMaxC= 1.00D+00 BMatC= 9.45D-05 BMatP= 1.10D-04
 IDIUse=1 WtCom= 1.00D+00 WtEn= 0.00D+00
 Coeff-Com:  0.520D+00-0.122D+00-0.799D+00-0.204D+01 0.279D+01 0.829D+00
 Coeff-Com:  0.150D+01-0.703D+01 0.203D+01 0.331D+01
 Coeff:      0.520D+00-0.122D+00-0.799D+00-0.204D+01 0.279D+01 0.829D+00
 Coeff:      0.150D+01-0.703D+01 0.203D+01 0.331D+01
 Gap=     0.255 Goal=   None    Shift=    0.500
 Gap=     0.072 Goal=   None    Shift=    0.500
 RMSDP=4.21D-05 MaxDP=3.67D-03 DE=-1.20D-04 OVMax= 9.38D-03

 Cycle  21  Pass 1  IDiag  1:
 E= -2293.15936001512     Delta-E=       -0.000229289610 Rises=F Damp=F
 DIIS: error= 6.66D-04 at cycle  21 NSaved=  11.
 NSaved=11 IEnMin=11 EnMin= -2293.15936001512     IErMin=11 ErrMin= 6.66D-04
 ErrMax= 6.66D-04  0.00D+00 EMaxC= 1.00D+00 BMatC= 6.15D-05 BMatP= 9.45D-05
 IDIUse=1 WtCom= 1.00D+00 WtEn= 0.00D+00
 Coeff-Com:  0.695D+00-0.361D+00-0.111D+01-0.122D+01 0.216D+01-0.593D+00
 Coeff-Com:  0.338D+01-0.381D+01 0.103D+01-0.192D+01 0.274D+01
 Coeff:      0.695D+00-0.361D+00-0.111D+01-0.122D+01 0.216D+01-0.593D+00
 Coeff:      0.338D+01-0.381D+01 0.103D+01-0.192D+01 0.274D+01
 Gap=     0.255 Goal=   None    Shift=    0.500
 Gap=     0.072 Goal=   None    Shift=    0.500
 RMSDP=1.31D-05 MaxDP=1.10D-03 DE=-2.29D-04 OVMax= 7.82D-03

 Cycle  22  Pass 1  IDiag  1:
 E= -2293.15939618962     Delta-E=       -0.000036174498 Rises=F Damp=F
 DIIS: error= 5.67D-04 at cycle  22 NSaved=  12.
 NSaved=12 IEnMin=12 EnMin= -2293.15939618962     IErMin=12 ErrMin= 5.67D-04
 ErrMax= 5.67D-04  0.00D+00 EMaxC= 1.00D+00 BMatC= 4.60D-05 BMatP= 6.15D-05
 IDIUse=1 WtCom= 1.00D+00 WtEn= 0.00D+00
 Coeff-Com:  0.538D+00-0.588D+00-0.526D+00-0.481D+00 0.155D+01-0.105D+01
 Coeff-Com:  0.690D+00 0.131D+01 0.158D+01-0.587D+01 0.194D+01 0.189D+01
 Coeff:      0.538D+00-0.588D+00-0.526D+00-0.481D+00 0.155D+01-0.105D+01
 Coeff:      0.690D+00 0.131D+01 0.158D+01-0.587D+01 0.194D+01 0.189D+01
 Gap=     0.255 Goal=   None    Shift=    0.500
 Gap=     0.072 Goal=   None    Shift=    0.500
 RMSDP=1.10D-05 MaxDP=8.89D-04 DE=-3.62D-05 OVMax= 6.67D-03

 Cycle  23  Pass 1  IDiag  1:
 E= -2293.15942164898     Delta-E=       -0.000025459359 Rises=F Damp=F
 DIIS: error= 4.77D-04 at cycle  23 NSaved=  13.
 NSaved=13 IEnMin=13 EnMin= -2293.15942164898     IErMin=13 ErrMin= 4.77D-04
 ErrMax= 4.77D-04  0.00D+00 EMaxC= 1.00D+00 BMatC= 3.33D-05 BMatP= 4.60D-05
 IDIUse=1 WtCom= 1.00D+00 WtEn= 0.00D+00
 Coeff-Com:  0.428D+00-0.751D+00 0.153D+00-0.706D+00 0.151D+01-0.101D+00
 Coeff-Com: -0.199D+01 0.173D+01 0.171D+01-0.259D+01-0.415D+00-0.871D+00
 Coeff-Com:  0.289D+01
 Coeff:      0.428D+00-0.751D+00 0.153D+00-0.706D+00 0.151D+01-0.101D+00
 Coeff:     -0.199D+01 0.173D+01 0.171D+01-0.259D+01-0.415D+00-0.871D+00
 Coeff:      0.289D+01
 Gap=     0.255 Goal=   None    Shift=    0.500
 Gap=     0.072 Goal=   None    Shift=    0.500
 RMSDP=9.21D-06 MaxDP=7.15D-04 DE=-2.55D-05 OVMax= 5.67D-03

 Cycle  24  Pass 1  IDiag  1:
 E= -2293.15943896961     Delta-E=       -0.000017320634 Rises=F Damp=F
 DIIS: error= 4.02D-04 at cycle  24 NSaved=  14.
 NSaved=14 IEnMin=14 EnMin= -2293.15943896961     IErMin=14 ErrMin= 4.02D-04
 ErrMax= 4.02D-04  0.00D+00 EMaxC= 1.00D+00 BMatC= 2.52D-05 BMatP= 3.33D-05
 IDIUse=1 WtCom= 1.00D+00 WtEn= 0.00D+00
 Coeff-Com:  0.211D+00-0.373D+00 0.226D+00-0.901D+00 0.135D+01 0.617D+00
 Coeff-Com: -0.194D+01-0.876D+00 0.112D+01 0.202D+01-0.150D+01-0.267D+01
 Coeff-Com:  0.163D+01 0.208D+01
 Coeff:      0.211D+00-0.373D+00 0.226D+00-0.901D+00 0.135D+01 0.617D+00
 Coeff:     -0.194D+01-0.876D+00 0.112D+01 0.202D+01-0.150D+01-0.267D+01
 Coeff:      0.163D+01 0.208D+01
 Gap=     0.256 Goal=   None    Shift=    0.500
 Gap=     0.072 Goal=   None    Shift=    0.500
 RMSDP=7.63D-06 MaxDP=5.75D-04 DE=-1.73D-05 OVMax= 4.77D-03

 Cycle  25  Pass 1  IDiag  1:
 E= -2293.15945142000     Delta-E=       -0.000012450385 Rises=F Damp=F
 DIIS: error= 3.33D-04 at cycle  25 NSaved=  15.
 NSaved=15 IEnMin=15 EnMin= -2293.15945142000     IErMin=15 ErrMin= 3.33D-04
 ErrMax= 3.33D-04  0.00D+00 EMaxC= 1.00D+00 BMatC= 1.75D-05 BMatP= 2.52D-05
 IDIUse=1 WtCom= 1.00D+00 WtEn= 0.00D+00
 Coeff-Com:  0.172D+00 0.104D+00-0.532D+00-0.590D+00 0.866D+00-0.107D+00
 Coeff-Com:  0.191D+01-0.320D+01-0.366D-01 0.206D+01 0.116D+00-0.620D+00
 Coeff-Com: -0.152D+01-0.866D+00 0.324D+01
 Coeff:      0.172D+00 0.104D+00-0.532D+00-0.590D+00 0.866D+00-0.107D+00
 Coeff:      0.191D+01-0.320D+01-0.366D-01 0.206D+01 0.116D+00-0.620D+00
 Coeff:     -0.152D+01-0.866D+00 0.324D+01
 Gap=     0.256 Goal=   None    Shift=    0.500
 Gap=     0.072 Goal=   None    Shift=    0.500
 RMSDP=6.05D-06 MaxDP=4.55D-04 DE=-1.25D-05 OVMax= 3.89D-03

 Cycle  26  Pass 1  IDiag  1:
 E= -2293.15946001583     Delta-E=       -0.000008595832 Rises=F Damp=F
 DIIS: error= 2.76D-04 at cycle  26 NSaved=  16.
 NSaved=16 IEnMin=16 EnMin= -2293.15946001583     IErMin=16 ErrMin= 2.76D-04
 ErrMax= 2.76D-04  0.00D+00 EMaxC= 1.00D+00 BMatC= 1.17D-05 BMatP= 1.75D-05
 IDIUse=1 WtCom= 1.00D+00 WtEn= 0.00D+00
 Coeff-Com:  0.210D+00 0.574D-02-0.554D+00-0.339D+00 0.688D+00-0.709D+00
 Coeff-Com:  0.254D+01-0.183D+01-0.403D+00-0.255D+00 0.116D+01 0.897D+00
 Coeff-Com: -0.180D+01-0.175D+01 0.106D+01 0.208D+01
 Coeff:      0.210D+00 0.574D-02-0.554D+00-0.339D+00 0.688D+00-0.709D+00
 Coeff:      0.254D+01-0.183D+01-0.403D+00-0.255D+00 0.116D+01 0.897D+00
 Coeff:     -0.180D+01-0.175D+01 0.106D+01 0.208D+01
 Gap=     0.256 Goal=   None    Shift=    0.500
 Gap=     0.072 Goal=   None    Shift=    0.500
 RMSDP=4.70D-06 MaxDP=3.37D-04 DE=-8.60D-06 OVMax= 3.19D-03

 Cycle  27  Pass 1  IDiag  1:
 E= -2293.15946577052     Delta-E=       -0.000005754696 Rises=F Damp=F
 DIIS: error= 2.27D-04 at cycle  27 NSaved=  17.
 NSaved=17 IEnMin=17 EnMin= -2293.15946577052     IErMin=17 ErrMin= 2.27D-04
 ErrMax= 2.27D-04  0.00D+00 EMaxC= 1.00D+00 BMatC= 8.08D-06 BMatP= 1.17D-05
 IDIUse=1 WtCom= 1.00D+00 WtEn= 0.00D+00
 Coeff-Com:  0.157D+00-0.220D+00-0.111D+00-0.921D-01 0.498D+00-0.660D+00
 Coeff-Com:  0.439D+00 0.111D+01-0.111D+00-0.223D+01 0.103D+01 0.855D+00
 Coeff-Com:  0.816D-01-0.502D+00-0.208D+01 0.142D+00 0.269D+01
 Coeff:      0.157D+00-0.220D+00-0.111D+00-0.921D-01 0.498D+00-0.660D+00
 Coeff:      0.439D+00 0.111D+01-0.111D+00-0.223D+01 0.103D+01 0.855D+00
 Coeff:      0.816D-01-0.502D+00-0.208D+01 0.142D+00 0.269D+01
 Gap=     0.256 Goal=   None    Shift=    0.500
 Gap=     0.072 Goal=   None    Shift=    0.500
 RMSDP=3.83D-06 MaxDP=2.59D-04 DE=-5.75D-06 OVMax= 2.63D-03

 Cycle  28  Pass 1  IDiag  1:
 E= -2293.15946976552     Delta-E=       -0.000003994994 Rises=F Damp=F
 DIIS: error= 1.88D-04 at cycle  28 NSaved=  18.
 NSaved=18 IEnMin=18 EnMin= -2293.15946976552     IErMin=18 ErrMin= 1.88D-04
 ErrMax= 1.88D-04  0.00D+00 EMaxC= 1.00D+00 BMatC= 5.64D-06 BMatP= 8.08D-06
 IDIUse=1 WtCom= 1.00D+00 WtEn= 0.00D+00
 Coeff-Com:  0.723D-01-0.136D+00 0.156D-01-0.130D+00 0.431D+00-0.217D+00
 Coeff-Com: -0.571D+00 0.995D+00-0.139D-01-0.695D+00-0.476D-01-0.236D+00
 Coeff-Com:  0.987D+00 0.582D+00-0.132D+01-0.138D+01 0.152D+00 0.251D+01
 Coeff:      0.723D-01-0.136D+00 0.156D-01-0.130D+00 0.431D+00-0.217D+00
 Coeff:     -0.571D+00 0.995D+00-0.139D-01-0.695D+00-0.476D-01-0.236D+00
 Coeff:      0.987D+00 0.582D+00-0.132D+01-0.138D+01 0.152D+00 0.251D+01
 Gap=     0.256 Goal=   None    Shift=    0.500
 Gap=     0.072 Goal=   None    Shift=    0.500
 RMSDP=3.17D-06 MaxDP=1.99D-04 DE=-3.99D-06 OVMax= 2.20D-03

 Cycle  29  Pass 1  IDiag  1:
 E= -2293.15947258551     Delta-E=       -0.000002819988 Rises=F Damp=F
 DIIS: error= 1.54D-04 at cycle  29 NSaved=  19.
 NSaved=19 IEnMin=19 EnMin= -2293.15947258551     IErMin=19 ErrMin= 1.54D-04
 ErrMax= 1.54D-04  0.00D+00 EMaxC= 1.00D+00 BMatC= 3.88D-06 BMatP= 5.64D-06
 IDIUse=1 WtCom= 1.00D+00 WtEn= 0.00D+00
 Coeff-Com:  0.466D-01 0.445D-01-0.174D+00-0.154D+00 0.337D+00-0.131D+00
 Coeff-Com:  0.198D+00-0.326D+00-0.184D+00 0.605D+00-0.307D+00-0.336D+00
 Coeff-Com:  0.252D+00 0.188D+00 0.503D+00-0.734D+00-0.871D+00-0.655D+00
 Coeff-Com:  0.270D+01
 Coeff:      0.466D-01 0.445D-01-0.174D+00-0.154D+00 0.337D+00-0.131D+00
 Coeff:      0.198D+00-0.326D+00-0.184D+00 0.605D+00-0.307D+00-0.336D+00
 Coeff:      0.252D+00 0.188D+00 0.503D+00-0.734D+00-0.871D+00-0.655D+00
 Coeff:      0.270D+01
 Gap=     0.256 Goal=   None    Shift=    0.500
 Gap=     0.072 Goal=   None    Shift=    0.500
 RMSDP=2.49D-06 MaxDP=1.41D-04 DE=-2.82D-06 OVMax= 1.78D-03

 Cycle  30  Pass 1  IDiag  1:
 E= -2293.15947454305     Delta-E=       -0.000001957543 Rises=F Damp=F
 DIIS: error= 1.26D-04 at cycle  30 NSaved=  20.
 NSaved=20 IEnMin=20 EnMin= -2293.15947454305     IErMin=20 ErrMin= 1.26D-04
 ErrMax= 1.26D-04  0.00D+00 EMaxC= 1.00D+00 BMatC= 2.52D-06 BMatP= 3.88D-06
 IDIUse=1 WtCom= 1.00D+00 WtEn= 0.00D+00
 Coeff-Com:  0.514D-01 0.766D-01-0.264D+00-0.834D-01 0.251D+00-0.383D+00
 Coeff-Com:  0.104D+01-0.646D+00-0.399D+00 0.292D+00 0.183D+00 0.271D+00
 Coeff-Com: -0.613D+00-0.517D+00 0.802D+00 0.539D+00-0.272D-01-0.273D+01
 Coeff-Com:  0.129D+01 0.187D+01
 Coeff:      0.514D-01 0.766D-01-0.264D+00-0.834D-01 0.251D+00-0.383D+00
 Coeff:      0.104D+01-0.646D+00-0.399D+00 0.292D+00 0.183D+00 0.271D+00
 Coeff:     -0.613D+00-0.517D+00 0.802D+00 0.539D+00-0.272D-01-0.273D+01
 Coeff:      0.129D+01 0.187D+01
 Gap=     0.256 Goal=   None    Shift=    0.500
 Gap=     0.072 Goal=   None    Shift=    0.500
 RMSDP=1.97D-06 MaxDP=1.50D-04 DE=-1.96D-06 OVMax= 1.42D-03

 Cycle  31  Pass 1  IDiag  1:
 E= -2293.15947583028     Delta-E=       -0.000001287227 Rises=F Damp=F
 DIIS: error= 1.02D-04 at cycle  31 NSaved=  20.
 NSaved=20 IEnMin=20 EnMin= -2293.15947583028     IErMin=20 ErrMin= 1.02D-04
 ErrMax= 1.02D-04  0.00D+00 EMaxC= 1.00D+00 BMatC= 1.58D-06 BMatP= 2.52D-06
 IDIUse=1 WtCom= 1.00D+00 WtEn= 0.00D+00
 Coeff-Com:  0.707D-01-0.144D+00-0.756D-02 0.123D+00-0.339D+00 0.652D+00
 Coeff-Com: -0.102D+00-0.301D+00-0.233D+00 0.380D+00 0.331D+00-0.454D+00
 Coeff-Com: -0.319D+00-0.123D+00 0.549D+00 0.781D+00-0.107D+01-0.451D+00
 Coeff-Com: -0.139D+01 0.305D+01
 Coeff:      0.707D-01-0.144D+00-0.756D-02 0.123D+00-0.339D+00 0.652D+00
 Coeff:     -0.102D+00-0.301D+00-0.233D+00 0.380D+00 0.331D+00-0.454D+00
 Coeff:     -0.319D+00-0.123D+00 0.549D+00 0.781D+00-0.107D+01-0.451D+00
 Coeff:     -0.139D+01 0.305D+01
 Gap=     0.256 Goal=   None    Shift=    0.500
 Gap=     0.072 Goal=   None    Shift=    0.500
 RMSDP=1.74D-06 MaxDP=1.17D-04 DE=-1.29D-06 OVMax= 1.18D-03

 Cycle  32  Pass 1  IDiag  1:
 E= -2293.15947664186     Delta-E=       -0.000000811583 Rises=F Damp=F
 DIIS: error= 8.38D-05 at cycle  32 NSaved=  20.
 NSaved=20 IEnMin=20 EnMin= -2293.15947664186     IErMin=20 ErrMin= 8.38D-05
 ErrMax= 8.38D-05  0.00D+00 EMaxC= 1.00D+00 BMatC= 1.12D-06 BMatP= 1.58D-06
 IDIUse=1 WtCom= 1.00D+00 WtEn= 0.00D+00
 Coeff-Com: -0.108D-01-0.103D-01 0.102D+00-0.107D+00-0.228D+00 0.568D+00
 Coeff-Com: -0.174D-01-0.555D+00 0.169D+00 0.390D-01 0.272D+00 0.211D+00
 Coeff-Com: -0.842D+00-0.259D+00 0.616D+00 0.111D+01-0.366D+00-0.301D+01
 Coeff-Com:  0.946D+00 0.236D+01
 Coeff:     -0.108D-01-0.103D-01 0.102D+00-0.107D+00-0.228D+00 0.568D+00
 Coeff:     -0.174D-01-0.555D+00 0.169D+00 0.390D-01 0.272D+00 0.211D+00
 Coeff:     -0.842D+00-0.259D+00 0.616D+00 0.111D+01-0.366D+00-0.301D+01
 Coeff:      0.946D+00 0.236D+01
 Gap=     0.256 Goal=   None    Shift=    0.500
 Gap=     0.072 Goal=   None    Shift=    0.500
 RMSDP=1.42D-06 MaxDP=1.04D-04 DE=-8.12D-07 OVMax= 9.59D-04

 >>>>>>>>>> Convergence criterion not met.
 SCF Done:  E(ULC-wHPBE) =  -2293.15947664     A.U. after   33 cycles
            NFock= 32  Conv=0.14D-05     -V/T= 2.0039
 <Sx>= 0.0000 <Sy>= 0.0000 <Sz>= 0.5000 <S**2>= 0.7672 S= 0.5086
 <L.S>= 0.000000000000E+00
 KE= 2.284259603731D+03 PE=-1.413016673342D+04 EE= 5.157605491097D+03
 Annihilation of the first spin contaminant:
 S**2 before annihilation     0.7672,   after     0.7503
 Leave Link  502 at Wed Jan 27 10:30:21 2021, MaxMem=  4026531840 cpu:           37163.3 elap:            4690.8
 (Enter /opt/ohpc/pub/libs/gaussian/g16-A.03/sandybridge/g16/l508.exe)
 Integral symmetry usage will be decided dynamically.
 Tight linear equation convergence will be used.
 ULC-wHPBE wavefunction.
 Quadratic Convergence SCF Method.
 Line search only if initial step raises energy.
 FoFJK:  IHMeth= 1 ICntrl=       0 DoSepK=T KAlg= 0 I1Cent=           0 FoldK=F
 IRaf=         1 NMat=       1 IRICut=       1 DoRegI=T DoRafI=F ISym2E= 1 IDoP0=0 IntGTp=1.
 FoFCou: FMM=T IPFlag=           0 FMFlag=      100000 FMFlg1=        2001
         NFxFlg=           0 DoJE=T BraDBF=F KetDBF=F FulRan=T
         wScrn=  0.000000 ICntrl=       500 IOpCl=  0 I1Cent=           0 NGrid=           0
         NMat0=    1 NMatS0=      1 NMatT0=    0 NMatD0=    1 NMtDS0=    0 NMtDT0=    0
 Petite list used in FoFCou.
 FMM levels:  10  Number of levels for PrismC:   9
 Iteration   1 EE= -2293.15947718789                                    Grad=6.163D-04 Max rot=    0.0141 deg.
 QCNR:  CnvC1=6.16D-09 CnvC2=6.16D-08
 LinEq1:  Iter=  0 NonCon=     1 RMS=4.79D-06 Max=1.69D-03 NDo=     1
 AX will form     1 AO Fock derivatives at one time.
 LinEq1:  Iter=  1 NonCon=     1 RMS=3.24D-06 Max=4.55D-04 NDo=     1
 LinEq1:  Iter=  2 NonCon=     1 RMS=2.89D-06 Max=8.45D-04 NDo=     1
 LinEq1:  Iter=  3 NonCon=     1 RMS=1.82D-06 Max=2.29D-04 NDo=     1
 LinEq1:  Iter=  4 NonCon=     1 RMS=2.07D-06 Max=3.86D-04 NDo=     1
 LinEq1:  Iter=  5 NonCon=     1 RMS=1.57D-06 Max=1.82D-04 NDo=     1
 LinEq1:  Iter=  6 NonCon=     1 RMS=9.97D-07 Max=1.45D-04 NDo=     1
 LinEq1:  Iter=  7 NonCon=     1 RMS=5.93D-07 Max=6.20D-05 NDo=     1
 LinEq1:  Iter=  8 NonCon=     1 RMS=2.95D-07 Max=3.51D-05 NDo=     1
 LinEq1:  Iter=  9 NonCon=     1 RMS=1.69D-07 Max=2.17D-05 NDo=     1
 LinEq1:  Iter= 10 NonCon=     1 RMS=1.14D-07 Max=1.24D-05 NDo=     1
 LinEq1:  Iter= 11 NonCon=     1 RMS=5.92D-08 Max=6.17D-06 NDo=     1
 LinEq1:  Iter= 12 NonCon=     1 RMS=3.45D-08 Max=2.95D-06 NDo=     1
 LinEq1:  Iter= 13 NonCon=     1 RMS=1.87D-08 Max=1.36D-06 NDo=     1
 LinEq1:  Iter= 14 NonCon=     1 RMS=9.70D-09 Max=1.11D-06 NDo=     1
 LinEq1:  Iter= 15 NonCon=     1 RMS=5.16D-09 Max=5.10D-07 NDo=     1
 LinEq1:  Iter= 16 NonCon=     1 RMS=3.08D-09 Max=2.78D-07 NDo=     1
 LinEq1:  Iter= 17 NonCon=     1 RMS=1.70D-09 Max=1.46D-07 NDo=     1
 LinEq1:  Iter= 18 NonCon=     1 RMS=9.16D-10 Max=1.09D-07 NDo=     1
 LinEq1:  Iter= 19 NonCon=     0 RMS=5.65D-10 Max=5.08D-08 NDo=     1
 Linear equations converged to 6.163D-09 6.163D-08 after    19 iterations.
 Angle between quadratic step and gradient=  80.60 degrees.
     ILin= 1 X=0.000D+00 Y=-2.293159477188D+03 DE= 0.00D+00 F= -1.34D-06
     ILin= 2 X=1.000D+00 Y=-2.293159477861D+03 DE=-6.73D-07
 Iteration   2 EE= -2293.15947786059     Delta-E=       -0.000000672700 Grad=5.508D-06 Max rot=    0.0001 deg.
 Rotation gradient small -- convergence achieved.
 SCF Done:  E(ULC-wHPBE) =  -2293.15947786     a.u. after    2 cycles
            Convg  =    0.5508D-05                    21 Fock formations.
              S**2 =  0.7673                  -V/T =  2.0039
 <Sx>= 0.0000 <Sy>= 0.0000 <Sz>= 0.5000 <S**2>= 0.7673 S= 0.5086
 <L.S>= 0.000000000000E+00
 Annihilation of the first spin contaminant:
 S**2 before annihilation     0.7673,   after     0.7503
 Leave Link  508 at Wed Jan 27 11:10:30 2021, MaxMem=  4026531840 cpu:           19018.3 elap:            2408.5
 (Enter /opt/ohpc/pub/libs/gaussian/g16-A.03/sandybridge/g16/l601.exe)
 Copying SCF densities to generalized density rwf, IOpCl= 1 IROHF=0.

 **********************************************************************

            Population analysis using the SCF density.

 **********************************************************************

 Orbital symmetries:
 Alpha Orbitals:
       Occupied  (A) (A) (A) (A) (A) (A) (A) (A) (A) (A) (A) (A)
                 (A) (A) (A) (A) (A) (A) (A) (A) (A) (A) (A) (A)
                 (A) (A) (A) (A) (A) (A) (A) (A) (A) (A) (A) (A)
                 (A) (A) (A) (A) (A) (A) (A) (A) (A) (A) (A) (A)
                 (A) (A) (A) (A) (A) (A) (A) (A) (A) (A) (A) (A)
                 (A) (A) (A) (A) (A) (A) (A) (A) (A) (A) (A) (A)
                 (A) (A) (A) (A) (A) (A) (A) (A) (A) (A) (A) (A)
                 (A) (A) (A) (A) (A) (A) (A) (A) (A) (A) (A) (A)
                 (A) (A) (A) (A) (A) (A) (A) (A) (A) (A) (A) (A)
                 (A) (A) (A) (A) (A) (A) (A) (A) (A) (A) (A) (A)
                 (A) (A) (A) (A) (A) (A) (A) (A) (A) (A) (A) (A)
                 (A) (A) (A) (A) (A) (A) (A) (A) (A) (A) (A) (A)
                 (A)
       Virtual   (A) (A) (A) (A) (A) (A) (A) (A) (A) (A) (A) (A)
                 (A) (A) (A) (A) (A) (A) (A) (A) (A) (A) (A) (A)
                 (A) (A) (A) (A) (A) (A) (A) (A) (A) (A) (A) (A)
                 (A) (A) (A) (A) (A) (A) (A) (A) (A) (A) (A) (A)
                 (A) (A) (A) (A) (A) (A) (A) (A) (A) (A) (A) (A)
                 (A) (A) (A) (A) (A) (A) (A) (A) (A) (A) (A) (A)
                 (A) (A) (A) (A) (A) (A) (A) (A) (A) (A) (A) (A)
                 (A) (A) (A) (A) (A) (A) (A) (A) (A) (A) (A) (A)
                 (A) (A) (A) (A) (A) (A) (A) (A) (A) (A) (A) (A)
                 (A) (A) (A) (A) (A) (A) (A) (A) (A) (A) (A) (A)
                 (A) (A) (A) (A) (A) (A) (A) (A) (A) (A) (A) (A)
                 (A) (A) (A) (A) (A) (A) (A) (A) (A) (A) (A) (A)
                 (A) (A) (A) (A) (A) (A) (A) (A) (A) (A) (A) (A)
                 (A) (A) (A) (A) (A) (A) (A) (A) (A) (A) (A) (A)
                 (A) (A) (A) (A) (A) (A) (A) (A) (A) (A) (A) (A)
                 (A) (A) (A) (A) (A) (A) (A) (A) (A) (A) (A) (A)
                 (A) (A) (A) (A) (A) (A) (A) (A) (A) (A) (A) (A)
                 (A) (A) (A) (A) (A) (A) (A) (A) (A) (A) (A) (A)
                 (A) (A) (A) (A) (A) (A) (A) (A) (A) (A) (A) (A)
                 (A) (A) (A) (A) (A) (A) (A) (A) (A) (A) (A) (A)
                 (A) (A) (A) (A) (A) (A) (A) (A) (A) (A) (A) (A)
                 (A) (A) (A) (A) (A) (A) (A) (A) (A) (A) (A) (A)
                 (A) (A) (A) (A) (A) (A) (A) (A) (A) (A) (A) (A)
                 (A) (A) (A) (A) (A) (A) (A) (A) (A) (A) (A) (A)
                 (A) (A) (A) (A) (A) (A) (A) (A) (A) (A) (A) (A)
                 (A) (A) (A) (A) (A) (A) (A) (A) (A) (A) (A) (A)
                 (A) (A) (A) (A) (A) (A) (A) (A) (A) (A) (A) (A)
                 (A) (A) (A) (A) (A) (A) (A) (A) (A) (A) (A) (A)
                 (A) (A) (A) (A) (A) (A) (A) (A) (A) (A) (A) (A)
                 (A) (A) (A) (A) (A) (A) (A) (A) (A) (A) (A) (A)
                 (A) (A) (A) (A) (A) (A) (A) (A) (A) (A) (A) (A)
                 (A) (A) (A) (A) (A) (A) (A) (A) (A) (A) (A) (A)
                 (A) (A) (A) (A) (A) (A) (A) (A) (A) (A) (A) (A)
                 (A) (A) (A) (A) (A) (A) (A) (A) (A) (A) (A) (A)
                 (A) (A) (A) (A) (A) (A) (A) (A) (A) (A) (A) (A)
                 (A) (A) (A) (A) (A) (A) (A) (A) (A) (A) (A) (A)
                 (A) (A) (A) (A) (A) (A) (A) (A) (A) (A) (A) (A)
                 (A) (A) (A) (A) (A) (A) (A) (A) (A) (A) (A) (A)
                 (A) (A) (A) (A) (A) (A) (A) (A) (A) (A) (A) (A)
                 (A) (A) (A) (A) (A) (A) (A) (A) (A) (A) (A) (A)
                 (A) (A) (A) (A) (A) (A) (A) (A) (A) (A) (A) (A)
                 (A) (A) (A) (A) (A) (A) (A) (A) (A) (A) (A) (A)
                 (A) (A) (A) (A) (A) (A) (A) (A) (A) (A) (A) (A)
                 (A) (A) (A) (A) (A) (A) (A) (A) (A) (A) (A) (A)
                 (A) (A) (A) (A) (A) (A) (A) (A) (A) (A) (A) (A)
                 (A) (A) (A) (A) (A) (A) (A) (A) (A) (A) (A) (A)
                 (A) (A) (A) (A) (A) (A) (A) (A) (A) (A) (A) (A)
                 (A) (A) (A) (A) (A) (A) (A) (A) (A) (A) (A) (A)
                 (A) (A) (A) (A) (A) (A) (A) (A) (A) (A) (A) (A)
                 (A) (A) (A) (A) (A) (A) (A) (A) (A) (A) (A) (A)
                 (A) (A) (A) (A) (A) (A) (A) (A) (A) (A) (A) (A)
                 (A) (A) (A) (A) (A) (A) (A) (A) (A) (A) (A) (A)
                 (A) (A) (A) (A) (A) (A) (A) (A) (A) (A) (A) (A)
                 (A) (A) (A) (A) (A) (A) (A) (A) (A) (A) (A) (A)
                 (A) (A) (A) (A) (A) (A) (A) (A) (A) (A) (A) (A)
                 (A) (A) (A) (A) (A) (A) (A) (A) (A) (A) (A) (A)
                 (A) (A) (A) (A) (A) (A) (A) (A) (A) (A) (A) (A)
                 (A) (A) (A) (A) (A) (A) (A) (A) (A) (A) (A) (A)
                 (A) (A) (A) (A) (A) (A) (A) (A) (A) (A) (A) (A)
                 (A) (A) (A) (A) (A) (A) (A) (A) (A) (A) (A) (A)
                 (A) (A) (A) (A) (A) (A) (A) (A) (A) (A) (A) (A)
                 (A) (A) (A) (A) (A) (A) (A) (A) (A) (A) (A) (A)
                 (A) (A) (A) (A) (A) (A) (A) (A) (A) (A) (A) (A)
                 (A) (A) (A) (A) (A) (A) (A) (A) (A) (A) (A) (A)
                 (A) (A) (A) (A) (A) (A) (A) (A) (A) (A) (A) (A)
                 (A) (A) (A) (A) (A) (A) (A) (A) (A)
 Beta  Orbitals:
       Occupied  (A) (A) (A) (A) (A) (A) (A) (A) (A) (A) (A) (A)
                 (A) (A) (A) (A) (A) (A) (A) (A) (A) (A) (A) (A)
                 (A) (A) (A) (A) (A) (A) (A) (A) (A) (A) (A) (A)
                 (A) (A) (A) (A) (A) (A) (A) (A) (A) (A) (A) (A)
                 (A) (A) (A) (A) (A) (A) (A) (A) (A) (A) (A) (A)
                 (A) (A) (A) (A) (A) (A) (A) (A) (A) (A) (A) (A)
                 (A) (A) (A) (A) (A) (A) (A) (A) (A) (A) (A) (A)
                 (A) (A) (A) (A) (A) (A) (A) (A) (A) (A) (A) (A)
                 (A) (A) (A) (A) (A) (A) (A) (A) (A) (A) (A) (A)
                 (A) (A) (A) (A) (A) (A) (A) (A) (A) (A) (A) (A)
                 (A) (A) (A) (A) (A) (A) (A) (A) (A) (A) (A) (A)
                 (A) (A) (A) (A) (A) (A) (A) (A) (A) (A) (A) (A)
       Virtual   (A) (A) (A) (A) (A) (A) (A) (A) (A) (A) (A) (A)
                 (A) (A) (A) (A) (A) (A) (A) (A) (A) (A) (A) (A)
                 (A) (A) (A) (A) (A) (A) (A) (A) (A) (A) (A) (A)
                 (A) (A) (A) (A) (A) (A) (A) (A) (A) (A) (A) (A)
                 (A) (A) (A) (A) (A) (A) (A) (A) (A) (A) (A) (A)
                 (A) (A) (A) (A) (A) (A) (A) (A) (A) (A) (A) (A)
                 (A) (A) (A) (A) (A) (A) (A) (A) (A) (A) (A) (A)
                 (A) (A) (A) (A) (A) (A) (A) (A) (A) (A) (A) (A)
                 (A) (A) (A) (A) (A) (A) (A) (A) (A) (A) (A) (A)
                 (A) (A) (A) (A) (A) (A) (A) (A) (A) (A) (A) (A)
                 (A) (A) (A) (A) (A) (A) (A) (A) (A) (A) (A) (A)
                 (A) (A) (A) (A) (A) (A) (A) (A) (A) (A) (A) (A)
                 (A) (A) (A) (A) (A) (A) (A) (A) (A) (A) (A) (A)
                 (A) (A) (A) (A) (A) (A) (A) (A) (A) (A) (A) (A)
                 (A) (A) (A) (A) (A) (A) (A) (A) (A) (A) (A) (A)
                 (A) (A) (A) (A) (A) (A) (A) (A) (A) (A) (A) (A)
                 (A) (A) (A) (A) (A) (A) (A) (A) (A) (A) (A) (A)
                 (A) (A) (A) (A) (A) (A) (A) (A) (A) (A) (A) (A)
                 (A) (A) (A) (A) (A) (A) (A) (A) (A) (A) (A) (A)
                 (A) (A) (A) (A) (A) (A) (A) (A) (A) (A) (A) (A)
                 (A) (A) (A) (A) (A) (A) (A) (A) (A) (A) (A) (A)
                 (A) (A) (A) (A) (A) (A) (A) (A) (A) (A) (A) (A)
                 (A) (A) (A) (A) (A) (A) (A) (A) (A) (A) (A) (A)
                 (A) (A) (A) (A) (A) (A) (A) (A) (A) (A) (A) (A)
                 (A) (A) (A) (A) (A) (A) (A) (A) (A) (A) (A) (A)
                 (A) (A) (A) (A) (A) (A) (A) (A) (A) (A) (A) (A)
                 (A) (A) (A) (A) (A) (A) (A) (A) (A) (A) (A) (A)
                 (A) (A) (A) (A) (A) (A) (A) (A) (A) (A) (A) (A)
                 (A) (A) (A) (A) (A) (A) (A) (A) (A) (A) (A) (A)
                 (A) (A) (A) (A) (A) (A) (A) (A) (A) (A) (A) (A)
                 (A) (A) (A) (A) (A) (A) (A) (A) (A) (A) (A) (A)
                 (A) (A) (A) (A) (A) (A) (A) (A) (A) (A) (A) (A)
                 (A) (A) (A) (A) (A) (A) (A) (A) (A) (A) (A) (A)
                 (A) (A) (A) (A) (A) (A) (A) (A) (A) (A) (A) (A)
                 (A) (A) (A) (A) (A) (A) (A) (A) (A) (A) (A) (A)
                 (A) (A) (A) (A) (A) (A) (A) (A) (A) (A) (A) (A)
                 (A) (A) (A) (A) (A) (A) (A) (A) (A) (A) (A) (A)
                 (A) (A) (A) (A) (A) (A) (A) (A) (A) (A) (A) (A)
                 (A) (A) (A) (A) (A) (A) (A) (A) (A) (A) (A) (A)
                 (A) (A) (A) (A) (A) (A) (A) (A) (A) (A) (A) (A)
                 (A) (A) (A) (A) (A) (A) (A) (A) (A) (A) (A) (A)
                 (A) (A) (A) (A) (A) (A) (A) (A) (A) (A) (A) (A)
                 (A) (A) (A) (A) (A) (A) (A) (A) (A) (A) (A) (A)
                 (A) (A) (A) (A) (A) (A) (A) (A) (A) (A) (A) (A)
                 (A) (A) (A) (A) (A) (A) (A) (A) (A) (A) (A) (A)
                 (A) (A) (A) (A) (A) (A) (A) (A) (A) (A) (A) (A)
                 (A) (A) (A) (A) (A) (A) (A) (A) (A) (A) (A) (A)
                 (A) (A) (A) (A) (A) (A) (A) (A) (A) (A) (A) (A)
                 (A) (A) (A) (A) (A) (A) (A) (A) (A) (A) (A) (A)
                 (A) (A) (A) (A) (A) (A) (A) (A) (A) (A) (A) (A)
                 (A) (A) (A) (A) (A) (A) (A) (A) (A) (A) (A) (A)
                 (A) (A) (A) (A) (A) (A) (A) (A) (A) (A) (A) (A)
                 (A) (A) (A) (A) (A) (A) (A) (A) (A) (A) (A) (A)
                 (A) (A) (A) (A) (A) (A) (A) (A) (A) (A) (A) (A)
                 (A) (A) (A) (A) (A) (A) (A) (A) (A) (A) (A) (A)
                 (A) (A) (A) (A) (A) (A) (A) (A) (A) (A) (A) (A)
                 (A) (A) (A) (A) (A) (A) (A) (A) (A) (A) (A) (A)
                 (A) (A) (A) (A) (A) (A) (A) (A) (A) (A) (A) (A)
                 (A) (A) (A) (A) (A) (A) (A) (A) (A) (A) (A) (A)
                 (A) (A) (A) (A) (A) (A) (A) (A) (A) (A) (A) (A)
                 (A) (A) (A) (A) (A) (A) (A) (A) (A) (A) (A) (A)
                 (A) (A) (A) (A) (A) (A) (A) (A) (A) (A) (A) (A)
                 (A) (A) (A) (A) (A) (A) (A) (A) (A) (A) (A) (A)
                 (A) (A) (A) (A) (A) (A) (A) (A) (A) (A) (A) (A)
                 (A) (A) (A) (A) (A) (A) (A) (A) (A) (A) (A) (A)
                 (A) (A) (A) (A) (A) (A) (A) (A) (A) (A)
 The electronic state is 2-A.
 Alpha  occ. eigenvalues --  -88.33338 -88.33039 -14.29611 -14.25120 -10.18291
 Alpha  occ. eigenvalues --  -10.18197 -10.16916 -10.16742 -10.16593 -10.15495
 Alpha  occ. eigenvalues --  -10.14944 -10.14396 -10.14045 -10.14034 -10.13972
 Alpha  occ. eigenvalues --  -10.13732 -10.12349 -10.12114 -10.12103 -10.12015
 Alpha  occ. eigenvalues --  -10.11729 -10.11612 -10.11543 -10.11504 -10.11455
 Alpha  occ. eigenvalues --  -10.11394 -10.11364 -10.11302 -10.11277 -10.11252
 Alpha  occ. eigenvalues --  -10.09596 -10.09400 -10.09318 -10.09312 -10.09177
 Alpha  occ. eigenvalues --  -10.09172 -10.08964 -10.08955 -10.08888 -10.08640
 Alpha  occ. eigenvalues --   -7.92581  -7.92188  -5.94731  -5.94364  -5.94229
 Alpha  occ. eigenvalues --   -5.93851  -5.93589  -5.93176  -1.15755  -1.12145
 Alpha  occ. eigenvalues --   -1.06027  -1.02792  -1.02692  -1.01471  -1.00112
 Alpha  occ. eigenvalues --   -0.98894  -0.97656  -0.96675  -0.93455  -0.92564
 Alpha  occ. eigenvalues --   -0.92042  -0.91496  -0.91257  -0.90712  -0.90056
 Alpha  occ. eigenvalues --   -0.89357  -0.88680  -0.88208  -0.87092  -0.84977
 Alpha  occ. eigenvalues --   -0.81284  -0.80630  -0.79293  -0.78969  -0.78287
 Alpha  occ. eigenvalues --   -0.77650  -0.76945  -0.76632  -0.75270  -0.75005
 Alpha  occ. eigenvalues --   -0.74213  -0.72688  -0.72024  -0.71884  -0.69821
 Alpha  occ. eigenvalues --   -0.69294  -0.68435  -0.67538  -0.65850  -0.65568
 Alpha  occ. eigenvalues --   -0.65480  -0.64604  -0.63845  -0.63706  -0.62866
 Alpha  occ. eigenvalues --   -0.62723  -0.61879  -0.61508  -0.61108  -0.60984
 Alpha  occ. eigenvalues --   -0.60792  -0.60111  -0.59884  -0.59476  -0.59319
 Alpha  occ. eigenvalues --   -0.58989  -0.58670  -0.58519  -0.58242  -0.57382
 Alpha  occ. eigenvalues --   -0.57071  -0.56922  -0.56742  -0.56352  -0.55884
 Alpha  occ. eigenvalues --   -0.54502  -0.54207  -0.53702  -0.53516  -0.53048
 Alpha  occ. eigenvalues --   -0.52635  -0.52280  -0.51975  -0.51602  -0.51350
 Alpha  occ. eigenvalues --   -0.51128  -0.50800  -0.50319  -0.49535  -0.48861
 Alpha  occ. eigenvalues --   -0.48507  -0.48231  -0.46140  -0.45148  -0.44784
 Alpha  occ. eigenvalues --   -0.43935  -0.43607  -0.43463  -0.42163  -0.42013
 Alpha  occ. eigenvalues --   -0.41428  -0.41004  -0.40243  -0.37791  -0.34886
 Alpha virt. eigenvalues --   -0.09360  -0.08602  -0.07077  -0.06563  -0.06032
 Alpha virt. eigenvalues --   -0.05586  -0.04689  -0.04487  -0.03404  -0.03193
 Alpha virt. eigenvalues --   -0.03023  -0.02201  -0.00612   0.00413   0.00545
 Alpha virt. eigenvalues --    0.01847   0.02878   0.03460   0.03692   0.04126
 Alpha virt. eigenvalues --    0.04563   0.04933   0.05026   0.05349   0.06115
 Alpha virt. eigenvalues --    0.06320   0.06713   0.06833   0.07072   0.07433
 Alpha virt. eigenvalues --    0.07639   0.07918   0.08219   0.08308   0.08737
 Alpha virt. eigenvalues --    0.08927   0.09220   0.09494   0.09592   0.09936
 Alpha virt. eigenvalues --    0.10204   0.10243   0.10741   0.11133   0.11337
 Alpha virt. eigenvalues --    0.11887   0.11983   0.12088   0.12633   0.12995
 Alpha virt. eigenvalues --    0.13965   0.14361   0.14691   0.15049   0.15493
 Alpha virt. eigenvalues --    0.15721   0.16132   0.16556   0.16695   0.16938
 Alpha virt. eigenvalues --    0.17220   0.17291   0.17552   0.17716   0.18123
 Alpha virt. eigenvalues --    0.18461   0.18599   0.18950   0.19038   0.19377
 Alpha virt. eigenvalues --    0.19520   0.19706   0.20007   0.20180   0.20331
 Alpha virt. eigenvalues --    0.20657   0.20864   0.20947   0.20983   0.21382
 Alpha virt. eigenvalues --    0.21642   0.21734   0.21833   0.22075   0.22125
 Alpha virt. eigenvalues --    0.22439   0.22684   0.22940   0.22974   0.23333
 Alpha virt. eigenvalues --    0.23477   0.23924   0.24270   0.24459   0.24675
 Alpha virt. eigenvalues --    0.24873   0.25012   0.25181   0.25969   0.26070
 Alpha virt. eigenvalues --    0.26186   0.26631   0.26717   0.26951   0.27266
 Alpha virt. eigenvalues --    0.27448   0.27543   0.27866   0.28291   0.28570
 Alpha virt. eigenvalues --    0.28680   0.28773   0.29203   0.29381   0.29542
 Alpha virt. eigenvalues --    0.29662   0.30064   0.30545   0.30911   0.31001
 Alpha virt. eigenvalues --    0.31588   0.31843   0.32322   0.32613   0.32801
 Alpha virt. eigenvalues --    0.33053   0.33256   0.33461   0.33657   0.34043
 Alpha virt. eigenvalues --    0.34547   0.34782   0.35195   0.35238   0.35376
 Alpha virt. eigenvalues --    0.35796   0.36018   0.36157   0.36225   0.36334
 Alpha virt. eigenvalues --    0.36680   0.36877   0.37338   0.37463   0.37493
 Alpha virt. eigenvalues --    0.37731   0.37986   0.38318   0.38356   0.38534
 Alpha virt. eigenvalues --    0.38700   0.38810   0.39015   0.39424   0.39537
 Alpha virt. eigenvalues --    0.39739   0.40103   0.40314   0.40511   0.40682
 Alpha virt. eigenvalues --    0.40725   0.41235   0.41634   0.41874   0.42112
 Alpha virt. eigenvalues --    0.42273   0.42446   0.42587   0.42767   0.43227
 Alpha virt. eigenvalues --    0.43385   0.43748   0.44075   0.44422   0.44538
 Alpha virt. eigenvalues --    0.44878   0.45203   0.45351   0.45618   0.45901
 Alpha virt. eigenvalues --    0.46067   0.46106   0.46586   0.47023   0.47197
 Alpha virt. eigenvalues --    0.47483   0.47627   0.47759   0.48028   0.48180
 Alpha virt. eigenvalues --    0.48631   0.48738   0.49000   0.49398   0.49453
 Alpha virt. eigenvalues --    0.49676   0.49947   0.50225   0.50378   0.50873
 Alpha virt. eigenvalues --    0.50958   0.51523   0.51648   0.52370   0.52381
 Alpha virt. eigenvalues --    0.52873   0.53249   0.53876   0.54063   0.54371
 Alpha virt. eigenvalues --    0.54609   0.54877   0.56105   0.56248   0.56556
 Alpha virt. eigenvalues --    0.57393   0.57913   0.58107   0.58704   0.59071
 Alpha virt. eigenvalues --    0.60083   0.60599   0.60862   0.61115   0.61715
 Alpha virt. eigenvalues --    0.62558   0.63252   0.63649   0.63837   0.64070
 Alpha virt. eigenvalues --    0.64911   0.65183   0.65514   0.65777   0.65965
 Alpha virt. eigenvalues --    0.66227   0.66486   0.66647   0.67064   0.67251
 Alpha virt. eigenvalues --    0.67979   0.68134   0.68420   0.68513   0.68678
 Alpha virt. eigenvalues --    0.68805   0.68990   0.69074   0.70003   0.70229
 Alpha virt. eigenvalues --    0.70371   0.70755   0.70948   0.71881   0.72145
 Alpha virt. eigenvalues --    0.72357   0.73380   0.73763   0.74574   0.74759
 Alpha virt. eigenvalues --    0.75511   0.76030   0.76398   0.76660   0.77059
 Alpha virt. eigenvalues --    0.78214   0.79200   0.79781   0.80444   0.81039
 Alpha virt. eigenvalues --    0.81976   0.82692   0.83003   0.83996   0.84368
 Alpha virt. eigenvalues --    0.84834   0.86107   0.86647   0.87417   0.88522
 Alpha virt. eigenvalues --    0.89056   0.90346   0.90937   0.92342   0.92973
 Alpha virt. eigenvalues --    0.94403   0.96195   0.98460   1.04277   1.09006
 Alpha virt. eigenvalues --    1.10594   1.11062   1.13001   1.13406   1.14817
 Alpha virt. eigenvalues --    1.15283   1.16432   1.16661   1.17363   1.17973
 Alpha virt. eigenvalues --    1.18244   1.18492   1.18766   1.18830   1.19476
 Alpha virt. eigenvalues --    1.20098   1.20254   1.20546   1.20919   1.21181
 Alpha virt. eigenvalues --    1.21508   1.22008   1.22186   1.22778   1.22814
 Alpha virt. eigenvalues --    1.22875   1.23266   1.23611   1.23963   1.24082
 Alpha virt. eigenvalues --    1.24766   1.24995   1.25101   1.25473   1.25587
 Alpha virt. eigenvalues --    1.25873   1.26076   1.26259   1.26494   1.26827
 Alpha virt. eigenvalues --    1.27358   1.27465   1.27762   1.27816   1.28280
 Alpha virt. eigenvalues --    1.28480   1.28985   1.29259   1.29392   1.30103
 Alpha virt. eigenvalues --    1.30673   1.31030   1.31147   1.31533   1.32156
 Alpha virt. eigenvalues --    1.33919   1.34543   1.35519   1.36056   1.36449
 Alpha virt. eigenvalues --    1.36793   1.37291   1.37938   1.38486   1.38620
 Alpha virt. eigenvalues --    1.38683   1.38848   1.39114   1.39357   1.39715
 Alpha virt. eigenvalues --    1.39915   1.40581   1.40678   1.40720   1.40978
 Alpha virt. eigenvalues --    1.41036   1.41274   1.41355   1.41641   1.41816
 Alpha virt. eigenvalues --    1.41975   1.42154   1.42389   1.42651   1.42930
 Alpha virt. eigenvalues --    1.43211   1.43587   1.43930   1.44049   1.44300
 Alpha virt. eigenvalues --    1.44570   1.44738   1.45111   1.45390   1.46003
 Alpha virt. eigenvalues --    1.46336   1.46342   1.46485   1.47060   1.47264
 Alpha virt. eigenvalues --    1.47811   1.47902   1.48271   1.48490   1.48912
 Alpha virt. eigenvalues --    1.49140   1.49443   1.49681   1.49853   1.49913
 Alpha virt. eigenvalues --    1.50079   1.50087   1.50511   1.50714   1.50764
 Alpha virt. eigenvalues --    1.51361   1.51517   1.51868   1.52365   1.52478
[...]
     3 S(33)  Bbb    -0.1552    -6.364    -2.271    -2.123  0.8810 -0.3018 -0.3643
              Bcc     0.3219    13.196     4.709     4.402  0.3591 -0.0746  0.9303
 
              Baa    -0.0676    -9.066    -3.235    -3.024 -0.3293  0.6557  0.6795
     4 C(13)  Bbb    -0.0634    -8.509    -3.036    -2.838  0.7301 -0.2795  0.6236
              Bcc     0.1310    17.575     6.271     5.863  0.5988  0.7014 -0.3866
 
              Baa    -0.0065    -0.873    -0.312    -0.291  0.3301 -0.0117  0.9439
     5 C(13)  Bbb     0.0013     0.170     0.061     0.057  0.8572  0.4225 -0.2946
              Bcc     0.0052     0.703     0.251     0.235 -0.3953  0.9063  0.1495
 
              Baa    -0.0292    -3.923    -1.400    -1.308  0.6723  0.7199 -0.1725
     6 C(13)  Bbb    -0.0272    -3.652    -1.303    -1.218  0.7370 -0.6289  0.2474
              Bcc     0.0564     7.575     2.703     2.527 -0.0696  0.2935  0.9534
 
              Baa    -0.0198    -2.651    -0.946    -0.884 -0.1164  0.9724  0.2020
     7 C(13)  Bbb    -0.0032    -0.425    -0.152    -0.142  0.6531 -0.0782  0.7532
              Bcc     0.0229     3.076     1.098     1.026  0.7483  0.2196 -0.6260
 
              Baa    -0.0265    -3.557    -1.269    -1.186  0.4731  0.6892 -0.5488
     8 C(13)  Bbb     0.0104     1.400     0.500     0.467  0.0257  0.6119  0.7906
              Bcc     0.0161     2.157     0.770     0.719  0.8806 -0.3881  0.2718
 
              Baa    -0.0023    -1.218    -0.434    -0.406  0.6960 -0.4365  0.5702
     9 H(1)   Bbb    -0.0007    -0.391    -0.139    -0.130  0.6901  0.6259 -0.3632
              Bcc     0.0030     1.608     0.574     0.536 -0.1984  0.6463  0.7369
 
              Baa    -0.0117    -1.565    -0.559    -0.522  0.0146 -0.6960  0.7179
    10 C(13)  Bbb    -0.0091    -1.217    -0.434    -0.406  0.9564  0.2192  0.1931
              Bcc     0.0207     2.783     0.993     0.928 -0.2918  0.6838  0.6689
 
              Baa    -0.0057    -0.763    -0.272    -0.255  0.0850  0.2028  0.9755
    11 C(13)  Bbb     0.0020     0.268     0.096     0.089 -0.0535  0.9786 -0.1988
              Bcc     0.0037     0.495     0.177     0.165  0.9949  0.0353 -0.0940
 
              Baa    -0.0190    -2.546    -0.908    -0.849  0.9374 -0.2272  0.2641
    12 C(13)  Bbb    -0.0175    -2.344    -0.836    -0.782  0.3473  0.6695 -0.6566
              Bcc     0.0364     4.889     1.745     1.631 -0.0276  0.7072  0.7065
 
              Baa    -0.0150    -2.011    -0.718    -0.671 -0.4887  0.8629 -0.1285
    13 C(13)  Bbb    -0.0080    -1.071    -0.382    -0.357  0.8577  0.4481 -0.2521
              Bcc     0.0230     3.082     1.100     1.028  0.1600  0.2334  0.9591
 
              Baa    -0.0018    -0.973    -0.347    -0.325  0.1561  0.5583  0.8148
    14 H(1)   Bbb    -0.0002    -0.122    -0.043    -0.041  0.8108  0.3987 -0.4285
              Bcc     0.0021     1.095     0.391     0.365 -0.5641  0.7275 -0.3905
 
              Baa    -0.0014    -0.726    -0.259    -0.242  0.0894  0.3620  0.9279
    15 H(1)   Bbb    -0.0002    -0.107    -0.038    -0.036  0.5496  0.7590 -0.3491
              Bcc     0.0016     0.833     0.297     0.278  0.8306 -0.5412  0.1311
 
              Baa    -0.0017    -0.910    -0.325    -0.304 -0.1431  0.2627  0.9542
    16 H(1)   Bbb    -0.0013    -0.714    -0.255    -0.238  0.7197  0.6895 -0.0819
              Bcc     0.0030     1.624     0.579     0.542  0.6794 -0.6750  0.2877
 
              Baa    -0.0482    -6.471    -2.309    -2.158  0.8315 -0.5337  0.1541
    17 C(13)  Bbb    -0.0456    -6.120    -2.184    -2.041  0.0255  0.3138  0.9492
              Bcc     0.0938    12.591     4.493     4.200  0.5549  0.7853 -0.2745
 
              Baa    -0.0037    -1.970    -0.703    -0.657  0.6230  0.7317 -0.2765
    18 H(1)   Bbb     0.0003     0.143     0.051     0.048  0.5546 -0.1639  0.8158
              Bcc     0.0034     1.827     0.652     0.609 -0.5517  0.6616  0.5079
 
              Baa    -0.0016    -0.871    -0.311    -0.291  0.1868  0.6637  0.7243
    19 H(1)   Bbb     0.0004     0.193     0.069     0.064 -0.2624 -0.6768  0.6878
              Bcc     0.0013     0.678     0.242     0.226  0.9467 -0.3186  0.0477
 
              Baa    -0.0023    -1.245    -0.444    -0.415  0.5312  0.7091 -0.4636
    20 H(1)   Bbb     0.0002     0.090     0.032     0.030  0.4680  0.2105  0.8583
              Bcc     0.0022     1.156     0.412     0.385  0.7062 -0.6729 -0.2201
 
              Baa    -0.0041    -2.171    -0.775    -0.724  0.3063 -0.2236  0.9253
    21 H(1)   Bbb    -0.0026    -1.380    -0.492    -0.460  0.7856  0.6083 -0.1130
              Bcc     0.0067     3.551     1.267     1.185 -0.5376  0.7615  0.3620
 
              Baa    -0.1618    -6.632    -2.367    -2.212  0.7659 -0.3876  0.5131
    22 S(33)  Bbb    -0.1427    -5.849    -2.087    -1.951 -0.1612  0.6568  0.7367
              Bcc     0.3044    12.481     4.454     4.163  0.6225  0.6469 -0.4405
 
              Baa    -0.1631    -6.290    -2.244    -2.098 -0.3210  0.9089  0.2660
    23 N(14)  Bbb    -0.1623    -6.258    -2.233    -2.088  0.8848  0.3880 -0.2581
              Bcc     0.3254    12.548     4.478     4.186  0.3378 -0.1525  0.9288
 
              Baa    -0.0127    -1.702    -0.607    -0.568  0.1540  0.7953 -0.5863
    24 C(13)  Bbb     0.0040     0.535     0.191     0.178  0.7232  0.3136  0.6153
              Bcc     0.0087     1.167     0.417     0.389  0.6733 -0.5188 -0.5268
 
              Baa    -0.0178    -2.388    -0.852    -0.797 -0.0504  0.6904  0.7217
    25 C(13)  Bbb    -0.0154    -2.070    -0.738    -0.690  0.9398 -0.2117  0.2682
              Bcc     0.0332     4.458     1.591     1.487  0.3380  0.6918 -0.6382
 
              Baa    -0.0187    -2.513    -0.897    -0.838  0.9684 -0.1061  0.2259
    26 C(13)  Bbb    -0.0166    -2.231    -0.796    -0.744 -0.1289  0.5623  0.8168
              Bcc     0.0353     4.744     1.693     1.582  0.2137  0.8201 -0.5308
 
              Baa    -0.0142    -1.909    -0.681    -0.637 -0.0537 -0.6653  0.7447
    27 C(13)  Bbb     0.0063     0.850     0.303     0.284  0.6783  0.5230  0.5161
              Bcc     0.0079     1.059     0.378     0.353  0.7328 -0.5329 -0.4231
 
              Baa    -0.0155    -2.079    -0.742    -0.693 -0.1155 -0.6271  0.7704
    28 C(13)  Bbb     0.0068     0.916     0.327     0.306  0.5599  0.5995  0.5719
              Bcc     0.0087     1.163     0.415     0.388  0.8205 -0.4974 -0.2818
 
              Baa    -0.0209    -2.801    -1.000    -0.934  0.6294  0.5859  0.5104
    29 C(13)  Bbb    -0.0187    -2.506    -0.894    -0.836  0.7750 -0.5211 -0.3574
              Bcc     0.0395     5.307     1.894     1.770 -0.0566 -0.6206  0.7821
 
              Baa    -0.0014    -0.739    -0.264    -0.246 -0.2798  0.7792 -0.5609
    30 H(1)   Bbb    -0.0007    -0.376    -0.134    -0.126  0.7870 -0.1485 -0.5989
              Bcc     0.0021     1.115     0.398     0.372  0.5499  0.6089  0.5717
 
              Baa    -0.0014    -0.765    -0.273    -0.255 -0.1355 -0.6730  0.7271
    31 H(1)   Bbb    -0.0006    -0.308    -0.110    -0.103 -0.5160  0.6744  0.5281
              Bcc     0.0020     1.072     0.383     0.358  0.8458  0.3037  0.4386
 
              Baa    -0.0008    -0.404    -0.144    -0.135 -0.1208 -0.6944  0.7094
    32 H(1)   Bbb     0.0000     0.012     0.004     0.004  0.8332  0.3175  0.4527
              Bcc     0.0007     0.392     0.140     0.131 -0.5396  0.6457  0.5402
 
              Baa    -0.0008    -0.432    -0.154    -0.144  0.1330  0.7376 -0.6621
    33 H(1)   Bbb    -0.0002    -0.095    -0.034    -0.032  0.3881  0.5759  0.7195
              Bcc     0.0010     0.526     0.188     0.176  0.9120 -0.3527 -0.2096
 
              Baa    -0.0027    -1.434    -0.512    -0.478  0.6545  0.5435  0.5256
    34 H(1)   Bbb    -0.0003    -0.153    -0.054    -0.051 -0.0781 -0.6428  0.7620
              Bcc     0.0030     1.587     0.566     0.529  0.7520 -0.5398 -0.3783
 
              Baa    -0.0125    -1.673    -0.597    -0.558  0.9197 -0.2708  0.2845
    35 C(13)  Bbb     0.0039     0.518     0.185     0.173 -0.3578 -0.2788  0.8912
              Bcc     0.0086     1.155     0.412     0.385  0.1620  0.9214  0.3533
 
              Baa    -0.0182    -2.444    -0.872    -0.815 -0.2001  0.6326  0.7482
    36 C(13)  Bbb    -0.0160    -2.141    -0.764    -0.714  0.2192  0.7732 -0.5951
              Bcc     0.0342     4.585     1.636     1.529  0.9549 -0.0449  0.2934
 
              Baa    -0.0189    -2.533    -0.904    -0.845  0.3275  0.7836 -0.5279
    37 C(13)  Bbb    -0.0169    -2.269    -0.810    -0.757 -0.0462  0.5714  0.8194
              Bcc     0.0358     4.803     1.714     1.602  0.9437 -0.2440  0.2233
 
              Baa    -0.0146    -1.954    -0.697    -0.652  0.8364 -0.2162  0.5036
    38 C(13)  Bbb     0.0066     0.883     0.315     0.294 -0.5321 -0.1000  0.8408
              Bcc     0.0080     1.071     0.382     0.357  0.1314  0.9712  0.1987
 
              Baa    -0.0156    -2.088    -0.745    -0.697  0.8465 -0.1393  0.5138
    39 C(13)  Bbb     0.0069     0.926     0.331     0.309 -0.5040  0.1006  0.8578
              Bcc     0.0087     1.162     0.415     0.388  0.1712  0.9851 -0.0150
 
              Baa    -0.0214    -2.876    -1.026    -0.959 -0.5470  0.0048  0.8371
    40 C(13)  Bbb    -0.0193    -2.592    -0.925    -0.865  0.1512  0.9841  0.0932
              Bcc     0.0408     5.468     1.951     1.824  0.8234 -0.1776  0.5390
 
              Baa    -0.0014    -0.740    -0.264    -0.247 -0.5845  0.6888 -0.4288
    41 H(1)   Bbb    -0.0008    -0.440    -0.157    -0.147  0.6247  0.7193  0.3039
              Bcc     0.0022     1.181     0.421     0.394 -0.5178  0.0903  0.8507
 
              Baa    -0.0013    -0.696    -0.248    -0.232  0.8067 -0.0326  0.5901
    42 H(1)   Bbb    -0.0009    -0.478    -0.170    -0.159 -0.1792  0.9380  0.2968
              Bcc     0.0022     1.174     0.419     0.391 -0.5632 -0.3452  0.7508
 
              Baa    -0.0007    -0.390    -0.139    -0.130  0.8378 -0.2238  0.4979
    43 H(1)   Bbb     0.0000     0.023     0.008     0.008 -0.5455 -0.3767  0.7487
              Bcc     0.0007     0.367     0.131     0.122 -0.0200  0.8989  0.4377
 
              Baa    -0.0007    -0.393    -0.140    -0.131  0.8591 -0.2808  0.4280
    44 H(1)   Bbb    -0.0002    -0.128    -0.046    -0.043 -0.3480  0.2927  0.8906
              Bcc     0.0010     0.521     0.186     0.174  0.3753  0.9140 -0.1537
 
              Baa    -0.0027    -1.464    -0.522    -0.488 -0.5053 -0.0524  0.8613
    45 H(1)   Bbb    -0.0002    -0.133    -0.048    -0.044  0.8514 -0.1926  0.4878
              Bcc     0.0030     1.597     0.570     0.533  0.1403  0.9799  0.1420
 
              Baa    -0.3112   -12.003    -4.283    -4.004 -0.1500  0.9852 -0.0830
    46 N(14)  Bbb    -0.3102   -11.963    -4.269    -3.990  0.7182  0.1663  0.6757
              Bcc     0.6214    23.965     8.551     7.994 -0.6795 -0.0418  0.7325
 
              Baa    -0.0216    -2.902    -1.035    -0.968  0.1540  0.3355  0.9294
    47 C(13)  Bbb     0.0075     1.008     0.360     0.336  0.9757  0.0970 -0.1967
              Bcc     0.0141     1.894     0.676     0.632 -0.1561  0.9370 -0.3124
 
              Baa    -0.0337    -4.529    -1.616    -1.511  0.4537  0.8606 -0.2313
    48 C(13)  Bbb    -0.0292    -3.915    -1.397    -1.306  0.8682 -0.4854 -0.1032
              Bcc     0.0629     8.444     3.013     2.817  0.2011  0.1540  0.9674
 
              Baa    -0.0356    -4.776    -1.704    -1.593  0.8520 -0.5213  0.0478
    49 C(13)  Bbb    -0.0314    -4.218    -1.505    -1.407  0.4945  0.7716 -0.4002
              Bcc     0.0670     8.993     3.209     3.000  0.1717  0.3646  0.9152
 
              Baa    -0.0270    -3.624    -1.293    -1.209 -0.1100  0.2426  0.9639
    50 C(13)  Bbb     0.0120     1.616     0.577     0.539  0.9602  0.2766  0.0399
              Bcc     0.0150     2.008     0.717     0.670 -0.2569  0.9299 -0.2634
 
              Baa    -0.0294    -3.947    -1.408    -1.316 -0.0772  0.1685  0.9827
    51 C(13)  Bbb     0.0131     1.763     0.629     0.588  0.9152  0.4030  0.0028
              Bcc     0.0163     2.184     0.779     0.729 -0.3955  0.8996 -0.1853
 
              Baa    -0.0394    -5.289    -1.887    -1.764  0.9400  0.3346  0.0663
    52 C(13)  Bbb    -0.0354    -4.753    -1.696    -1.586 -0.3129  0.9233 -0.2225
              Bcc     0.0748    10.043     3.583     3.350 -0.1357  0.1884  0.9727
 
              Baa    -0.0026    -1.380    -0.492    -0.460 -0.2813  0.5729  0.7699
    53 H(1)   Bbb    -0.0015    -0.804    -0.287    -0.268 -0.3372  0.6921 -0.6382
              Bcc     0.0041     2.183     0.779     0.728  0.8984  0.4392  0.0015
 
              Baa    -0.0025    -1.360    -0.485    -0.454 -0.0144  0.0930  0.9956
    54 H(1)   Bbb    -0.0015    -0.811    -0.289    -0.270 -0.0287  0.9952 -0.0934
              Bcc     0.0041     2.171     0.775     0.724  0.9995  0.0299  0.0117
 
              Baa    -0.0014    -0.742    -0.265    -0.247  0.0058  0.2331  0.9724
    55 H(1)   Bbb     0.0000     0.023     0.008     0.008  0.9978 -0.0660  0.0098
              Bcc     0.0013     0.718     0.256     0.240  0.0665  0.9702 -0.2330
 
              Baa    -0.0015    -0.788    -0.281    -0.263  0.0245  0.2694  0.9627
    56 H(1)   Bbb    -0.0003    -0.137    -0.049    -0.046  0.8065  0.5637 -0.1782
              Bcc     0.0017     0.924     0.330     0.308 -0.5907  0.7808 -0.2035
 
              Baa    -0.0050    -2.679    -0.956    -0.894  0.9522  0.3029  0.0387
    57 H(1)   Bbb    -0.0005    -0.274    -0.098    -0.091 -0.1029  0.1990  0.9746
              Bcc     0.0055     2.954     1.054     0.985 -0.2875  0.9320 -0.2206
 
              Baa    -0.0223    -2.997    -1.069    -1.000  0.8157 -0.5771 -0.0409
    58 C(13)  Bbb     0.0076     1.019     0.364     0.340 -0.0782 -0.1800  0.9806
              Bcc     0.0147     1.977     0.706     0.660  0.5732  0.7966  0.1920
 
              Baa    -0.0343    -4.600    -1.641    -1.534  0.3907  0.8653 -0.3142
    59 C(13)  Bbb    -0.0299    -4.009    -1.431    -1.337  0.0938  0.3021  0.9486
              Bcc     0.0642     8.609     3.072     2.872  0.9157 -0.4001  0.0369
 
              Baa    -0.0347    -4.652    -1.660    -1.552  0.2488  0.2807  0.9270
    60 C(13)  Bbb    -0.0303    -4.066    -1.451    -1.356  0.5412  0.7534 -0.3734
              Bcc     0.0650     8.718     3.111     2.908  0.8032 -0.5946 -0.0356
 
              Baa    -0.0279    -3.739    -1.334    -1.247  0.8720 -0.4093 -0.2686
    61 C(13)  Bbb     0.0125     1.676     0.598     0.559  0.0540 -0.4649  0.8837
              Bcc     0.0154     2.064     0.736     0.688  0.4866  0.7851  0.3833
 
              Baa    -0.0284    -3.806    -1.358    -1.270  0.9117 -0.3392 -0.2320
    62 C(13)  Bbb     0.0126     1.689     0.603     0.563 -0.0001 -0.5646  0.8253
              Bcc     0.0158     2.117     0.756     0.706  0.4110  0.7524  0.5148
 
              Baa    -0.0399    -5.352    -1.910    -1.785  0.0544 -0.5372  0.8417
    63 C(13)  Bbb    -0.0359    -4.814    -1.718    -1.606  0.4525  0.7647  0.4588
              Bcc     0.0758    10.166     3.627     3.391  0.8901 -0.3559 -0.2847
 
              Baa    -0.0026    -1.374    -0.490    -0.458 -0.5422  0.6662  0.5120
    64 H(1)   Bbb    -0.0015    -0.788    -0.281    -0.263  0.8393  0.4003  0.3680
              Bcc     0.0041     2.162     0.772     0.721 -0.0402 -0.6293  0.7762
 
              Baa    -0.0024    -1.296    -0.462    -0.432  0.9734 -0.1535 -0.1699
    65 H(1)   Bbb    -0.0014    -0.747    -0.266    -0.249  0.1963  0.9413  0.2744
              Bcc     0.0038     2.042     0.729     0.681  0.1178 -0.3005  0.9465
 
              Baa    -0.0013    -0.720    -0.257    -0.240  0.8791 -0.4332 -0.1989
    66 H(1)   Bbb    -0.0001    -0.038    -0.014    -0.013  0.1258 -0.1918  0.9733
              Bcc     0.0014     0.758     0.270     0.253  0.4598  0.8807  0.1141
 
              Baa    -0.0014    -0.737    -0.263    -0.246  0.8523 -0.5056 -0.1337
    67 H(1)   Bbb    -0.0002    -0.091    -0.032    -0.030 -0.2842 -0.6624  0.6931
              Bcc     0.0016     0.828     0.295     0.276  0.4390  0.5528  0.7083
 
              Baa    -0.0051    -2.724    -0.972    -0.909  0.0284 -0.5108  0.8592
    68 H(1)   Bbb    -0.0005    -0.252    -0.090    -0.084  0.8883 -0.3814 -0.2561
              Bcc     0.0056     2.977     1.062     0.993  0.4585  0.7705  0.4429
 

 ---------------------------------------------------------------------------------

 No NMR shielding tensors so no spin-rotation constants.
 Leave Link  601 at Wed Jan 27 11:10:32 2021, MaxMem=  4026531840 cpu:              15.0 elap:               2.0
 (Enter /opt/ohpc/pub/libs/gaussian/g16-A.03/sandybridge/g16/l9999.exe)

 Test job not archived.
 1\1\GINC-CNODE210\SP\ULC-wHPBE\TZVP\C36H28N2S2(1+,2)\RDU230\27-Jan-202
 1\0\\#P LC-wHPBE/TZVP iop(3/107=0221900000, 3/108=0221900000) scf=(con
 ver=6,fermi,ndamp=35,noincfock,novaracc,vshift=500,xqc)\\H28 C36 S2 N2
 \\1,2\C,0,-2.604951,0.985352,-0.477595\C,0,-1.595468,1.227646,-1.39689
 7\S,0,-0.459746,2.557842,-1.073663\C,0,-1.509976,0.467226,-2.564163\C,
 0,1.043777,0.455726,-0.021717\C,0,1.03833,1.682104,-0.668307\C,0,-3.55
 7585,-0.001751,-0.697168\C,0,-2.447111,-0.539154,-2.764444\H,0,-0.5963
 18,-0.14267,-4.605045\C,0,2.238728,-0.147647,0.319798\C,0,2.246539,2.2
 97832,-0.961919\C,0,3.442101,1.694718,-0.621166\C,0,3.453096,0.46292,0
 .023837\H,0,2.234263,-1.106243,0.827797\H,0,2.253931,3.248348,-1.48634
 6\H,0,4.381679,2.178238,-0.866461\C,0,-3.461673,-0.764082,-1.856276\H,
 0,-2.646669,1.585519,0.424718\H,0,0.106936,-0.032641,0.224382\H,0,-2.4
 04245,-1.146243,-3.663282\H,0,-4.192893,-1.542008,-2.047877\S,0,-0.233
 558,0.817463,-3.737465\N,0,4.673686,-0.159547,0.368747\C,0,5.732508,0.
 612661,0.896564\C,0,7.045695,0.37796,0.499452\C,0,5.475865,1.622329,1.
 819567\C,0,8.078745,1.133154,1.024558\C,0,6.512871,2.384632,2.326214\C
 ,0,7.820306,2.143178,1.9369\H,0,7.251646,-0.403669,-0.22406\H,0,4.4548
 3,1.807304,2.136118\H,0,9.097402,0.93653,0.704866\H,0,6.295127,3.16901
 3,3.044416\H,0,8.632202,2.738403,2.341339\C,0,4.837054,-1.548147,0.168
 533\C,0,5.516065,-2.321618,1.105787\C,0,4.319017,-2.163542,-0.967486\C
 ,0,5.679987,-3.679833,0.902534\C,0,4.472338,-3.525567,-1.15401\C,0,5.1
 56657,-4.292005,-0.224805\H,0,5.917204,-1.848815,1.995947\H,0,3.79167,
 -1.566068,-1.703651\H,0,6.213214,-4.268058,1.642948\H,0,4.061647,-3.98
 973,-2.045325\H,0,5.281223,-5.35883,-0.377899\N,0,-4.591369,-0.225236,
 0.235572\C,0,-4.996809,-1.544618,0.539366\C,0,-6.345932,-1.849462,0.69
 3639\C,0,-4.053605,-2.557013,0.688173\C,0,-6.738551,-3.140118,0.998819
 \C,0,-4.45592,-3.848924,0.975713\C,0,-5.798707,-4.148587,1.137139\H,0,
 -7.085839,-1.064984,0.575406\H,0,-2.999778,-2.324624,0.576668\H,0,-7.7
 94748,-3.361033,1.117399\H,0,-3.707423,-4.627077,1.088273\H,0,-6.11071
 1,-5.161215,1.369943\C,0,-5.228462,0.872905,0.859345\C,0,-5.548183,0.8
 24769,2.212595\C,0,-5.541916,2.014931,0.129127\C,0,-6.178047,1.897088,
 2.818017\C,0,-6.155123,3.090236,0.746513\C,0,-6.481192,3.037227,2.0917
 54\H,0,-5.300925,-0.061617,2.787177\H,0,-5.299559,2.056134,-0.927579\H
 ,0,-6.421719,1.844307,3.874525\H,0,-6.390696,3.975287,0.163884\H,0,-6.
 967632,3.87989,2.571608\\Version=EM64L-G16RevA.03\State=2-A\HF=-2293.1
 594779\S2=0.767329\S2-1=0.\S2A=0.750268\RMSD=1.153e-08\Dipole=-2.18163
 86,-0.8548635,-0.0530113\Quadrupole=52.2213911,-20.4148708,-31.8065203
 ,3.0558435,-2.7307397,5.2535844\PG=C01 [X(C36H28N2S2)]\\@


 TO BEHOLD HARMS OF OUR OWN HANDS DOING,
 WHERE NONE BESIDE US WROUGHT,
 CAUSES SHARP RUING...

                                         SOPHOCLES
 Job cpu time:       0 days 15 hours 39 minutes 11.7 seconds.
 Elapsed time:       0 days  1 hours 58 minutes 41.2 seconds.
 File lengths (MBytes):  RWF=    464 Int=      0 D2E=      0 Chk=     68 Scr=      8
 Normal termination of Gaussian 16 at Wed Jan 27 11:10:32 2021.
