 Entering Gaussian System, Link 0=g16
 Input=mol_ta_cp_half_tune_n9.gjf
 Output=mol_ta_cp_half_tune_n9.log
 Initial command:
 /opt/ohpc/pub/libs/gaussian/g16-A.03/sandybridge/g16/l1.exe "/mnt/gpfs2_4m/scratch/rdu230/ondemand/projects/init_structures/gaussian/wtuning/mol_ta_cp_half/tuning_mol_ta_cp_half_ocycle0/Gau-15449.inp" -scrdir="/mnt/gpfs2_4m/scratch/rdu230/ondemand/projects/init_structures/gaussian/wtuning/mol_ta_cp_half/tuning_mol_ta_cp_half_ocycle0/"
 Entering Link 1 = /opt/ohpc/pub/libs/gaussian/g16-A.03/sandybridge/g16/l1.exe PID=     15450.
  
 Copyright (c) 1988,1990,1992,1993,1995,1998,2003,2009,2016,
            Gaussian, Inc.  All Rights Reserved.
  
 This is part of the Gaussian(R) 16 program.  It is based on
 the Gaussian(R) 09 system (copyright 2009, Gaussian, Inc.),
 the Gaussian(R) 03 system (copyright 2003, Gaussian, Inc.),
 the Gaussian(R) 98 system (copyright 1998, Gaussian, Inc.),
 the Gaussian(R) 94 system (copyright 1995, Gaussian, Inc.),
 the Gaussian 92(TM) system (copyright 1992, Gaussian, Inc.),
 the Gaussian 90(TM) system (copyright 1990, Gaussian, Inc.),
 the Gaussian 88(TM) system (copyright 1988, Gaussian, Inc.),
 the Gaussian 86(TM) system (copyright 1986, Carnegie Mellon
 University), and the Gaussian 82(TM) system (copyright 1983,
 Carnegie Mellon University). Gaussian is a federally registered
 trademark of Gaussian, Inc.
  
 This software contains proprietary and confidential information,
 including trade secrets, belonging to Gaussian, Inc.
  
 This software is provided under written license and may be
 used, copied, transmitted, or stored only in accord with that
 written license.
  
 The following legend is applicable only to US Government
 contracts under FAR:
  
                    RESTRICTED RIGHTS LEGEND
  
 Use, reproduction and disclosure by the US Government is
 subject to restrictions as set forth in subparagraphs (a)
 and (c) of the Commercial Computer Software - Restricted
 Rights clause in FAR 52.227-19.
  
 Gaussian, Inc.
 340 Quinnipiac St., Bldg. 40, Wallingford CT 06492
  
  
 ---------------------------------------------------------------
 Warning -- This program may not be used in any manner that
 competes with the business of Gaussian, Inc. or will provide
 assistance to any competitor of Gaussian, Inc.  The licensee
 of this program is prohibited from giving any competitor of
 Gaussian, Inc. access to this program.  By using this program,
 the user acknowledges that Gaussian, Inc. is engaged in the
 business of creating and licensing software in the field of
 computational chemistry and represents and warrants to the
 licensee that it is not a competitor of Gaussian, Inc. and that
 it will not use this program in any manner prohibited above.
 ---------------------------------------------------------------
  

 Cite this work as:
 Gaussian 16, Revision A.03,
 M. J. Frisch, G. W. Trucks, H. B. Schlegel, G. E. Scuseria, 
 M. A. Robb, J. R. Cheeseman, G. Scalmani, V. Barone, 
 G. A. Petersson, H. Nakatsuji, X. Li, M. Caricato, A. V. Marenich, 
 J. Bloino, B. G. Janesko, R. Gomperts, B. Mennucci, H. P. Hratchian, 
 J. V. Ortiz, A. F. Izmaylov, J. L. Sonnenberg, D. Williams-Young, 
 F. Ding, F. Lipparini, F. Egidi, J. Goings, B. Peng, A. Petrone, 
 T. Henderson, D. Ranasinghe, V. G. Zakrzewski, J. Gao, N. Rega, 
 G. Zheng, W. Liang, M. Hada, M. Ehara, K. Toyota, R. Fukuda, 
 J. Hasegawa, M. Ishida, T. Nakajima, Y. Honda, O. Kitao, H. Nakai, 
 T. Vreven, K. Throssell, J. A. Montgomery, Jr., J. E. Peralta, 
 F. Ogliaro, M. J. Bearpark, J. J. Heyd, E. N. Brothers, K. N. Kudin, 
 V. N. Staroverov, T. A. Keith, R. Kobayashi, J. Normand, 
 K. Raghavachari, A. P. Rendell, J. C. Burant, S. S. Iyengar, 
 J. Tomasi, M. Cossi, J. M. Millam, M. Klene, C. Adamo, R. Cammi, 
 J. W. Ochterski, R. L. Martin, K. Morokuma, O. Farkas, 
 J. B. Foresman, and D. J. Fox, Gaussian, Inc., Wallingford CT, 2016.
 
 ******************************************
 Gaussian 16:  EM64L-G16RevA.03 25-Dec-2016
                26-Jan-2021 
 ******************************************
 %mem=30GB
 %nproc=8
 Will use up to    8 processors via shared memory.
 ----------------------------------------------------------------------
 #P LC-wHPBE/TZVP iop(3/107=0173900000, 3/108=0173900000) scf=(conver=6
 ,fermi,ndamp=35,noincfock,novaracc,vshift=500,xqc)
 ----------------------------------------------------------------------
 1/38=1,172=1/1;
 2/12=2,17=6,18=5,40=1/2;
 3/5=19,7=101,11=2,25=1,30=1,74=-71,107=173900000,108=173900000/1,2,3;
 4//1;
 5/5=100002,6=6,8=3,10=500,13=1,18=-1,22=13,38=1,93=35/2,8;
 6/7=2,8=2,9=2,10=2,28=1/1;
 99/5=1,9=1/99;
 Leave Link    1 at Tue Jan 26 22:43:51 2021, MaxMem=  4026531840 cpu:               1.6 elap:               0.2
 (Enter /opt/ohpc/pub/libs/gaussian/g16-A.03/sandybridge/g16/l101.exe)
 -------------
 H21 C19 S2 N2
 -------------
 Symbolic Z-matrix:
 Charge =  1 Multiplicity = 1
 C                     5.14133   0.34145  -1.42865 
 C                     4.24633   0.79311  -0.45792 
 S                     3.52743   2.43824  -0.61293 
 C                     3.85258  -0.0852    0.57041 
 C                     0.86371  -0.78743   0.77082 
 C                     1.15259  -1.94954   0.29261 
 C                     5.64145  -0.96371  -1.38032 
 C                     4.33797  -1.39727   0.6117 
 H                     2.80575  -0.53669   2.62066 
 C                    -0.32759  -0.10492   0.75724 
 C                     0.16105  -2.70927  -0.33662 
 C                    -1.11055  -2.12504  -0.41653 
 C                    -1.36656  -0.83681   0.11614 
 H                    -0.50636   0.87639   1.20314 
 H                     0.33363  -3.70157  -0.76059 
 H                    -1.91554  -2.65653  -0.93018 
 C                     5.24214  -1.8276   -0.36315 
 H                     5.45089   1.02542  -2.21936 
 H                     4.15948   2.9901    0.46088 
 H                     6.34791  -1.29889  -2.14055 
 H                     4.02291  -2.07784   1.40256 
 H                     5.62592  -2.84765  -0.32369 
 S                     2.64164   0.49      1.74144 
 C                    -2.68065  -0.2575    0.00376 
 C                    -4.05427  -0.41399  -0.1325 
 C                    -3.48988   0.87017  -0.05216 
 N                    -5.09974  -1.2118   -0.24314 
 N                    -3.60739   2.18509  -0.04989 
 C                    -4.95887  -2.66296  -0.08688 
 H                    -5.24939  -3.17506  -1.01565 
 H                    -3.92191  -2.91121   0.15919 
 H                    -5.60706  -3.01164   0.73011 
 C                    -6.4563   -0.70851  -0.46315 
 H                    -6.9323   -1.28977  -1.26504 
 H                    -7.06234  -0.80464   0.45045 
 H                    -6.42414   0.34019  -0.77413 
 C                    -2.42252   3.04702  -0.1047 
 H                    -2.37423   3.6831    0.79104 
 H                    -1.51817   2.4341   -0.16853 
 H                    -2.47281   3.68971  -0.99563 
 C                    -4.90595   2.85982  -0.07161 
 H                    -4.90342   3.67179   0.66866 
 H                    -5.10914   3.28812  -1.06491 
 H                    -5.70105   2.15692   0.1956 
 
 ITRead=  0  0  0  0  0  0  0  0  0  0  0  0  0  0  0  0  0  0  0  0
 ITRead=  0  0  0  0  0  0  0  0  0  0  0  0  0  0  0  0  0  0  0  0
 ITRead=  0  0  0  0
 MicOpt= -1 -1 -1 -1 -1 -1 -1 -1 -1 -1 -1 -1 -1 -1 -1 -1 -1 -1 -1 -1
 MicOpt= -1 -1 -1 -1 -1 -1 -1 -1 -1 -1 -1 -1 -1 -1 -1 -1 -1 -1 -1 -1
 MicOpt= -1 -1 -1 -1
 NAtoms=     44 NQM=       44 NQMF=       0 NMMI=      0 NMMIF=      0
                NMic=       0 NMicF=      0.
                    Isotopes and Nuclear Properties:
 (Nuclear quadrupole moments (NQMom) in fm**2, nuclear magnetic moments (NMagM)
  in nuclear magnetons)

  Atom         1           2           3           4           5           6           7           8           9          10
 IAtWgt=          12          12          32          12          12          12          12          12           1          12
 AtmWgt=  12.0000000  12.0000000  31.9720718  12.0000000  12.0000000  12.0000000  12.0000000  12.0000000   1.0078250  12.0000000
 NucSpn=           0           0           0           0           0           0           0           0           1           0
 AtZEff=  -0.0000000  -0.0000000  -0.0000000  -0.0000000  -0.0000000  -0.0000000  -0.0000000  -0.0000000  -0.0000000  -0.0000000
 NQMom=    0.0000000   0.0000000   0.0000000   0.0000000   0.0000000   0.0000000   0.0000000   0.0000000   0.0000000   0.0000000
 NMagM=    0.0000000   0.0000000   0.0000000   0.0000000   0.0000000   0.0000000   0.0000000   0.0000000   2.7928460   0.0000000
 AtZNuc=   6.0000000   6.0000000  16.0000000   6.0000000   6.0000000   6.0000000   6.0000000   6.0000000   1.0000000   6.0000000

  Atom        11          12          13          14          15          16          17          18          19          20
 IAtWgt=          12          12          12           1           1           1          12           1           1           1
 AtmWgt=  12.0000000  12.0000000  12.0000000   1.0078250   1.0078250   1.0078250  12.0000000   1.0078250   1.0078250   1.0078250
 NucSpn=           0           0           0           1           1           1           0           1           1           1
 AtZEff=  -0.0000000  -0.0000000  -0.0000000  -0.0000000  -0.0000000  -0.0000000  -0.0000000  -0.0000000  -0.0000000  -0.0000000
 NQMom=    0.0000000   0.0000000   0.0000000   0.0000000   0.0000000   0.0000000   0.0000000   0.0000000   0.0000000   0.0000000
 NMagM=    0.0000000   0.0000000   0.0000000   2.7928460   2.7928460   2.7928460   0.0000000   2.7928460   2.7928460   2.7928460
 AtZNuc=   6.0000000   6.0000000   6.0000000   1.0000000   1.0000000   1.0000000   6.0000000   1.0000000   1.0000000   1.0000000

  Atom        21          22          23          24          25          26          27          28          29          30
 IAtWgt=           1           1          32          12          12          12          14          14          12           1
 AtmWgt=   1.0078250   1.0078250  31.9720718  12.0000000  12.0000000  12.0000000  14.0030740  14.0030740  12.0000000   1.0078250
 NucSpn=           1           1           0           0           0           0           2           2           0           1
 AtZEff=  -0.0000000  -0.0000000  -0.0000000  -0.0000000  -0.0000000  -0.0000000  -0.0000000  -0.0000000  -0.0000000  -0.0000000
 NQMom=    0.0000000   0.0000000   0.0000000   0.0000000   0.0000000   0.0000000   2.0440000   2.0440000   0.0000000   0.0000000
 NMagM=    2.7928460   2.7928460   0.0000000   0.0000000   0.0000000   0.0000000   0.4037610   0.4037610   0.0000000   2.7928460
 AtZNuc=   1.0000000   1.0000000  16.0000000   6.0000000   6.0000000   6.0000000   7.0000000   7.0000000   6.0000000   1.0000000

  Atom        31          32          33          34          35          36          37          38          39          40
 IAtWgt=           1           1          12           1           1           1          12           1           1           1
 AtmWgt=   1.0078250   1.0078250  12.0000000   1.0078250   1.0078250   1.0078250  12.0000000   1.0078250   1.0078250   1.0078250
 NucSpn=           1           1           0           1           1           1           0           1           1           1
 AtZEff=  -0.0000000  -0.0000000  -0.0000000  -0.0000000  -0.0000000  -0.0000000  -0.0000000  -0.0000000  -0.0000000  -0.0000000
 NQMom=    0.0000000   0.0000000   0.0000000   0.0000000   0.0000000   0.0000000   0.0000000   0.0000000   0.0000000   0.0000000
 NMagM=    2.7928460   2.7928460   0.0000000   2.7928460   2.7928460   2.7928460   0.0000000   2.7928460   2.7928460   2.7928460
 AtZNuc=   1.0000000   1.0000000   6.0000000   1.0000000   1.0000000   1.0000000   6.0000000   1.0000000   1.0000000   1.0000000

  Atom        41          42          43          44
 IAtWgt=          12           1           1           1
 AtmWgt=  12.0000000   1.0078250   1.0078250   1.0078250
 NucSpn=           0           1           1           1
 AtZEff=  -0.0000000  -0.0000000  -0.0000000  -0.0000000
 NQMom=    0.0000000   0.0000000   0.0000000   0.0000000
 NMagM=    0.0000000   2.7928460   2.7928460   2.7928460
 AtZNuc=   6.0000000   1.0000000   1.0000000   1.0000000
 Leave Link  101 at Tue Jan 26 22:43:51 2021, MaxMem=  4026531840 cpu:               0.8 elap:               0.1
 (Enter /opt/ohpc/pub/libs/gaussian/g16-A.03/sandybridge/g16/l202.exe)
                          Input orientation:                          
 ---------------------------------------------------------------------
 Center     Atomic      Atomic             Coordinates (Angstroms)
 Number     Number       Type             X           Y           Z
 ---------------------------------------------------------------------
      1          6           0        5.141333    0.341453   -1.428653
      2          6           0        4.246330    0.793113   -0.457920
      3         16           0        3.527427    2.438238   -0.612926
      4          6           0        3.852580   -0.085202    0.570411
      5          6           0        0.863708   -0.787434    0.770822
      6          6           0        1.152588   -1.949541    0.292605
      7          6           0        5.641454   -0.963707   -1.380320
      8          6           0        4.337968   -1.397272    0.611701
      9          1           0        2.805747   -0.536686    2.620663
     10          6           0       -0.327590   -0.104924    0.757243
     11          6           0        0.161049   -2.709273   -0.336618
     12          6           0       -1.110551   -2.125038   -0.416532
     13          6           0       -1.366563   -0.836811    0.116144
     14          1           0       -0.506361    0.876389    1.203135
     15          1           0        0.333628   -3.701573   -0.760587
     16          1           0       -1.915541   -2.656529   -0.930176
     17          6           0        5.242141   -1.827604   -0.363151
     18          1           0        5.450891    1.025420   -2.219360
     19          1           0        4.159480    2.990100    0.460876
     20          1           0        6.347910   -1.298886   -2.140548
     21          1           0        4.022912   -2.077842    1.402557
     22          1           0        5.625918   -2.847650   -0.323690
     23         16           0        2.641644    0.489998    1.741439
     24          6           0       -2.680648   -0.257498    0.003764
     25          6           0       -4.054270   -0.413992   -0.132503
     26          6           0       -3.489875    0.870167   -0.052158
     27          7           0       -5.099740   -1.211802   -0.243141
     28          7           0       -3.607387    2.185094   -0.049886
     29          6           0       -4.958870   -2.662960   -0.086881
     30          1           0       -5.249390   -3.175063   -1.015650
     31          1           0       -3.921906   -2.911213    0.159186
     32          1           0       -5.607057   -3.011636    0.730112
     33          6           0       -6.456302   -0.708508   -0.463149
     34          1           0       -6.932296   -1.289768   -1.265044
     35          1           0       -7.062340   -0.804638    0.450448
     36          1           0       -6.424137    0.340187   -0.774131
     37          6           0       -2.422516    3.047015   -0.104701
     38          1           0       -2.374233    3.683098    0.791036
     39          1           0       -1.518165    2.434104   -0.168534
     40          1           0       -2.472812    3.689712   -0.995626
     41          6           0       -4.905946    2.859820   -0.071613
     42          1           0       -4.903422    3.671788    0.668659
     43          1           0       -5.109136    3.288120   -1.064906
     44          1           0       -5.701050    2.156915    0.195603
 ---------------------------------------------------------------------
                    Distance matrix (angstroms):
                    1          2          3          4          5
     1  C    0.000000
     2  C    1.395475   0.000000
     3  S    2.768864   1.802022   0.000000
     4  C    2.416439   1.408524   2.806022   0.000000
     5  C    4.940663   3.930657   4.406259   3.076792   0.000000
     6  C    4.911361   4.201985   5.070745   3.292855   1.289432
     7  C    1.398535   2.425615   4.078141   2.788762   5.242646
     8  C    2.798500   2.439318   4.107046   1.399584   3.530964
     9  H    4.756369   3.649838   4.452762   2.345897   2.693752
    10  C    5.906481   4.817036   4.817281   4.184390   1.373024
    11  C    5.941607   5.382466   6.156762   4.619075   2.326718
    12  C    6.796618   6.100286   6.509447   5.455974   2.663962
    13  C    6.791717   5.872884   5.933686   5.292516   2.324898
    14  H    6.253712   5.035287   4.691364   4.508366   2.198247
    15  H    6.317151   5.966829   6.922387   5.218498   3.334427
    16  H    7.683479   7.077550   7.462118   6.491125   3.756479
    17  C    2.418732   2.805134   4.604350   2.416275   4.640962
    18  H    1.090346   2.146533   2.876873   3.401603   5.768004
    19  H    3.398483   2.382956   1.362752   3.092518   5.022743
    20  H    2.157159   3.409448   4.924921   3.879304   6.230099
    21  H    3.888393   3.428363   4.970177   2.166124   3.470564
    22  H    3.409713   3.895695   5.694553   3.402244   5.302932
    23  S    4.039801   2.739357   3.181711   1.780036   2.394783
    24  C    7.974581   7.021393   6.796138   6.560019   3.664924
    25  C    9.317179   8.394222   8.114687   7.944839   5.014176
    26  C    8.756257   7.747222   7.212200   7.430476   4.730605
    27  N   10.425815   9.561111   9.374836   9.059532   6.063903
    28  N    9.046553   7.986550   7.161471   7.822411   5.431406
    29  C   10.622662   9.839605   9.915452   9.204266   6.177027
    30  H   10.977412  10.306609  10.426114   9.742109   6.801634
    31  H    9.759271   8.990157   9.203551   8.282396   5.271303
    32  H   11.464352  10.629053  10.721179   9.903245   6.842480
    33  C   11.685023  10.807462  10.468968  10.379297   7.423709
    34  H   12.184423  11.399628  11.123358  11.006063   8.073089
    35  H   12.400572  11.457048  11.126103  10.939262   7.932539
    36  H   11.583976  10.684755  10.171599  10.373026   7.534659
    37  C    8.141543   7.048287   6.002560   7.045807   5.125311
    38  H    8.519234   7.331013   6.192768   7.281618   5.519993
    39  H    7.093377   6.000500   5.065126   5.978114   4.115096
    40  H    8.329079   7.336640   6.141296   7.530806   5.856410
    41  C   10.446604   9.390669   8.461237   9.262674   6.877577
    42  H   10.788278   9.657842   8.616456   9.528494   7.290740
    43  H   10.671798   9.701455   8.690041   9.714212   7.460221
    44  H   11.112667  10.061681   9.268098   9.820357   7.217764
                    6          7          8          9         10
     6  C    0.000000
     7  C    4.890855   0.000000
     8  C    3.248610   2.419752   0.000000
     9  H    3.185741   4.922545   2.669127   0.000000
    10  C    2.410275   6.398138   4.843426   3.671043   0.000000
    11  C    1.398665   5.845610   4.479655   4.523281   2.866694
    12  C    2.378124   6.918609   5.592251   5.204306   2.464069
    13  C    2.759607   7.167134   5.753379   4.875537   1.423422
    14  H    3.401038   6.917790   5.383944   3.869913   1.092590
    15  H    2.202164   6.004415   4.819514   5.249832   3.959407
    16  H    3.377638   7.757348   6.562735   6.276365   3.446688
    17  C    4.143589   1.392983   1.397516   4.062712   5.936734
    18  H    5.799635   2.167240   3.888823   5.732607   6.597627
    19  H    5.785306   4.606391   4.393591   4.351493   5.459011
    20  H    5.773643   1.090583   3.409461   5.983059   7.374621
    21  H    3.080132   3.406667   1.089903   2.310938   4.820343
    22  H    4.604031   2.160081   2.153455   4.686484   6.643434
    23  S    3.204334   4.567001   2.777699   1.361633   3.184168
    24  C    4.200016   8.465920   7.136501   6.084952   2.475458
    25  C    5.445181   9.791134   8.482354   7.392889   3.843867
    26  C    5.442617   9.407884   8.176620   6.982697   3.406755
    27  N    6.318456  10.804072   9.478158   8.435276   4.999936
    28  N    6.314259   9.860328   8.740693   7.461113   4.080773
    29  C    6.164649  10.813293   9.408569   8.493592   5.357691
    30  H    6.648215  11.119063   9.885659   9.223288   6.065725
    31  H    5.166537   9.880319   8.409656   7.547090   4.599134
    32  H    6.856549  11.626562  10.075898   8.970777   6.026814
    33  C    7.746388  12.135157  10.869497   9.763451   6.278119
    34  H    8.259959  12.578505  11.425961  10.511676   7.008255
    35  H    8.295828  12.836019  11.416840  10.107461   6.777948
    36  H    7.986710  12.150971  10.989186   9.873413   6.301676
    37  C    6.156687   9.096192   8.122134   6.899656   3.881544
    38  H    6.664347   9.516240   8.419974   6.927215   4.305694
    39  H    5.153825   8.017087   7.041484   5.941500   2.953167
    40  H    6.826730   9.361817   8.651453   7.668323   4.698275
    41  C    7.743929  11.295119  10.199985   8.846175   5.517069
    42  H    8.271397  11.699596  10.540489   8.997381   5.933771
    43  H    8.275573  11.565150  10.677625   9.531943   6.139720
    44  H    7.990291  11.869044  10.657733   9.246729   5.857084
                   11         12         13         14         15
    11  C    0.000000
    12  C    1.401672   0.000000
    13  C    2.458598   1.417327   0.000000
    14  H    3.958945   3.463659   2.203758   0.000000
    15  H    1.092791   2.165523   3.444730   5.051685   0.000000
    16  H    2.160398   1.092850   2.169686   4.360999   2.485888
    17  C    5.157086   6.359875   6.699729   6.542943   5.269081
    18  H    6.743521   7.498540   7.443129   6.872011   7.117504
    19  H    7.007589   7.396466   6.730620   5.175789   7.804332
    20  H    6.597015   7.699571   8.051041   7.930515   6.621842
    21  H    4.282221   5.446444   5.678156   5.411244   4.574550
    22  H    5.466636   6.775751   7.289151   7.335156   5.378513
    23  S    4.550495   5.057096   4.524127   3.216987   5.399661
    24  C    3.768594   2.475795   1.440504   2.729783   4.640231
    25  C    4.804050   3.416699   2.732100   4.004581   5.518725
    26  C    5.120796   3.842552   2.729570   3.236843   6.001821
    27  N    5.470563   4.096058   3.769126   5.248941   5.999016
    28  N    6.183701   4.994583   3.765736   3.591536   7.119659
    29  C    5.126215   3.899691   4.034936   5.832321   5.435359
    30  H    5.472741   4.311784   4.671694   6.620694   5.613587
    31  H    4.117903   2.975439   3.291622   5.205930   4.424954
    32  H    5.873703   4.724343   4.805061   6.430987   6.163598
    33  C    6.914362   5.530442   5.124206   6.378887   7.426308
    34  H    7.293320   5.942252   5.752411   7.216425   7.672349
    35  H    7.511621   6.157833   5.705670   6.809791   8.034873
    36  H    7.270165   5.868510   5.268488   6.262361   7.874223
    37  C    6.313750   5.344962   4.030870   3.177059   7.319150
    38  H    6.968620   6.065440   4.679792   3.396526   8.017070
    39  H    5.413163   4.584041   3.286778   2.309047   6.436319
    40  H    6.951153   6.000202   4.790535   4.076305   7.909642
    41  C    7.533888   6.274775   5.121286   4.991526   8.424945
    42  H    8.208373   7.011897   5.756918   5.237754   9.156194
    43  H    8.017105   6.761017   5.693574   5.669744   8.864090
    44  H    7.637228   6.307338   5.268443   5.444232   8.464840
                   16         17         18         19         20
    16  H    0.000000
    17  C    7.227797   0.000000
    18  H    8.335650   3.410108   0.000000
    19  H    8.409835   5.006141   3.565302   0.000000
    20  H    8.461254   2.159029   2.492640   5.472845   0.000000
    21  H    6.406383   2.160292   4.978719   5.156496   4.308826
    22  H    7.568220   1.090567   4.315654   6.070034   2.494176
    23  S    6.148666   4.069787   4.885333   3.192832   5.657414
    24  C    2.685700   8.085199   8.527021   7.585723   9.337956
    25  C    3.199909   9.406102   9.837427   8.910984  10.631116
    26  C    3.960685   9.144550   9.200987   7.954241  10.288254
    27  N    3.563478  10.360894  10.964781  10.192388  11.604156
    28  N    5.203707   9.721832   9.386366   7.825160  10.752531
    29  C    3.158012  10.238885  11.247877  10.742506  11.572447
    30  H    3.375016  10.597812  11.558070  11.345316  11.801814
    31  H    2.297188   9.242662  10.440493  10.011259  10.646948
    32  H    4.063243  10.968238  12.135708  11.466410  12.413518
    33  C    4.963004  11.752274  12.160264  11.279555  12.927106
    34  H    5.210375  12.219640  12.633849  12.013474  13.309037
    35  H    5.641380  12.373708  12.925089  11.846071  13.667200
    36  H    5.415911  11.873090  11.982259  10.979992  12.949086
    37  C    5.785227   9.087116   8.399355   6.606496   9.997595
    38  H    6.585123   9.471491   8.795357   6.578652  10.463753
    39  H    5.162611   7.993858   7.399866   5.739420   8.927440
    40  H    6.370998   9.505856   8.448730   6.826284  10.198142
    41  C    6.333227  11.182156  10.735079   9.081986  12.174753
    42  H    7.178531  11.586216  11.070488   9.090878  12.617120
    43  H    6.749522  11.567715  10.861250   9.398089  12.387959
    44  H    6.226291  11.659418  11.466391   9.899223  12.750592
                   21         22         23         24         25
    21  H    0.000000
    22  H    2.478338   0.000000
    23  S    2.935395   4.930572   0.000000
    24  C    7.085760   8.707190   5.648456   0.000000
    25  C    8.388425   9.983250   7.011713   1.389207   0.000000
    26  C    8.200544   9.848532   6.399769   1.389102   1.405013
    27  N    9.310270  10.849987   8.170906   2.612214   1.319753
    28  N    8.860230  10.519382   6.718079   2.613040   2.638518
    29  C    9.123223  10.589047   8.429218   3.314326   2.424508
    30  H    9.645061  10.902217   9.127027   4.018685   3.135566
    31  H    8.084591   9.560238   7.559891   2.933783   2.517681
    32  H    9.698477  11.283489   9.018054   4.083715   3.146904
    33  C   10.731722  12.270918   9.437650   3.831055   2.442504
    34  H   11.302820  12.689440  10.191508   4.555433   3.214447
    35  H   11.198677  12.874979   9.874717   4.438256   3.088838
    36  H   10.941922  12.472731   9.409512   3.869891   2.568412
    37  C    8.371352   9.978593   5.965927   3.316354   3.826482
    38  H    8.630519  10.387285   6.021476   4.030135   4.523449
    39  H    7.316387   8.885883   4.973083   2.936967   3.813762
    40  H    9.011681  10.429671   6.624753   4.077063   4.481783
    41  C   10.309131  11.981607   8.115992   3.830836   3.383327
    42  H   10.643133  12.423962   8.258491   4.563124   4.249296
    43  H   10.875487  12.387028   8.705151   4.428433   3.960777
    44  H   10.674518  12.394174   8.646893   3.871566   3.070684
                   26         27         28         29         30
    26  C    0.000000
    27  N    2.638699   0.000000
    28  N    1.320169   3.715288   0.000000
    29  C    3.826505   1.466329   5.033041   0.000000
    30  H    4.515318   2.115079   5.688599   1.099665   0.000000
    31  H    3.811844   2.106456   5.110282   1.094291   1.792225
    32  H    4.490301   2.108078   5.622551   1.099636   1.789502
    33  C    3.385383   1.463547   4.081671   2.490735   2.801033
    34  H    4.241070   2.099673   4.960473   2.677337   2.539430
    35  H    3.977448   2.121001   4.596252   2.857738   3.324928
    36  H    3.067901   2.108233   3.444168   3.411482   3.714208
    37  C    2.425012   5.032317   1.466230   6.247978   6.894585
    38  H    3.141371   5.697188   2.114671   6.908223   7.652778
    39  H    2.519342   5.111348   2.107352   6.150218   6.789875
    40  H    3.142353   5.611758   2.108450   6.882060   7.405061
    41  C    2.442203   4.079839   1.463551   5.523055   6.117922
    42  H    3.219747   4.971858   2.099112   6.379886   7.059459
    43  H    3.081260   4.574351   2.121835   6.032783   6.464892
    44  H    2.570292   3.449975   2.108194   4.884857   5.486449
                   31         32         33         34         35
    31  H    0.000000
    32  H    1.782070   0.000000
    33  C    3.415022   2.729375   0.000000
    34  H    3.704047   2.949870   1.098849   0.000000
    35  H    3.792732   2.658364   1.100537   1.787505   0.000000
    36  H    4.207593   3.763653   1.094306   1.776506   1.793745
    37  C    6.149658   6.895322   5.523031   6.363348   6.055691
    38  H    6.802901   7.434671   6.125559   7.052149   6.498778
    39  H    5.870075   6.868965   5.860717   6.662010   6.450617
    40  H    6.856068   7.596692   5.957857   6.689903   6.584381
    41  C    5.858876   5.967270   3.910226   4.769639   4.283787
    42  H    6.675241   6.720642   4.783244   5.698471   4.974629
    43  H    6.429591   6.569394   4.260282   4.931635   4.781419
    44  H    5.371462   5.196966   3.035623   3.940695   3.269381
                   36         37         38         39         40
    36  H    0.000000
    37  C    4.877297   0.000000
    38  H    5.479646   1.099672   0.000000
    39  H    5.368407   1.094342   1.792655   0.000000
    40  H    5.184722   1.099698   1.789392   1.781006   0.000000
    41  C    3.024398   2.490695   2.798485   3.415800   2.731787
    42  H    3.936214   2.672699   2.532173   3.700367   2.945850
    43  H    3.241001   2.863224   3.328697   3.798407   2.667636
    44  H    2.182599   3.410461   3.708300   4.207845   3.766963
                   41         42         43         44
    41  C    0.000000
    42  H    1.098773   0.000000
    43  H    1.100617   1.787391   0.000000
    44  H    1.094381   1.776185   1.794121   0.000000
 Stoichiometry    C19H21N2S2(1+)
 Framework group  C1[X(C19H21N2S2)]
 Deg. of freedom   126
 Full point group                 C1      NOp   1
 Largest Abelian subgroup         C1      NOp   1
 Largest concise Abelian subgroup C1      NOp   1
                         Standard orientation:                         
 ---------------------------------------------------------------------
 Center     Atomic      Atomic             Coordinates (Angstroms)
 Number     Number       Type             X           Y           Z
 ---------------------------------------------------------------------
      1          6           0        5.141333    0.341453   -1.428653
      2          6           0        4.246330    0.793113   -0.457920
      3         16           0        3.527427    2.438238   -0.612926
      4          6           0        3.852580   -0.085202    0.570411
      5          6           0        0.863708   -0.787434    0.770822
      6          6           0        1.152588   -1.949541    0.292605
      7          6           0        5.641454   -0.963707   -1.380320
      8          6           0        4.337968   -1.397272    0.611701
      9          1           0        2.805747   -0.536686    2.620663
     10          6           0       -0.327590   -0.104924    0.757243
     11          6           0        0.161049   -2.709273   -0.336618
     12          6           0       -1.110551   -2.125038   -0.416532
     13          6           0       -1.366563   -0.836811    0.116144
     14          1           0       -0.506361    0.876389    1.203135
     15          1           0        0.333628   -3.701573   -0.760587
     16          1           0       -1.915541   -2.656529   -0.930176
     17          6           0        5.242141   -1.827604   -0.363151
     18          1           0        5.450891    1.025420   -2.219360
     19          1           0        4.159480    2.990100    0.460876
     20          1           0        6.347910   -1.298886   -2.140548
     21          1           0        4.022912   -2.077842    1.402557
     22          1           0        5.625918   -2.847650   -0.323690
     23         16           0        2.641644    0.489998    1.741439
     24          6           0       -2.680648   -0.257498    0.003764
     25          6           0       -4.054270   -0.413992   -0.132503
     26          6           0       -3.489875    0.870167   -0.052158
     27          7           0       -5.099740   -1.211802   -0.243141
     28          7           0       -3.607387    2.185094   -0.049886
     29          6           0       -4.958870   -2.662960   -0.086881
     30          1           0       -5.249390   -3.175063   -1.015650
     31          1           0       -3.921906   -2.911213    0.159186
     32          1           0       -5.607057   -3.011636    0.730112
     33          6           0       -6.456302   -0.708508   -0.463149
     34          1           0       -6.932296   -1.289768   -1.265044
     35          1           0       -7.062340   -0.804638    0.450448
     36          1           0       -6.424137    0.340187   -0.774131
     37          6           0       -2.422516    3.047015   -0.104701
     38          1           0       -2.374233    3.683098    0.791036
     39          1           0       -1.518165    2.434104   -0.168534
     40          1           0       -2.472812    3.689712   -0.995626
     41          6           0       -4.905946    2.859820   -0.071613
     42          1           0       -4.903422    3.671788    0.668659
     43          1           0       -5.109136    3.288120   -1.064906
     44          1           0       -5.701050    2.156915    0.195603
 ---------------------------------------------------------------------
 Rotational constants (GHZ):           0.4060159           0.0982633           0.0849802
 Leave Link  202 at Tue Jan 26 22:43:51 2021, MaxMem=  4026531840 cpu:               0.3 elap:               0.1
 (Enter /opt/ohpc/pub/libs/gaussian/g16-A.03/sandybridge/g16/l301.exe)
 Standard basis: TZVP (5D, 7F)
 Ernie: Thresh=  0.10000D-02 Tol=  0.10000D-05 Strict=F.
 There are   592 symmetry adapted cartesian basis functions of A   symmetry.
 There are   569 symmetry adapted basis functions of A   symmetry.
   569 basis functions,   997 primitive gaussians,   592 cartesian basis functions
    90 alpha electrons       90 beta electrons
       nuclear repulsion energy      2022.4848436690 Hartrees.
 IExCor=33909 DFT=T Ex+Corr=LC-wHPBE ExCW=0 ScaHFX=  1.000000
 ScaDFX=  1.000000  1.000000  1.000000  1.000000 ScalE2=  1.000000  1.000000
 IRadAn=      5 IRanWt=     -1 IRanGd=            0 ICorTp=0 IEmpDi=  4
 HFx  wShort=  0.000000 wLong=  0.173900 cFull=  0.000000 cShort=  0.000000 cLong=  1.000000
 DFx  wShort=  0.000000 wLong=  0.173900 cFull=  0.000000 cShort=  1.000000 cLong=  0.000000
 NAtoms=   44 NActive=   44 NUniq=   44 SFac= 1.00D+00 NAtFMM=   60 NAOKFM=F Big=F
 Integral buffers will be    131072 words long.
 Raffenetti 2 integral format.
 Two-electron integral symmetry is turned on.
 Leave Link  301 at Tue Jan 26 22:43:51 2021, MaxMem=  4026531840 cpu:               0.5 elap:               0.1
 (Enter /opt/ohpc/pub/libs/gaussian/g16-A.03/sandybridge/g16/l302.exe)
 NPDir=0 NMtPBC=     1 NCelOv=     1 NCel=       1 NClECP=     1 NCelD=      1
         NCelK=      1 NCelE2=     1 NClLst=     1 CellRange=     0.0.
 One-electron integrals computed using PRISM.
 One-electron integral symmetry used in STVInt
 NBasis=   569 RedAO= T EigKep=  9.00D-06  NBF=   569
 NBsUse=   569 1.00D-06 EigRej= -1.00D+00 NBFU=   569
 Precomputing XC quadrature grid using
 IXCGrd= 4 IRadAn=           5 IRanWt=          -1 IRanGd=           0 AccXCQ= 0.00D+00.
 Generated NRdTot=       0 NPtTot=           0 NUsed=           0 NTot=          32
 NSgBfM=   570   570   570   570   570 MxSgAt=    44 MxSgA2=    44.
 Leave Link  302 at Tue Jan 26 22:43:52 2021, MaxMem=  4026531840 cpu:               9.4 elap:               1.2
 (Enter /opt/ohpc/pub/libs/gaussian/g16-A.03/sandybridge/g16/l303.exe)
 DipDrv:  MaxL=1.
 Leave Link  303 at Tue Jan 26 22:43:53 2021, MaxMem=  4026531840 cpu:               0.8 elap:               0.1
 (Enter /opt/ohpc/pub/libs/gaussian/g16-A.03/sandybridge/g16/l401.exe)
 ExpMin= 9.52D-02 ExpMax= 6.07D+04 ExpMxC= 2.07D+03 IAcc=3 IRadAn=         5 AccDes= 0.00D+00
 Harris functional with IExCor=33909 and IRadAn=       5 diagonalized for initial guess.
 HarFok:  IExCor=33909 AccDes= 0.00D+00 IRadAn=         5 IDoV= 1 UseB2=F ITyADJ=14
 ICtDFT=  3500011 ScaDFX=  1.000000  1.000000  1.000000  1.000000
 FoFCou: FMM=F IPFlag=           0 FMFlag=      100000 FMFlg1=           0
         NFxFlg=           0 DoJE=T BraDBF=F KetDBF=T FulRan=T
         wScrn=  0.000000 ICntrl=       500 IOpCl=  0 I1Cent=   200000004 NGrid=           0
         NMat0=    1 NMatS0=      1 NMatT0=    0 NMatD0=    1 NMtDS0=    0 NMtDT0=    0
 Petite list used in FoFCou.
 Harris En= -1624.44390947522    
 JPrj=0 DoOrth=F DoCkMO=F.
 Leave Link  401 at Tue Jan 26 22:43:59 2021, MaxMem=  4026531840 cpu:              52.1 elap:               6.6
 (Enter /opt/ohpc/pub/libs/gaussian/g16-A.03/sandybridge/g16/l502.exe)
 Integral symmetry usage will be decided dynamically.
 Closed shell SCF:
 Using DIIS extrapolation, IDIIS=    10.
 NGot=  4026531840 LenX=  4025820226 LenY=  4025469170
 Requested convergence on RMS density matrix=1.00D-06 within  32 cycles.
 Requested convergence on MAX density matrix=1.00D-04.
 Requested convergence on             energy=1.00D-04.
 Virtual orbitals will be shifted by   0.500 hartree.
 No special actions if energy rises.
 Dynamic level shift is on during FON iterations.

 Cycle   1  Pass 1  IDiag  1:
 FoFJK:  IHMeth= 1 ICntrl=       0 DoSepK=T KAlg= 0 I1Cent=           0 FoldK=F
 IRaf=         1 NMat=       1 IRICut=       1 DoRegI=T DoRafI=F ISym2E= 0 IDoP0=0 IntGTp=1.
 FoFCou: FMM=F IPFlag=           0 FMFlag=      100000 FMFlg1=           0
         NFxFlg=           0 DoJE=T BraDBF=F KetDBF=F FulRan=T
         wScrn=  0.000000 ICntrl=       500 IOpCl=  0 I1Cent=           0 NGrid=           0
         NMat0=    1 NMatS0=      1 NMatT0=    0 NMatD0=    1 NMtDS0=    0 NMtDT0=    0
 Symmetry not used in FoFCou.
 E= -1640.80217023149    
 DIIS: error= 2.90D-02 at cycle   1 NSaved=   1.
 NSaved= 1 IEnMin= 1 EnMin= -1640.80217023149     IErMin= 1 ErrMin= 2.90D-02
 ErrMax= 2.90D-02  0.00D+00 EMaxC= 1.00D+00 BMatC= 4.87D-01 BMatP= 4.87D-01
 IDIUse=1 WtCom= 1.00D+00 WtEn= 0.00D+00
 Coeff-Com:  0.100D+01
 Coeff:      0.100D+01
 Gap=     0.408 Goal=   None    Shift=    0.500
 T= 1475. Gap= 0.512 NK=0 IS=   91 IE=  569 IFin=   90
          NO(<0.9)=   0  NV(>0.1)=   0     90.00e < EF      0.00e >EF  Err=0.0D+00
 GapD=    0.408 DampG=2.000 DampE=0.500 DampFc=1.0000 IDamp=-1.
 RMSDP=4.03D-03 MaxDP=2.42D-01              OVMax= 1.64D-01

 Cycle   2  Pass 1  IDiag  1:
 E= -1641.24551533091     Delta-E=       -0.443345099414 Rises=F Damp=F
 DIIS: error= 7.49D-03 at cycle   2 NSaved=   2.
 NSaved= 2 IEnMin= 2 EnMin= -1641.24551533091     IErMin= 2 ErrMin= 7.49D-03
 ErrMax= 7.49D-03  0.00D+00 EMaxC= 1.00D+00 BMatC= 8.11D-02 BMatP= 4.87D-01
 IDIUse=1 WtCom= 1.00D+00 WtEn= 0.00D+00
 Coeff-Com:  0.265D+00 0.735D+00
 Coeff:      0.265D+00 0.735D+00
 Gap=     0.306 Goal=   None    Shift=    0.500
 T= 1304. Gap= 0.732 NK=0 IS=   91 IE=  569 IFin=   90
          NO(<0.9)=   0  NV(>0.1)=   0     90.00e < EF      0.00e >EF  Err=0.0D+00
 GapD=    0.306 DampG=1.000 DampE=1.000 DampFc=1.0000 IDamp=-1.
 RMSDP=1.09D-03 MaxDP=7.92D-02 DE=-4.43D-01 OVMax= 2.39D-02

 Cycle   3  Pass 1  IDiag  1:
 E= -1641.30296369726     Delta-E=       -0.057448366358 Rises=F Damp=F
 DIIS: error= 2.68D-03 at cycle   3 NSaved=   3.
 NSaved= 3 IEnMin= 3 EnMin= -1641.30296369726     IErMin= 3 ErrMin= 2.68D-03
 ErrMax= 2.68D-03  0.00D+00 EMaxC= 1.00D+00 BMatC= 8.56D-03 BMatP= 8.11D-02
 IDIUse=1 WtCom= 1.00D+00 WtEn= 0.00D+00
 Coeff-Com:  0.876D-01-0.785D-01 0.991D+00
 Coeff:      0.876D-01-0.785D-01 0.991D+00
 Gap=     0.230 Goal=   None    Shift=    0.500
 T=  996. Gap= 0.729 NK=0 IS=   91 IE=  569 IFin=   90
          NO(<0.9)=   0  NV(>0.1)=   0     90.00e < EF      0.00e >EF  Err=0.0D+00
 GapD=    0.230 DampG=1.000 DampE=1.000 DampFc=1.0000 IDamp=-1.
 RMSDP=7.22D-04 MaxDP=5.91D-02 DE=-5.74D-02 OVMax= 1.44D-02

 Cycle   4  Pass 1  IDiag  1:
 E= -1641.31161254247     Delta-E=       -0.008648845208 Rises=F Damp=F
 DIIS: error= 1.64D-03 at cycle   4 NSaved=   4.
 NSaved= 4 IEnMin= 4 EnMin= -1641.31161254247     IErMin= 4 ErrMin= 1.64D-03
 ErrMax= 1.64D-03  0.00D+00 EMaxC= 1.00D+00 BMatC= 1.30D-03 BMatP= 8.56D-03
 IDIUse=1 WtCom= 1.00D+00 WtEn= 0.00D+00
 Coeff-Com:  0.151D-01-0.725D-01-0.370D-01 0.109D+01
 Coeff:      0.151D-01-0.725D-01-0.370D-01 0.109D+01
 Gap=     0.234 Goal=   None    Shift=    0.500
 T=  278. Gap= 0.734 NK=0 IS=   91 IE=  569 IFin=   90
          NO(<0.9)=   0  NV(>0.1)=   0     90.00e < EF      0.00e >EF  Err=0.0D+00
 GapD=    0.234 DampG=1.000 DampE=1.000 DampFc=1.0000 IDamp=-1.
 RMSDP=4.05D-04 MaxDP=3.12D-02 DE=-8.65D-03 OVMax= 8.68D-03

 Cycle   5  Pass 1  IDiag  1:
 E= -1641.31344348819     Delta-E=       -0.001830945715 Rises=F Damp=F
 DIIS: error= 1.45D-03 at cycle   5 NSaved=   5.
 NSaved= 5 IEnMin= 5 EnMin= -1641.31344348819     IErMin= 5 ErrMin= 1.45D-03
 ErrMax= 1.45D-03  0.00D+00 EMaxC= 1.00D+00 BMatC= 2.15D-04 BMatP= 1.30D-03
 IDIUse=1 WtCom= 1.00D+00 WtEn= 0.00D+00
 Coeff-Com: -0.639D-02-0.668D-03-0.179D+00 0.466D-01 0.114D+01
 Coeff:     -0.639D-02-0.668D-03-0.179D+00 0.466D-01 0.114D+01
 Gap=     0.234 Goal=   None    Shift=    0.500
 GapD=    0.234 DampG=1.000 DampE=1.000 DampFc=1.0000 IDamp=-1.
 RMSDP=2.28D-04 MaxDP=1.54D-02 DE=-1.83D-03 OVMax= 7.84D-03

 Cycle   6  Pass 1  IDiag  1:
 E= -1641.31400042555     Delta-E=       -0.000556937360 Rises=F Damp=F
 DIIS: error= 1.11D-03 at cycle   6 NSaved=   6.
 NSaved= 6 IEnMin= 6 EnMin= -1641.31400042555     IErMin= 6 ErrMin= 1.11D-03
 ErrMax= 1.11D-03  0.00D+00 EMaxC= 1.00D+00 BMatC= 6.33D-05 BMatP= 2.15D-04
 IDIUse=1 WtCom= 1.00D+00 WtEn= 0.00D+00
 Coeff-Com: -0.653D-02 0.121D-01-0.403D-02-0.297D+00-0.303D+00 0.160D+01
 Coeff:     -0.653D-02 0.121D-01-0.403D-02-0.297D+00-0.303D+00 0.160D+01
 Gap=     0.234 Goal=   None    Shift=    0.500
 GapD=    0.234 DampG=1.000 DampE=1.000 DampFc=1.0000 IDamp=-1.
 RMSDP=1.41D-04 MaxDP=9.39D-03 DE=-5.57D-04 OVMax= 6.62D-03

 Cycle   7  Pass 1  IDiag  1:
 E= -1641.31425945298     Delta-E=       -0.000259027429 Rises=F Damp=F
 DIIS: error= 8.16D-04 at cycle   7 NSaved=   7.
 NSaved= 7 IEnMin= 7 EnMin= -1641.31425945298     IErMin= 7 ErrMin= 8.16D-04
 ErrMax= 8.16D-04  0.00D+00 EMaxC= 1.00D+00 BMatC= 2.70D-05 BMatP= 6.33D-05
 IDIUse=1 WtCom= 1.00D+00 WtEn= 0.00D+00
 Coeff-Com: -0.317D-02 0.310D-02 0.430D-01-0.156D+00-0.445D+00 0.303D+00
 Coeff-Com:  0.125D+01
 Coeff:     -0.317D-02 0.310D-02 0.430D-01-0.156D+00-0.445D+00 0.303D+00
 Coeff:      0.125D+01
 Gap=     0.235 Goal=   None    Shift=    0.500
 RMSDP=7.45D-05 MaxDP=4.18D-03 DE=-2.59D-04 OVMax= 4.65D-03

 Cycle   8  Pass 1  IDiag  1:
 E= -1641.31438298763     Delta-E=       -0.000123534650 Rises=F Damp=F
 DIIS: error= 5.62D-04 at cycle   8 NSaved=   8.
 NSaved= 8 IEnMin= 8 EnMin= -1641.31438298763     IErMin= 8 ErrMin= 5.62D-04
 ErrMax= 5.62D-04  0.00D+00 EMaxC= 1.00D+00 BMatC= 1.12D-05 BMatP= 2.70D-05
 IDIUse=1 WtCom= 1.00D+00 WtEn= 0.00D+00
 Coeff-Com:  0.714D-03-0.439D-02 0.199D-01 0.921D-01-0.114D+00-0.720D+00
 Coeff-Com: -0.399D-01 0.177D+01
 Coeff:      0.714D-03-0.439D-02 0.199D-01 0.921D-01-0.114D+00-0.720D+00
 Coeff:     -0.399D-01 0.177D+01
 Gap=     0.235 Goal=   None    Shift=    0.500
 RMSDP=4.61D-05 MaxDP=2.29D-03 DE=-1.24D-04 OVMax= 3.76D-03

 Cycle   9  Pass 1  IDiag  1:
 E= -1641.31444391077     Delta-E=       -0.000060923142 Rises=F Damp=F
 DIIS: error= 4.08D-04 at cycle   9 NSaved=   9.
 NSaved= 9 IEnMin= 9 EnMin= -1641.31444391077     IErMin= 9 ErrMin= 4.08D-04
 ErrMax= 4.08D-04  0.00D+00 EMaxC= 1.00D+00 BMatC= 5.43D-06 BMatP= 1.12D-05
 IDIUse=1 WtCom= 1.00D+00 WtEn= 0.00D+00
 Coeff-Com:  0.112D-02-0.253D-02-0.735D-02 0.133D+00 0.556D-01-0.581D+00
 Coeff-Com: -0.447D+00 0.504D+00 0.134D+01
 Coeff:      0.112D-02-0.253D-02-0.735D-02 0.133D+00 0.556D-01-0.581D+00
 Coeff:     -0.447D+00 0.504D+00 0.134D+01
 Gap=     0.235 Goal=   None    Shift=    0.500
 RMSDP=2.61D-05 MaxDP=1.19D-03 DE=-6.09D-05 OVMax= 2.65D-03

 Cycle  10  Pass 1  IDiag  1:
 E= -1641.31447221384     Delta-E=       -0.000028303076 Rises=F Damp=F
 DIIS: error= 2.67D-04 at cycle  10 NSaved=  10.
 NSaved=10 IEnMin=10 EnMin= -1641.31447221384     IErMin=10 ErrMin= 2.67D-04
 ErrMax= 2.67D-04  0.00D+00 EMaxC= 1.00D+00 BMatC= 2.44D-06 BMatP= 5.43D-06
 IDIUse=1 WtCom= 1.00D+00 WtEn= 0.00D+00
 Coeff-Com: -0.165D-03 0.981D-03-0.933D-02 0.239D-01 0.216D-01 0.997D-01
 Coeff-Com: -0.163D+00-0.513D+00-0.764D+00 0.230D+01
 Coeff:     -0.165D-03 0.981D-03-0.933D-02 0.239D-01 0.216D-01 0.997D-01
 Coeff:     -0.163D+00-0.513D+00-0.764D+00 0.230D+01
 Gap=     0.235 Goal=   None    Shift=    0.500
 RMSDP=1.63D-05 MaxDP=8.33D-04 DE=-2.83D-05 OVMax= 1.90D-03

 Cycle  11  Pass 1  IDiag  1:
 E= -1641.31448500713     Delta-E=       -0.000012793283 Rises=F Damp=F
 DIIS: error= 1.82D-04 at cycle  11 NSaved=  11.
 NSaved=11 IEnMin=11 EnMin= -1641.31448500713     IErMin=11 ErrMin= 1.82D-04
 ErrMax= 1.82D-04  0.00D+00 EMaxC= 1.00D+00 BMatC= 1.27D-06 BMatP= 2.44D-06
 IDIUse=1 WtCom= 1.00D+00 WtEn= 0.00D+00
 Coeff-Com: -0.443D-03 0.116D-02-0.975D-03-0.174D-01-0.240D-01 0.232D+00
 Coeff-Com:  0.382D-01-0.422D+00-0.111D+01 0.927D+00 0.138D+01
 Coeff:     -0.443D-03 0.116D-02-0.975D-03-0.174D-01-0.240D-01 0.232D+00
 Coeff:      0.382D-01-0.422D+00-0.111D+01 0.927D+00 0.138D+01
 Gap=     0.236 Goal=   None    Shift=    0.500
 RMSDP=9.81D-06 MaxDP=4.41D-04 DE=-1.28D-05 OVMax= 1.28D-03

 Cycle  12  Pass 1  IDiag  1:
 E= -1641.31449072366     Delta-E=       -0.000005716534 Rises=F Damp=F
 DIIS: error= 1.18D-04 at cycle  12 NSaved=  12.
 NSaved=12 IEnMin=12 EnMin= -1641.31449072366     IErMin=12 ErrMin= 1.18D-04
 ErrMax= 1.18D-04  0.00D+00 EMaxC= 1.00D+00 BMatC= 5.93D-07 BMatP= 1.27D-06
 IDIUse=1 WtCom= 1.00D+00 WtEn= 0.00D+00
 Coeff-Com: -0.147D-03 0.169D-03 0.303D-02-0.596D-02-0.216D-01 0.237D-01
 Coeff-Com:  0.719D-01 0.114D+00-0.234D+00-0.589D+00-0.719D+00 0.236D+01
 Coeff:     -0.147D-03 0.169D-03 0.303D-02-0.596D-02-0.216D-01 0.237D-01
 Coeff:      0.719D-01 0.114D+00-0.234D+00-0.589D+00-0.719D+00 0.236D+01
 Gap=     0.236 Goal=   None    Shift=    0.500
 RMSDP=6.27D-06 MaxDP=2.67D-04 DE=-5.72D-06 OVMax= 8.60D-04

 Cycle  13  Pass 1  IDiag  1:
 E= -1641.31449315074     Delta-E=       -0.000002427078 Rises=F Damp=F
 DIIS: error= 7.77D-05 at cycle  13 NSaved=  13.
 NSaved=13 IEnMin=13 EnMin= -1641.31449315074     IErMin=13 ErrMin= 7.77D-05
 ErrMax= 7.77D-05  0.00D+00 EMaxC= 1.00D+00 BMatC= 3.35D-07 BMatP= 5.93D-07
 IDIUse=1 WtCom= 1.00D+00 WtEn= 0.00D+00
 Coeff-Com: -0.129D-04-0.459D-04 0.190D-02 0.412D-02-0.135D-01-0.461D-01
 Coeff-Com:  0.519D-01 0.214D+00 0.904D-01-0.704D+00-0.108D+01 0.137D+01
 Coeff-Com:  0.111D+01
 Coeff:     -0.129D-04-0.459D-04 0.190D-02 0.412D-02-0.135D-01-0.461D-01
 Coeff:      0.519D-01 0.214D+00 0.904D-01-0.704D+00-0.108D+01 0.137D+01
 Coeff:      0.111D+01
 Gap=     0.236 Goal=   None    Shift=    0.500
 RMSDP=3.76D-06 MaxDP=1.43D-04 DE=-2.43D-06 OVMax= 5.80D-04

 Cycle  14  Pass 1  IDiag  1:
 E= -1641.31449423753     Delta-E=       -0.000001086795 Rises=F Damp=F
 DIIS: error= 4.98D-05 at cycle  14 NSaved=  14.
 NSaved=14 IEnMin=14 EnMin= -1641.31449423753     IErMin=14 ErrMin= 4.98D-05
 ErrMax= 4.98D-05  0.00D+00 EMaxC= 1.00D+00 BMatC= 1.59D-07 BMatP= 3.35D-07
 IDIUse=1 WtCom= 1.00D+00 WtEn= 0.00D+00
 Coeff-Com:  0.349D-04-0.676D-04-0.348D-03 0.765D-02-0.579D-02-0.307D-01
 Coeff-Com:  0.997D-02 0.721D-01 0.951D-01-0.858D-01-0.384D+00-0.131D+00
 Coeff-Com: -0.811D+00 0.226D+01
 Coeff:      0.349D-04-0.676D-04-0.348D-03 0.765D-02-0.579D-02-0.307D-01
 Coeff:      0.997D-02 0.721D-01 0.951D-01-0.858D-01-0.384D+00-0.131D+00
 Coeff:     -0.811D+00 0.226D+01
 Gap=     0.236 Goal=   None    Shift=    0.500
 RMSDP=2.46D-06 MaxDP=9.90D-05 DE=-1.09D-06 OVMax= 3.88D-04

 Cycle  15  Pass 1  IDiag  1:
 E= -1641.31449470613     Delta-E=       -0.000000468597 Rises=F Damp=F
 DIIS: error= 3.20D-05 at cycle  15 NSaved=  15.
 NSaved=15 IEnMin=15 EnMin= -1641.31449470613     IErMin=15 ErrMin= 3.20D-05
 ErrMax= 3.20D-05  0.00D+00 EMaxC= 1.00D+00 BMatC= 7.43D-08 BMatP= 1.59D-07
 IDIUse=1 WtCom= 1.00D+00 WtEn= 0.00D+00
 Coeff-Com:  0.129D-05-0.209D-04-0.608D-03 0.287D-02-0.225D-02 0.418D-02
 Coeff-Com: -0.243D-02-0.329D-01-0.112D-01 0.207D+00 0.814D-01-0.397D+00
 Coeff-Com: -0.110D+01 0.530D+00 0.173D+01
 Coeff:      0.129D-05-0.209D-04-0.608D-03 0.287D-02-0.225D-02 0.418D-02
 Coeff:     -0.243D-02-0.329D-01-0.112D-01 0.207D+00 0.814D-01-0.397D+00
 Coeff:     -0.110D+01 0.530D+00 0.173D+01
 Gap=     0.236 Goal=   None    Shift=    0.500
 RMSDP=1.64D-06 MaxDP=7.71D-05 DE=-4.69D-07 OVMax= 2.54D-04

 Cycle  16  Pass 1  IDiag  1:
 E= -1641.31449490550     Delta-E=       -0.000000199372 Rises=F Damp=F
 DIIS: error= 2.04D-05 at cycle  16 NSaved=  16.
 NSaved=16 IEnMin=16 EnMin= -1641.31449490550     IErMin=16 ErrMin= 2.04D-05
 ErrMax= 2.04D-05  0.00D+00 EMaxC= 1.00D+00 BMatC= 3.40D-08 BMatP= 7.43D-08
 IDIUse=1 WtCom= 1.00D+00 WtEn= 0.00D+00
 Coeff-Com: -0.143D-04 0.618D-05-0.238D-03-0.344D-03 0.319D-03 0.107D-01
 Coeff-Com: -0.219D-02-0.393D-01-0.312D-01 0.151D+00 0.121D+00-0.147D+00
 Coeff-Com: -0.475D+00-0.584D+00 0.451D+00 0.155D+01
 Coeff:     -0.143D-04 0.618D-05-0.238D-03-0.344D-03 0.319D-03 0.107D-01
 Coeff:     -0.219D-02-0.393D-01-0.312D-01 0.151D+00 0.121D+00-0.147D+00
 Coeff:     -0.475D+00-0.584D+00 0.451D+00 0.155D+01
 Gap=     0.236 Goal=   None    Shift=    0.500
 RMSDP=1.04D-06 MaxDP=4.44D-05 DE=-1.99D-07 OVMax= 1.68D-04

 Cycle  17  Pass 1  IDiag  1:
 E= -1641.31449499130     Delta-E=       -0.000000085800 Rises=F Damp=F
 DIIS: error= 1.29D-05 at cycle  17 NSaved=  17.
 NSaved=17 IEnMin=17 EnMin= -1641.31449499130     IErMin=17 ErrMin= 1.29D-05
 ErrMax= 1.29D-05  0.00D+00 EMaxC= 1.00D+00 BMatC= 1.55D-08 BMatP= 3.40D-08
 IDIUse=1 WtCom= 1.00D+00 WtEn= 0.00D+00
 Coeff-Com: -0.779D-05 0.204D-04 0.204D-03-0.966D-03 0.837D-04 0.245D-02
 Coeff-Com:  0.390D-02-0.441D-02-0.768D-02-0.160D-01-0.817D-02 0.131D+00
 Coeff-Com:  0.176D+00-0.523D+00-0.483D+00-0.518D+00 0.225D+01
 Coeff:     -0.779D-05 0.204D-04 0.204D-03-0.966D-03 0.837D-04 0.245D-02
 Coeff:      0.390D-02-0.441D-02-0.768D-02-0.160D-01-0.817D-02 0.131D+00
 Coeff:      0.176D+00-0.523D+00-0.483D+00-0.518D+00 0.225D+01
 Gap=     0.236 Goal=   None    Shift=    0.500
 RMSDP=6.77D-07 MaxDP=3.27D-05 DE=-8.58D-08 OVMax= 1.11D-04

 SCF Done:  E(RLC-wHPBE) =  -1641.31449499     A.U. after   17 cycles
            NFock= 17  Conv=0.68D-06     -V/T= 2.0041
 KE= 1.634565391383D+03 PE=-7.878564148019D+03 EE= 2.580199417976D+03
 Leave Link  502 at Tue Jan 26 22:55:59 2021, MaxMem=  4026531840 cpu:            5747.0 elap:             719.6
 (Enter /opt/ohpc/pub/libs/gaussian/g16-A.03/sandybridge/g16/l508.exe)
 QCSCF skips out because SCF is already converged.
 Leave Link  508 at Tue Jan 26 22:55:59 2021, MaxMem=  4026531840 cpu:               0.1 elap:               0.0
 (Enter /opt/ohpc/pub/libs/gaussian/g16-A.03/sandybridge/g16/l601.exe)
 Copying SCF densities to generalized density rwf, IOpCl= 0 IROHF=0.

 **********************************************************************

            Population analysis using the SCF density.

 **********************************************************************

 Orbital symmetries:
       Occupied  (A) (A) (A) (A) (A) (A) (A) (A) (A) (A) (A) (A)
                 (A) (A) (A) (A) (A) (A) (A) (A) (A) (A) (A) (A)
                 (A) (A) (A) (A) (A) (A) (A) (A) (A) (A) (A) (A)
                 (A) (A) (A) (A) (A) (A) (A) (A) (A) (A) (A) (A)
                 (A) (A) (A) (A) (A) (A) (A) (A) (A) (A) (A) (A)
                 (A) (A) (A) (A) (A) (A) (A) (A) (A) (A) (A) (A)
                 (A) (A) (A) (A) (A) (A) (A) (A) (A) (A) (A) (A)
                 (A) (A) (A) (A) (A) (A)
       Virtual   (A) (A) (A) (A) (A) (A) (A) (A) (A) (A) (A) (A)
                 (A) (A) (A) (A) (A) (A) (A) (A) (A) (A) (A) (A)
                 (A) (A) (A) (A) (A) (A) (A) (A) (A) (A) (A) (A)
                 (A) (A) (A) (A) (A) (A) (A) (A) (A) (A) (A) (A)
                 (A) (A) (A) (A) (A) (A) (A) (A) (A) (A) (A) (A)
                 (A) (A) (A) (A) (A) (A) (A) (A) (A) (A) (A) (A)
                 (A) (A) (A) (A) (A) (A) (A) (A) (A) (A) (A) (A)
                 (A) (A) (A) (A) (A) (A) (A) (A) (A) (A) (A) (A)
                 (A) (A) (A) (A) (A) (A) (A) (A) (A) (A) (A) (A)
                 (A) (A) (A) (A) (A) (A) (A) (A) (A) (A) (A) (A)
                 (A) (A) (A) (A) (A) (A) (A) (A) (A) (A) (A) (A)
                 (A) (A) (A) (A) (A) (A) (A) (A) (A) (A) (A) (A)
                 (A) (A) (A) (A) (A) (A) (A) (A) (A) (A) (A) (A)
                 (A) (A) (A) (A) (A) (A) (A) (A) (A) (A) (A) (A)
                 (A) (A) (A) (A) (A) (A) (A) (A) (A) (A) (A) (A)
                 (A) (A) (A) (A) (A) (A) (A) (A) (A) (A) (A) (A)
                 (A) (A) (A) (A) (A) (A) (A) (A) (A) (A) (A) (A)
                 (A) (A) (A) (A) (A) (A) (A) (A) (A) (A) (A) (A)
                 (A) (A) (A) (A) (A) (A) (A) (A) (A) (A) (A) (A)
                 (A) (A) (A) (A) (A) (A) (A) (A) (A) (A) (A) (A)
                 (A) (A) (A) (A) (A) (A) (A) (A) (A) (A) (A) (A)
                 (A) (A) (A) (A) (A) (A) (A) (A) (A) (A) (A) (A)
                 (A) (A) (A) (A) (A) (A) (A) (A) (A) (A) (A) (A)
                 (A) (A) (A) (A) (A) (A) (A) (A) (A) (A) (A) (A)
                 (A) (A) (A) (A) (A) (A) (A) (A) (A) (A) (A) (A)
                 (A) (A) (A) (A) (A) (A) (A) (A) (A) (A) (A) (A)
                 (A) (A) (A) (A) (A) (A) (A) (A) (A) (A) (A) (A)
                 (A) (A) (A) (A) (A) (A) (A) (A) (A) (A) (A) (A)
                 (A) (A) (A) (A) (A) (A) (A) (A) (A) (A) (A) (A)
                 (A) (A) (A) (A) (A) (A) (A) (A) (A) (A) (A) (A)
                 (A) (A) (A) (A) (A) (A) (A) (A) (A) (A) (A) (A)
                 (A) (A) (A) (A) (A) (A) (A) (A) (A) (A) (A) (A)
                 (A) (A) (A) (A) (A) (A) (A) (A) (A) (A) (A) (A)
                 (A) (A) (A) (A) (A) (A) (A) (A) (A) (A) (A) (A)
                 (A) (A) (A) (A) (A) (A) (A) (A) (A) (A) (A) (A)
                 (A) (A) (A) (A) (A) (A) (A) (A) (A) (A) (A) (A)
                 (A) (A) (A) (A) (A) (A) (A) (A) (A) (A) (A) (A)
                 (A) (A) (A) (A) (A) (A) (A) (A) (A) (A) (A) (A)
                 (A) (A) (A) (A) (A) (A) (A) (A) (A) (A) (A) (A)
                 (A) (A) (A) (A) (A) (A) (A) (A) (A) (A) (A)
 The electronic state is 1-A.
 Alpha  occ. eigenvalues --  -88.32166 -88.27451 -14.27824 -14.27818 -10.20315
 Alpha  occ. eigenvalues --  -10.20282 -10.16705 -10.14909 -10.14884 -10.14417
 Alpha  occ. eigenvalues --  -10.14375 -10.12569 -10.12289 -10.11609 -10.11601
 Alpha  occ. eigenvalues --  -10.10283 -10.10146 -10.09814 -10.08532 -10.07829
 Alpha  occ. eigenvalues --  -10.07616 -10.07403 -10.06196  -7.91182  -7.86649
 Alpha  occ. eigenvalues --   -5.93288  -5.92859  -5.92442  -5.88869  -5.88443
 Alpha  occ. eigenvalues --   -5.87617  -1.14899  -1.12474  -1.06889  -0.99607
 Alpha  occ. eigenvalues --   -0.99083  -0.92460  -0.90309  -0.90073  -0.89512
 Alpha  occ. eigenvalues --   -0.89360  -0.88128  -0.88006  -0.86722  -0.84415
 Alpha  occ. eigenvalues --   -0.82030  -0.77466  -0.74616  -0.73751  -0.72430
 Alpha  occ. eigenvalues --   -0.72150  -0.71275  -0.69289  -0.66986  -0.66810
 Alpha  occ. eigenvalues --   -0.66350  -0.65115  -0.64545  -0.61981  -0.61146
 Alpha  occ. eigenvalues --   -0.60699  -0.59881  -0.59664  -0.59146  -0.58931
 Alpha  occ. eigenvalues --   -0.58139  -0.58034  -0.57862  -0.57369  -0.57145
 Alpha  occ. eigenvalues --   -0.56192  -0.55839  -0.55762  -0.54910  -0.53614
 Alpha  occ. eigenvalues --   -0.53267  -0.52794  -0.52294  -0.50095  -0.48542
 Alpha  occ. eigenvalues --   -0.48140  -0.47591  -0.46946  -0.44563  -0.42221
 Alpha  occ. eigenvalues --   -0.41125  -0.40012  -0.39083  -0.38276  -0.35342
 Alpha virt. eigenvalues --   -0.11786  -0.10346  -0.07137  -0.05878  -0.05646
 Alpha virt. eigenvalues --   -0.05372  -0.04360  -0.04139  -0.01645  -0.01439
 Alpha virt. eigenvalues --   -0.01006  -0.00372  -0.00335   0.00905   0.01278
 Alpha virt. eigenvalues --    0.01958   0.02867   0.02924   0.03311   0.04096
 Alpha virt. eigenvalues --    0.04525   0.04572   0.05088   0.05355   0.05536
 Alpha virt. eigenvalues --    0.05706   0.06675   0.06744   0.07273   0.07397
 Alpha virt. eigenvalues --    0.08416   0.08957   0.09051   0.09320   0.09601
 Alpha virt. eigenvalues --    0.10368   0.10910   0.11062   0.12018   0.12315
 Alpha virt. eigenvalues --    0.12577   0.12901   0.13063   0.13663   0.14332
 Alpha virt. eigenvalues --    0.14762   0.16210   0.16638   0.17153   0.17560
 Alpha virt. eigenvalues --    0.17897   0.18054   0.18479   0.19217   0.19483
 Alpha virt. eigenvalues --    0.20016   0.20575   0.20732   0.21143   0.21614
 Alpha virt. eigenvalues --    0.22257   0.22447   0.22588   0.22909   0.23042
 Alpha virt. eigenvalues --    0.23419   0.23593   0.24109   0.24279   0.24846
 Alpha virt. eigenvalues --    0.25092   0.25352   0.25440   0.26463   0.26742
 Alpha virt. eigenvalues --    0.27029   0.27766   0.28555   0.28800   0.29663
 Alpha virt. eigenvalues --    0.29810   0.30679   0.30744   0.31082   0.31825
 Alpha virt. eigenvalues --    0.32343   0.32509   0.32969   0.33311   0.33723
 Alpha virt. eigenvalues --    0.34075   0.35182   0.35435   0.35840   0.36102
 Alpha virt. eigenvalues --    0.36382   0.36500   0.36671   0.37386   0.37454
 Alpha virt. eigenvalues --    0.37821   0.38080   0.38472   0.38628   0.39083
 Alpha virt. eigenvalues --    0.39147   0.39786   0.40055   0.40380   0.40676
 Alpha virt. eigenvalues --    0.41098   0.41411   0.42089   0.42359   0.42724
 Alpha virt. eigenvalues --    0.43165   0.43865   0.44335   0.44485   0.45056
 Alpha virt. eigenvalues --    0.45524   0.45655   0.45936   0.46484   0.46862
 Alpha virt. eigenvalues --    0.47660   0.48164   0.48333   0.48738   0.49342
 Alpha virt. eigenvalues --    0.50473   0.51098   0.51370   0.52052   0.52532
 Alpha virt. eigenvalues --    0.53332   0.54418   0.55291   0.56145   0.56286
 Alpha virt. eigenvalues --    0.56583   0.57863   0.58710   0.59442   0.59704
 Alpha virt. eigenvalues --    0.60271   0.62034   0.62375   0.62722   0.63459
 Alpha virt. eigenvalues --    0.64185   0.64961   0.65224   0.65707   0.66173
 Alpha virt. eigenvalues --    0.66984   0.67670   0.68497   0.70637   0.71118
 Alpha virt. eigenvalues --    0.72082   0.72885   0.75235   0.75725   0.76423
 Alpha virt. eigenvalues --    0.76975   0.79494   0.80736   0.82601   0.82936
 Alpha virt. eigenvalues --    0.83656   0.85082   0.87297   0.88044   0.89582
 Alpha virt. eigenvalues --    0.91315   1.01485   1.04528   1.04890   1.09265
 Alpha virt. eigenvalues --    1.11576   1.12559   1.13287   1.13477   1.14983
 Alpha virt. eigenvalues --    1.15376   1.16615   1.16876   1.17374   1.17995
 Alpha virt. eigenvalues --    1.19030   1.19346   1.20133   1.20634   1.21345
 Alpha virt. eigenvalues --    1.22407   1.22787   1.23362   1.23569   1.23770
 Alpha virt. eigenvalues --    1.24096   1.25151   1.25323   1.26024   1.26158
 Alpha virt. eigenvalues --    1.26527   1.27684   1.27847   1.28128   1.28420
 Alpha virt. eigenvalues --    1.29656   1.29990   1.30829   1.31539   1.32529
 Alpha virt. eigenvalues --    1.33176   1.34156   1.34916   1.34962   1.35519
 Alpha virt. eigenvalues --    1.35970   1.36809   1.37298   1.37308   1.37517
 Alpha virt. eigenvalues --    1.37998   1.38601   1.38618   1.39155   1.39375
 Alpha virt. eigenvalues --    1.39743   1.40341   1.40484   1.41732   1.42340
 Alpha virt. eigenvalues --    1.42771   1.43021   1.43528   1.43649   1.44089
 Alpha virt. eigenvalues --    1.44731   1.45199   1.45579   1.45676   1.46180
 Alpha virt. eigenvalues --    1.46470   1.46587   1.47583   1.47962   1.48320
 Alpha virt. eigenvalues --    1.49427   1.49713   1.50108   1.51914   1.52255
 Alpha virt. eigenvalues --    1.52751   1.53220   1.54556   1.55044   1.55289
 Alpha virt. eigenvalues --    1.55774   1.56177   1.57173   1.58543   1.59322
 Alpha virt. eigenvalues --    1.59429   1.59920   1.60423   1.61872   1.62225
 Alpha virt. eigenvalues --    1.62979   1.63599   1.64575   1.65090   1.65984
 Alpha virt. eigenvalues --    1.66257   1.66670   1.66841   1.66925   1.67966
 Alpha virt. eigenvalues --    1.68313   1.68530   1.69011   1.69312   1.69689
 Alpha virt. eigenvalues --    1.70040   1.70803   1.71167   1.71850   1.72020
 Alpha virt. eigenvalues --    1.72571   1.72859   1.74147   1.74375   1.74699
 Alpha virt. eigenvalues --    1.75807   1.76614   1.76877   1.77548   1.78956
 Alpha virt. eigenvalues --    1.80025   1.81049   1.81286   1.82360   1.83346
 Alpha virt. eigenvalues --    1.83681   1.84418   1.85244   1.86222   1.87731
 Alpha virt. eigenvalues --    1.89164   1.90114   1.90885   1.91093   1.91716
 Alpha virt. eigenvalues --    1.92039   1.92219   1.93080   1.95059   1.95405
 Alpha virt. eigenvalues --    1.96128   1.96824   1.98718   1.99658   2.00370
 Alpha virt. eigenvalues --    2.00580   2.03171   2.04827   2.05425   2.07065
 Alpha virt. eigenvalues --    2.07459   2.08830   2.09809   2.10556   2.10997
 Alpha virt. eigenvalues --    2.11722   2.14260   2.16261   2.17224   2.17397
 Alpha virt. eigenvalues --    2.18458   2.18618   2.19123   2.19386   2.20174
 Alpha virt. eigenvalues --    2.21513   2.21719   2.22247   2.22341   2.22856
 Alpha virt. eigenvalues --    2.23380   2.24339   2.24932   2.25413   2.25580
 Alpha virt. eigenvalues --    2.25753   2.26676   2.26985   2.27179   2.27549
 Alpha virt. eigenvalues --    2.27788   2.29230   2.31418   2.32407   2.33186
 Alpha virt. eigenvalues --    2.33838   2.35068   2.37880   2.39713   2.39774
 Alpha virt. eigenvalues --    2.40240   2.41085   2.41201   2.42538   2.43964
 Alpha virt. eigenvalues --    2.44158   2.44463   2.45878   2.46457   2.46833
 Alpha virt. eigenvalues --    2.46846   2.47905   2.48301   2.48764   2.50867
 Alpha virt. eigenvalues --    2.52423   2.53086   2.53409   2.54408   2.55120
 Alpha virt. eigenvalues --    2.55483   2.55889   2.56753   2.57549   2.58754
 Alpha virt. eigenvalues --    2.60969   2.61184   2.61825   2.62126   2.62511
 Alpha virt. eigenvalues --    2.63546   2.63927   2.65422   2.66034   2.68042
 Alpha virt. eigenvalues --    2.70630   2.71975   2.73190   2.73798   2.74086
 Alpha virt. eigenvalues --    2.74838   2.76852   2.82231   2.87099   2.89835
 Alpha virt. eigenvalues --    2.90781   2.94357   2.96922   2.98390   2.99778
 Alpha virt. eigenvalues --    3.00925   3.01822   3.02017   3.03716   3.03801
 Alpha virt. eigenvalues --    3.04523   3.05080   3.05469   3.07595   3.08129
 Alpha virt. eigenvalues --    3.09668   3.12822   3.13650   3.15467   3.17728
 Alpha virt. eigenvalues --    3.18181   3.18366   3.18725   3.19118   3.20570
 Alpha virt. eigenvalues --    3.23050   3.25239   3.25799   3.27981   3.31508
 Alpha virt. eigenvalues --    3.32701   3.33069   3.34634   3.45454   3.50211
 Alpha virt. eigenvalues --    3.50640   3.59764   3.59825   3.67384   3.68221
 Alpha virt. eigenvalues --    3.85598  18.56772  18.88040  21.01028  21.11151
 Alpha virt. eigenvalues --   21.37535  21.45737  21.51281  21.57225  21.61311
 Alpha virt. eigenvalues --   21.63745  21.65394  21.73116  21.79769  21.81175
 Alpha virt. eigenvalues --   21.83013  21.83501  21.83855  21.97684  21.99754
 Alpha virt. eigenvalues --   22.03149  22.03663  31.51852  31.66800
          Condensed to atoms (all electrons):
               1          2          3          4          5          6
     1  C    5.404816   0.099190  -0.112454   0.112611  -0.001605  -0.000011
     2  C    0.099190   6.082548   0.502238  -0.462441  -0.006341   0.014840
     3  S   -0.112454   0.502238  15.545269  -0.220273  -0.007414  -0.000427
     4  C    0.112611  -0.462441  -0.220273   6.615209  -0.022063  -0.053535
     5  C   -0.001605  -0.006341  -0.007414  -0.022063   5.859581   0.311742
     6  C   -0.000011   0.014840  -0.000427  -0.053535   0.311742   5.523133
     7  C    0.269418   0.174323   0.015468  -0.294669  -0.001096   0.001624
     8  C   -0.225313   0.215794   0.033496  -0.181601   0.005810   0.008957
     9  H   -0.000277   0.019988   0.002341  -0.044051  -0.007112  -0.008807
    10  C   -0.000126   0.002017   0.006660  -0.022861  -0.005886  -0.144687
    11  C   -0.000123  -0.002520  -0.000299   0.013590   0.048519   0.406775
    12  C    0.000051   0.001356   0.000228  -0.005152  -0.277415   0.090908
    13  C    0.000013  -0.001969  -0.001155   0.003583   0.168424  -0.110220
    14  H    0.000029   0.000046   0.000716  -0.000386   0.003145   0.007977
    15  H    0.000012  -0.000127  -0.000002   0.000541   0.029487  -0.057879
    16  H    0.000000   0.000003   0.000001  -0.000022   0.000653   0.014830
    17  C    0.134311  -0.219491  -0.006599   0.220407   0.004388  -0.013806
    18  H    0.416677  -0.083778  -0.001043   0.045330  -0.000012  -0.000023
    19  H   -0.003825  -0.027929   0.317402  -0.009420  -0.000024   0.000048
    20  H   -0.073604   0.024184  -0.000270  -0.005178  -0.000006  -0.000003
    21  H   -0.002661   0.022405   0.000004  -0.088709  -0.001197   0.011245
    22  H    0.018744  -0.004518  -0.000000   0.025954  -0.000072  -0.000406
    23  S    0.013882  -0.113475   0.006176   0.350235   0.078068  -0.147433
    24  C    0.000001  -0.000320  -0.000140   0.000384   0.008768   0.017026
    25  C   -0.000000  -0.000003  -0.000005   0.000005  -0.017015  -0.002855
    26  C    0.000000  -0.000010  -0.000023   0.000011   0.022922   0.001985
    27  N   -0.000000  -0.000000  -0.000000   0.000000  -0.000074   0.000020
    28  N    0.000000  -0.000000   0.000003  -0.000000  -0.000120   0.000016
    29  C   -0.000000   0.000000  -0.000000  -0.000000  -0.000132   0.000072
    30  H    0.000000  -0.000000   0.000000   0.000000   0.000006   0.000000
    31  H    0.000000  -0.000000   0.000000   0.000000   0.000131  -0.000060
    32  H   -0.000000  -0.000000   0.000000  -0.000000  -0.000003  -0.000000
    33  C   -0.000000  -0.000000  -0.000000   0.000000  -0.000015  -0.000001
    34  H    0.000000  -0.000000   0.000000   0.000000   0.000000   0.000000
    35  H   -0.000000   0.000000  -0.000000  -0.000000  -0.000000  -0.000000
    36  H    0.000000   0.000000   0.000000  -0.000000  -0.000000   0.000000
    37  C   -0.000000  -0.000002  -0.000230   0.000012  -0.000328   0.000027
    38  H   -0.000000   0.000000   0.000008  -0.000000  -0.000127  -0.000006
    39  H    0.000003   0.000002   0.000680  -0.000028  -0.000037  -0.000046
    40  H    0.000000  -0.000000   0.000012   0.000000   0.000081   0.000003
    41  C    0.000000  -0.000000  -0.000000   0.000000   0.000027   0.000001
    42  H   -0.000000   0.000000  -0.000000  -0.000000  -0.000002  -0.000000
    43  H    0.000000  -0.000000   0.000000   0.000000   0.000001   0.000000
    44  H    0.000000   0.000000   0.000000   0.000000   0.000000   0.000000
               7          8          9         10         11         12
     1  C    0.269418  -0.225313  -0.000277  -0.000126  -0.000123   0.000051
     2  C    0.174323   0.215794   0.019988   0.002017  -0.002520   0.001356
     3  S    0.015468   0.033496   0.002341   0.006660  -0.000299   0.000228
     4  C   -0.294669  -0.181601  -0.044051  -0.022861   0.013590  -0.005152
     5  C   -0.001096   0.005810  -0.007112  -0.005886   0.048519  -0.277415
     6  C    0.001624   0.008957  -0.008807  -0.144687   0.406775   0.090908
     7  C    5.120246   0.127787   0.000244   0.000110  -0.000812   0.000088
     8  C    0.127787   5.546679  -0.005463   0.013445   0.000325   0.001055
     9  H    0.000244  -0.005463   0.585344  -0.001236  -0.000904   0.000300
    10  C    0.000110   0.013445  -0.001236   5.844444  -0.080043  -0.061214
    11  C   -0.000812   0.000325  -0.000904  -0.080043   5.140165   0.204007
    12  C    0.000088   0.001055   0.000300  -0.061214   0.204007   5.667472
    13  C   -0.000047  -0.001656  -0.001186   0.232461   0.073915   0.334352
    14  H   -0.000002   0.000049   0.000142   0.361037  -0.001782   0.005917
    15  H   -0.000053  -0.000206  -0.000000  -0.000060   0.418909  -0.111191
    16  H    0.000000   0.000003   0.000002   0.010862  -0.020153   0.403322
    17  C    0.334148   0.169178   0.000442  -0.000243  -0.000708  -0.000177
    18  H   -0.066427  -0.006995  -0.000001  -0.000004   0.000005  -0.000002
    19  H   -0.000468   0.001848  -0.000049   0.000061  -0.000001   0.000001
    20  H    0.434762   0.021352   0.000001   0.000001  -0.000001   0.000000
    21  H    0.013993   0.414607   0.001459   0.000882  -0.000701   0.000379
    22  H   -0.062697  -0.065992  -0.000033  -0.000014  -0.000008  -0.000006
    23  S   -0.000577  -0.093319   0.318930   0.033511  -0.003488  -0.008439
    24  C   -0.000003  -0.000079  -0.000119  -0.066465   0.057754  -0.181312
    25  C    0.000000   0.000001  -0.000005   0.061588   0.014612  -0.059750
    26  C   -0.000000  -0.000008   0.000001  -0.073503  -0.001954   0.032284
    27  N    0.000000   0.000000  -0.000000   0.000384   0.000227   0.001043
    28  N    0.000000  -0.000000  -0.000000   0.001576   0.000012   0.000153
    29  C    0.000000   0.000000  -0.000000   0.000162  -0.000360  -0.002434
    30  H   -0.000000  -0.000000  -0.000000  -0.000034  -0.000074   0.000096
    31  H   -0.000000  -0.000000   0.000000  -0.000411   0.000118   0.005682
    32  H    0.000000  -0.000000   0.000000   0.000028   0.000054  -0.000099
    33  C    0.000000   0.000000  -0.000000   0.000090   0.000015  -0.000032
    34  H   -0.000000  -0.000000  -0.000000  -0.000002  -0.000002  -0.000002
    35  H    0.000000   0.000000   0.000000  -0.000000   0.000001  -0.000010
    36  H    0.000000  -0.000000   0.000000   0.000006   0.000000   0.000010
    37  C   -0.000000  -0.000000  -0.000002  -0.002052  -0.000015  -0.000135
    38  H    0.000000   0.000000   0.000000   0.000157   0.000005  -0.000029
    39  H    0.000000  -0.000001   0.000006   0.006125   0.000027  -0.000049
    40  H   -0.000000  -0.000000   0.000000  -0.000146  -0.000003   0.000023
    41  C   -0.000000  -0.000000   0.000000  -0.000012  -0.000003   0.000062
    42  H    0.000000   0.000000   0.000000  -0.000004   0.000000  -0.000001
    43  H   -0.000000  -0.000000  -0.000000  -0.000011  -0.000000  -0.000001
    44  H   -0.000000   0.000000   0.000000   0.000009  -0.000000   0.000007
              13         14         15         16         17         18
     1  C    0.000013   0.000029   0.000012   0.000000   0.134311   0.416677
     2  C   -0.001969   0.000046  -0.000127   0.000003  -0.219491  -0.083778
     3  S   -0.001155   0.000716  -0.000002   0.000001  -0.006599  -0.001043
     4  C    0.003583  -0.000386   0.000541  -0.000022   0.220407   0.045330
     5  C    0.168424   0.003145   0.029487   0.000653   0.004388  -0.000012
     6  C   -0.110220   0.007977  -0.057879   0.014830  -0.013806  -0.000023
     7  C   -0.000047  -0.000002  -0.000053   0.000000   0.334148  -0.066427
     8  C   -0.001656   0.000049  -0.000206   0.000003   0.169178  -0.006995
     9  H   -0.001186   0.000142  -0.000000   0.000002   0.000442  -0.000001
    10  C    0.232461   0.361037  -0.000060   0.010862  -0.000243  -0.000004
    11  C    0.073915  -0.001782   0.418909  -0.020153  -0.000708   0.000005
    12  C    0.334352   0.005917  -0.111191   0.403322  -0.000177  -0.000002
    13  C    6.705428  -0.086699   0.019383  -0.107234   0.000161   0.000002
    14  H   -0.086699   0.529957   0.000054  -0.000026   0.000010   0.000000
    15  H    0.019383   0.000054   0.574036  -0.003844   0.000150   0.000000
    16  H   -0.107234  -0.000026  -0.003844   0.554544   0.000001  -0.000000
    17  C    0.000161   0.000010   0.000150   0.000001   5.141345   0.017930
    18  H    0.000002   0.000000   0.000000  -0.000000   0.017930   0.545502
    19  H    0.000001  -0.000011  -0.000000  -0.000000  -0.000197  -0.000317
    20  H   -0.000000  -0.000000  -0.000000  -0.000000  -0.066427  -0.008026
    21  H   -0.000269  -0.000009  -0.000145  -0.000000  -0.024289  -0.000042
    22  H    0.000003   0.000000   0.000014   0.000000   0.425969  -0.000119
    23  S    0.002690   0.011391   0.000374   0.000047   0.021252  -0.000373
    24  C   -0.421060   0.013931   0.002440   0.002719   0.000016   0.000000
    25  C   -0.421979   0.005148   0.000307   0.002547  -0.000000   0.000000
    26  C   -0.349811   0.005851   0.000100   0.004768   0.000000   0.000000
    27  N   -0.025723   0.000055   0.000007   0.000241   0.000000   0.000000
    28  N   -0.023439   0.000473   0.000000   0.000036   0.000000   0.000000
    29  C   -0.011752   0.000004  -0.000041  -0.001562  -0.000000  -0.000000
    30  H   -0.000258   0.000000  -0.000000   0.000025   0.000000   0.000000
    31  H   -0.016169  -0.000016   0.000032  -0.000174   0.000000   0.000000
    32  H    0.000657   0.000000   0.000001   0.000298  -0.000000  -0.000000
    33  C   -0.002788   0.000004   0.000000   0.000017  -0.000000   0.000000
    34  H    0.000019   0.000000  -0.000000   0.000010   0.000000   0.000000
    35  H    0.000056  -0.000000   0.000000   0.000001  -0.000000  -0.000000
    36  H   -0.000156  -0.000001  -0.000000  -0.000001  -0.000000  -0.000000
    37  C   -0.013783  -0.001433  -0.000000  -0.000009   0.000000   0.000000
    38  H   -0.000509   0.000160   0.000000   0.000000  -0.000000  -0.000000
    39  H   -0.015037   0.000677  -0.000000  -0.000006   0.000000  -0.000000
    40  H    0.000894   0.000245   0.000000   0.000000   0.000000   0.000000
    41  C   -0.002764   0.000035   0.000000   0.000003   0.000000   0.000000
    42  H   -0.000009   0.000009   0.000000   0.000000  -0.000000  -0.000000
    43  H    0.000105  -0.000000  -0.000000  -0.000000   0.000000   0.000000
    44  H   -0.000173  -0.000000  -0.000000  -0.000001   0.000000   0.000000
              19         20         21         22         23         24
     1  C   -0.003825  -0.073604  -0.002661   0.018744   0.013882   0.000001
     2  C   -0.027929   0.024184   0.022405  -0.004518  -0.113475  -0.000320
     3  S    0.317402  -0.000270   0.000004  -0.000000   0.006176  -0.000140
     4  C   -0.009420  -0.005178  -0.088709   0.025954   0.350235   0.000384
     5  C   -0.000024  -0.000006  -0.001197  -0.000072   0.078068   0.008768
     6  C    0.000048  -0.000003   0.011245  -0.000406  -0.147433   0.017026
     7  C   -0.000468   0.434762   0.013993  -0.062697  -0.000577  -0.000003
     8  C    0.001848   0.021352   0.414607  -0.065992  -0.093319  -0.000079
     9  H   -0.000049   0.000001   0.001459  -0.000033   0.318930  -0.000119
    10  C    0.000061   0.000001   0.000882  -0.000014   0.033511  -0.066465
    11  C   -0.000001  -0.000001  -0.000701  -0.000008  -0.003488   0.057754
    12  C    0.000001   0.000000   0.000379  -0.000006  -0.008439  -0.181312
    13  C    0.000001  -0.000000  -0.000269   0.000003   0.002690  -0.421060
    14  H   -0.000011  -0.000000  -0.000009   0.000000   0.011391   0.013931
    15  H   -0.000000  -0.000000  -0.000145   0.000014   0.000374   0.002440
    16  H   -0.000000  -0.000000  -0.000000   0.000000   0.000047   0.002719
    17  C   -0.000197  -0.066427  -0.024289   0.425969   0.021252   0.000016
    18  H   -0.000317  -0.008026  -0.000042  -0.000119  -0.000373   0.000000
    19  H    0.596166   0.000009   0.000029  -0.000003   0.002904  -0.000001
    20  H    0.000009   0.549955  -0.000228  -0.008590   0.000036  -0.000000
    21  H    0.000029  -0.000228   0.545813  -0.007724  -0.014382  -0.000021
    22  H   -0.000003  -0.008590  -0.007724   0.550684  -0.000293   0.000000
    23  S    0.002904   0.000036  -0.014382  -0.000293  15.418275   0.008685
    24  C   -0.000001  -0.000000  -0.000021   0.000000   0.008685   7.217342
    25  C    0.000000   0.000000   0.000000  -0.000000   0.000190  -0.001633
    26  C    0.000000  -0.000000  -0.000000   0.000000   0.000230   0.078291
    27  N   -0.000000   0.000000  -0.000000   0.000000   0.000000  -0.153670
    28  N   -0.000000   0.000000  -0.000000   0.000000   0.000011  -0.146120
    29  C    0.000000   0.000000   0.000000  -0.000000  -0.000000  -0.002825
    30  H   -0.000000  -0.000000  -0.000000   0.000000   0.000000   0.005657
    31  H   -0.000000  -0.000000  -0.000000   0.000000   0.000001   0.009085
    32  H   -0.000000   0.000000   0.000000  -0.000000   0.000000  -0.003320
    33  C    0.000000   0.000000   0.000000  -0.000000   0.000000  -0.014291
    34  H    0.000000  -0.000000  -0.000000   0.000000  -0.000000   0.001161
    35  H   -0.000000   0.000000   0.000000  -0.000000  -0.000000  -0.002352
    36  H    0.000000   0.000000   0.000000   0.000000  -0.000000   0.007314
    37  C    0.000004  -0.000000   0.000000   0.000000  -0.000062  -0.002899
    38  H   -0.000000   0.000000   0.000000  -0.000000   0.000009   0.005271
    39  H   -0.000010   0.000000  -0.000000   0.000000   0.000136   0.007475
    40  H   -0.000000  -0.000000  -0.000000   0.000000   0.000002  -0.003030
    41  C    0.000000  -0.000000  -0.000000   0.000000   0.000000  -0.012880
    42  H    0.000000   0.000000   0.000000  -0.000000  -0.000000   0.000831
    43  H   -0.000000  -0.000000  -0.000000   0.000000   0.000000  -0.001849
    44  H   -0.000000  -0.000000  -0.000000   0.000000  -0.000000   0.006801
              25         26         27         28         29         30
     1  C   -0.000000   0.000000  -0.000000   0.000000  -0.000000   0.000000
     2  C   -0.000003  -0.000010  -0.000000  -0.000000   0.000000  -0.000000
     3  S   -0.000005  -0.000023  -0.000000   0.000003  -0.000000   0.000000
     4  C    0.000005   0.000011   0.000000  -0.000000  -0.000000   0.000000
     5  C   -0.017015   0.022922  -0.000074  -0.000120  -0.000132   0.000006
     6  C   -0.002855   0.001985   0.000020   0.000016   0.000072   0.000000
     7  C    0.000000  -0.000000   0.000000   0.000000   0.000000  -0.000000
     8  C    0.000001  -0.000008   0.000000  -0.000000   0.000000  -0.000000
     9  H   -0.000005   0.000001  -0.000000  -0.000000  -0.000000  -0.000000
    10  C    0.061588  -0.073503   0.000384   0.001576   0.000162  -0.000034
    11  C    0.014612  -0.001954   0.000227   0.000012  -0.000360  -0.000074
    12  C   -0.059750   0.032284   0.001043   0.000153  -0.002434   0.000096
    13  C   -0.421979  -0.349811  -0.025723  -0.023439  -0.011752  -0.000258
    14  H    0.005148   0.005851   0.000055   0.000473   0.000004   0.000000
    15  H    0.000307   0.000100   0.000007   0.000000  -0.000041  -0.000000
    16  H    0.002547   0.004768   0.000241   0.000036  -0.001562   0.000025
    17  C   -0.000000   0.000000   0.000000   0.000000  -0.000000   0.000000
    18  H    0.000000   0.000000   0.000000   0.000000  -0.000000   0.000000
    19  H    0.000000   0.000000  -0.000000  -0.000000   0.000000  -0.000000
    20  H    0.000000  -0.000000   0.000000   0.000000   0.000000  -0.000000
    21  H    0.000000  -0.000000  -0.000000  -0.000000   0.000000  -0.000000
    22  H   -0.000000   0.000000   0.000000   0.000000  -0.000000   0.000000
    23  S    0.000190   0.000230   0.000000   0.000011  -0.000000   0.000000
    24  C   -0.001633   0.078291  -0.153670  -0.146120  -0.002825   0.005657
    25  C    6.218224  -0.211968   0.555053  -0.075416  -0.047641  -0.000903
    26  C   -0.211968   6.111838  -0.079622   0.542848  -0.001543  -0.001248
    27  N    0.555053  -0.079622   6.424720  -0.000895   0.229224  -0.035883
    28  N   -0.075416   0.542848  -0.000895   6.426206  -0.000668   0.000004
    29  C   -0.047641  -0.001543   0.229224  -0.000668   4.939858   0.405855
    30  H   -0.000903  -0.001248  -0.035883   0.000004   0.405855   0.512624
    31  H   -0.017359   0.018051  -0.026307   0.000082   0.390789  -0.017063
    32  H    0.005926  -0.001145  -0.041021  -0.000003   0.407506  -0.031926
    33  C   -0.059188  -0.008746   0.247972   0.000405  -0.061874  -0.009779
    34  H    0.008729  -0.001085  -0.038950  -0.000022  -0.002080   0.006310
    35  H   -0.002798   0.002987  -0.039748  -0.000072  -0.005813  -0.001179
    36  H   -0.013331   0.000399  -0.026996  -0.001897   0.009696  -0.000053
    37  C    0.002505  -0.050944  -0.000621   0.227900   0.000020  -0.000002
    38  H   -0.001319  -0.000488   0.000004  -0.035497  -0.000002  -0.000000
    39  H    0.015733  -0.015041   0.000060  -0.026233   0.000006  -0.000000
    40  H   -0.001321   0.006012  -0.000006  -0.041513  -0.000000   0.000000
    41  C   -0.007600  -0.060757   0.000359   0.247403  -0.000150   0.000004
    42  H   -0.001012   0.008885  -0.000017  -0.038329   0.000000  -0.000000
    43  H    0.003003  -0.002848  -0.000087  -0.040587   0.000007   0.000001
    44  H   -0.000190  -0.013341  -0.001810  -0.026389   0.000001   0.000001
              31         32         33         34         35         36
     1  C    0.000000  -0.000000  -0.000000   0.000000  -0.000000   0.000000
     2  C   -0.000000  -0.000000  -0.000000  -0.000000   0.000000   0.000000
     3  S    0.000000   0.000000  -0.000000   0.000000  -0.000000   0.000000
     4  C    0.000000  -0.000000   0.000000   0.000000  -0.000000  -0.000000
     5  C    0.000131  -0.000003  -0.000015   0.000000  -0.000000  -0.000000
     6  C   -0.000060  -0.000000  -0.000001   0.000000  -0.000000   0.000000
     7  C   -0.000000   0.000000   0.000000  -0.000000   0.000000   0.000000
     8  C   -0.000000  -0.000000   0.000000  -0.000000   0.000000  -0.000000
     9  H    0.000000   0.000000  -0.000000  -0.000000   0.000000   0.000000
    10  C   -0.000411   0.000028   0.000090  -0.000002  -0.000000   0.000006
    11  C    0.000118   0.000054   0.000015  -0.000002   0.000001   0.000000
    12  C    0.005682  -0.000099  -0.000032  -0.000002  -0.000010   0.000010
    13  C   -0.016169   0.000657  -0.002788   0.000019   0.000056  -0.000156
    14  H   -0.000016   0.000000   0.000004   0.000000  -0.000000  -0.000001
    15  H    0.000032   0.000001   0.000000  -0.000000   0.000000  -0.000000
    16  H   -0.000174   0.000298   0.000017   0.000010   0.000001  -0.000001
    17  C    0.000000  -0.000000  -0.000000   0.000000  -0.000000  -0.000000
    18  H    0.000000  -0.000000   0.000000   0.000000  -0.000000  -0.000000
    19  H   -0.000000  -0.000000   0.000000   0.000000  -0.000000   0.000000
    20  H   -0.000000   0.000000   0.000000  -0.000000   0.000000   0.000000
    21  H   -0.000000   0.000000   0.000000  -0.000000   0.000000   0.000000
    22  H    0.000000  -0.000000  -0.000000   0.000000  -0.000000   0.000000
    23  S    0.000001   0.000000   0.000000  -0.000000  -0.000000  -0.000000
    24  C    0.009085  -0.003320  -0.014291   0.001161  -0.002352   0.007314
    25  C   -0.017359   0.005926  -0.059188   0.008729  -0.002798  -0.013331
    26  C    0.018051  -0.001145  -0.008746  -0.001085   0.002987   0.000399
    27  N   -0.026307  -0.041021   0.247972  -0.038950  -0.039748  -0.026996
    28  N    0.000082  -0.000003   0.000405  -0.000022  -0.000072  -0.001897
    29  C    0.390789   0.407506  -0.061874  -0.002080  -0.005813   0.009696
    30  H   -0.017063  -0.031926  -0.009779   0.006310  -0.001179  -0.000053
    31  H    0.510753  -0.021039   0.008405   0.000429  -0.000277  -0.000490
    32  H   -0.021039   0.517290   0.000934  -0.003133   0.005390   0.000100
    33  C    0.008405   0.000934   4.942529   0.399077   0.415808   0.392618
    34  H    0.000429  -0.003133   0.399077   0.513837  -0.030238  -0.020040
    35  H   -0.000277   0.005390   0.415808  -0.030238   0.509123  -0.023567
    36  H   -0.000490   0.000100   0.392618  -0.020040  -0.023567   0.535804
    37  C    0.000006  -0.000000  -0.000137  -0.000000   0.000007   0.000010
    38  H   -0.000000   0.000000   0.000004  -0.000000   0.000001   0.000001
    39  H   -0.000001   0.000000   0.000022  -0.000000   0.000000   0.000004
    40  H    0.000000  -0.000000  -0.000006   0.000000  -0.000000   0.000000
    41  C    0.000029  -0.000004  -0.003459   0.000185  -0.000097  -0.002092
    42  H   -0.000001   0.000000   0.000191  -0.000007   0.000014   0.000253
    43  H    0.000000  -0.000000  -0.000114   0.000017  -0.000025  -0.000144
    44  H    0.000005   0.000001  -0.002394   0.000250  -0.000109   0.002809
              37         38         39         40         41         42
     1  C   -0.000000  -0.000000   0.000003   0.000000   0.000000  -0.000000
     2  C   -0.000002   0.000000   0.000002  -0.000000  -0.000000   0.000000
     3  S   -0.000230   0.000008   0.000680   0.000012  -0.000000  -0.000000
     4  C    0.000012  -0.000000  -0.000028   0.000000   0.000000  -0.000000
     5  C   -0.000328  -0.000127  -0.000037   0.000081   0.000027  -0.000002
     6  C    0.000027  -0.000006  -0.000046   0.000003   0.000001  -0.000000
     7  C   -0.000000   0.000000   0.000000  -0.000000  -0.000000   0.000000
     8  C   -0.000000   0.000000  -0.000001  -0.000000  -0.000000   0.000000
     9  H   -0.000002   0.000000   0.000006   0.000000   0.000000   0.000000
    10  C   -0.002052   0.000157   0.006125  -0.000146  -0.000012  -0.000004
    11  C   -0.000015   0.000005   0.000027  -0.000003  -0.000003   0.000000
    12  C   -0.000135  -0.000029  -0.000049   0.000023   0.000062  -0.000001
    13  C   -0.013783  -0.000509  -0.015037   0.000894  -0.002764  -0.000009
    14  H   -0.001433   0.000160   0.000677   0.000245   0.000035   0.000009
    15  H   -0.000000   0.000000  -0.000000   0.000000   0.000000   0.000000
    16  H   -0.000009   0.000000  -0.000006   0.000000   0.000003   0.000000
    17  C    0.000000  -0.000000   0.000000   0.000000   0.000000  -0.000000
    18  H    0.000000  -0.000000  -0.000000   0.000000   0.000000  -0.000000
    19  H    0.000004  -0.000000  -0.000010  -0.000000   0.000000   0.000000
    20  H   -0.000000   0.000000   0.000000  -0.000000  -0.000000   0.000000
    21  H    0.000000   0.000000  -0.000000  -0.000000  -0.000000   0.000000
    22  H    0.000000  -0.000000   0.000000   0.000000   0.000000  -0.000000
    23  S   -0.000062   0.000009   0.000136   0.000002   0.000000  -0.000000
    24  C   -0.002899   0.005271   0.007475  -0.003030  -0.012880   0.000831
    25  C    0.002505  -0.001319   0.015733  -0.001321  -0.007600  -0.001012
    26  C   -0.050944  -0.000488  -0.015041   0.006012  -0.060757   0.008885
    27  N   -0.000621   0.000004   0.000060  -0.000006   0.000359  -0.000017
    28  N    0.227900  -0.035497  -0.026233  -0.041513   0.247403  -0.038329
    29  C    0.000020  -0.000002   0.000006  -0.000000  -0.000150   0.000000
    30  H   -0.000002  -0.000000  -0.000000   0.000000   0.000004  -0.000000
    31  H    0.000006  -0.000000  -0.000001   0.000000   0.000029  -0.000001
    32  H   -0.000000   0.000000   0.000000  -0.000000  -0.000004   0.000000
    33  C   -0.000137   0.000004   0.000022  -0.000006  -0.003459   0.000191
    34  H   -0.000000  -0.000000  -0.000000   0.000000   0.000185  -0.000007
    35  H    0.000007   0.000001   0.000000  -0.000000  -0.000097   0.000014
    36  H    0.000010   0.000001   0.000004   0.000000  -0.002092   0.000253
    37  C    4.948060   0.404677   0.388817   0.407393  -0.061702  -0.002215
    38  H    0.404677   0.515294  -0.016996  -0.031927  -0.009957   0.006349
    39  H    0.388817  -0.016996   0.509001  -0.020575   0.008434   0.000452
    40  H    0.407393  -0.031927  -0.020575   0.516238   0.001056  -0.003134
    41  C   -0.061702  -0.009957   0.008434   0.001056   4.943410   0.398391
    42  H   -0.002215   0.006349   0.000452  -0.003134   0.398391   0.514659
    43  H   -0.005756  -0.001179  -0.000276   0.005344   0.416102  -0.030142
    44  H    0.009620  -0.000035  -0.000479   0.000081   0.393493  -0.020031
              43         44
     1  C    0.000000   0.000000
     2  C   -0.000000   0.000000
     3  S    0.000000   0.000000
     4  C    0.000000   0.000000
     5  C    0.000001   0.000000
     6  C    0.000000   0.000000
     7  C   -0.000000  -0.000000
     8  C   -0.000000   0.000000
     9  H   -0.000000   0.000000
    10  C   -0.000011   0.000009
    11  C   -0.000000  -0.000000
    12  C   -0.000001   0.000007
    13  C    0.000105  -0.000173
    14  H   -0.000000  -0.000000
    15  H   -0.000000  -0.000000
    16  H   -0.000000  -0.000001
    17  C    0.000000   0.000000
    18  H    0.000000   0.000000
    19  H   -0.000000  -0.000000
    20  H   -0.000000  -0.000000
    21  H   -0.000000  -0.000000
    22  H    0.000000   0.000000
    23  S    0.000000  -0.000000
    24  C   -0.001849   0.006801
    25  C    0.003003  -0.000190
    26  C   -0.002848  -0.013341
    27  N   -0.000087  -0.001810
    28  N   -0.040587  -0.026389
    29  C    0.000007   0.000001
    30  H    0.000001   0.000001
    31  H    0.000000   0.000005
    32  H   -0.000000   0.000001
    33  C   -0.000114  -0.002394
    34  H    0.000017   0.000250
    35  H   -0.000025  -0.000109
    36  H   -0.000144   0.002809
    37  C   -0.005756   0.009620
    38  H   -0.001179  -0.000035
    39  H   -0.000276  -0.000479
    40  H    0.005344   0.000081
    41  C    0.416102   0.393493
    42  H   -0.030142  -0.020031
    43  H    0.508898  -0.023840
    44  H   -0.023840   0.534500
 Mulliken charges:
               1
     1  C   -0.049757
     2  C   -0.236011
     3  S   -0.080368
     4  C    0.022518
     5  C   -0.193659
     6  C    0.128975
     7  C   -0.065360
     8  C    0.020247
     9  H    0.140043
    10  C   -0.116601
    11  C   -0.265081
    12  C   -0.041347
    13  C    0.073695
    14  H    0.143300
    15  H    0.127700
    16  H    0.138098
    17  C   -0.137772
    18  H    0.141716
    19  H    0.123784
    20  H    0.132033
    21  H    0.129559
    22  H    0.129109
    23  S    0.114804
    24  C   -0.436564
    25  C    0.049718
    26  C    0.036623
    27  N    0.012060
    28  N    0.010073
    29  C   -0.244320
    30  H    0.167819
    31  H    0.155764
    32  H    0.163510
    33  C   -0.245267
    34  H    0.165535
    35  H    0.172898
    36  H    0.139744
    37  C   -0.246730
    38  H    0.166131
    39  H    0.157156
    40  H    0.164279
    41  C   -0.247517
    42  H    0.164870
    43  H    0.173379
    44  H    0.141216
 Sum of Mulliken charges =   1.00000
 Mulliken charges with hydrogens summed into heavy atoms:
               1
     1  C    0.091959
     2  C   -0.236011
     3  S    0.043415
     4  C    0.022518
     5  C   -0.193659
     6  C    0.128975
     7  C    0.066672
     8  C    0.149806
    10  C    0.026699
    11  C   -0.137381
    12  C    0.096750
    13  C    0.073695
    17  C   -0.008663
    23  S    0.254847
    24  C   -0.436564
    25  C    0.049718
    26  C    0.036623
    27  N    0.012060
    28  N    0.010073
    29  C    0.242773
    33  C    0.232910
    37  C    0.240836
    41  C    0.231948
 Electronic spatial extent (au):  <R**2>=          12335.3551
 Charge=              1.0000 electrons
 Dipole moment (field-independent basis, Debye):
    X=            -12.4809    Y=              1.2017    Z=              0.5043  Tot=             12.5487
 Quadrupole moment (field-independent basis, Debye-Ang):
   XX=            -28.2430   YY=           -114.6632   ZZ=           -141.3515
   XY=             -6.8643   XZ=              4.8114   YZ=              3.2436
 Traceless Quadrupole moment (field-independent basis, Debye-Ang):
   XX=             66.5096   YY=            -19.9106   ZZ=            -46.5989
   XY=             -6.8643   XZ=              4.8114   YZ=              3.2436
 Octapole moment (field-independent basis, Debye-Ang**2):
  XXX=           -403.0981  YYY=             37.3470  ZZZ=              9.2974  XYY=            -90.9253
  XXY=            -38.6774  XXZ=            -51.3475  XZZ=             11.6719  YZZ=              1.5584
  YYZ=             -3.0161  XYZ=              1.5591
 Hexadecapole moment (field-independent basis, Debye-Ang**3):
 XXXX=          -9412.7360 YYYY=          -2558.6177 ZZZZ=           -705.3743 XXXY=            -30.8713
 XXXZ=            -97.8462 YYYX=            -91.8862 YYYZ=             61.5035 ZZZX=             20.9281
 ZZZY=            -11.9266 XXYY=          -2024.5127 XXZZ=          -2138.5646 YYZZ=           -598.9514
 XXYZ=             59.6297 YYXZ=             52.8569 ZZXY=            -18.9749
 N-N= 2.022484843669D+03 E-N=-7.878564118871D+03  KE= 1.634565391383D+03
 No NMR shielding tensors so no spin-rotation constants.
 Leave Link  601 at Tue Jan 26 22:55:59 2021, MaxMem=  4026531840 cpu:               5.0 elap:               0.8
 (Enter /opt/ohpc/pub/libs/gaussian/g16-A.03/sandybridge/g16/l9999.exe)

 Test job not archived.
 1\1\GINC-GNODE020\SP\RLC-wHPBE\TZVP\C19H21N2S2(1+)\RDU230\26-Jan-2021\
 0\\#P LC-wHPBE/TZVP iop(3/107=0173900000, 3/108=0173900000) scf=(conve
 r=6,fermi,ndamp=35,noincfock,novaracc,vshift=500,xqc)\\H21 C19 S2 N2\\
 1,1\C,0,5.141333,0.341453,-1.428653\C,0,4.24633,0.793113,-0.45792\S,0,
 3.527427,2.438238,-0.612926\C,0,3.85258,-0.085202,0.570411\C,0,0.86370
 8,-0.787434,0.770822\C,0,1.152588,-1.949541,0.292605\C,0,5.641454,-0.9
 63707,-1.38032\C,0,4.337968,-1.397272,0.611701\H,0,2.805747,-0.536686,
 2.620663\C,0,-0.32759,-0.104924,0.757243\C,0,0.161049,-2.709273,-0.336
 618\C,0,-1.110551,-2.125038,-0.416532\C,0,-1.366563,-0.836811,0.116144
 \H,0,-0.506361,0.876389,1.203135\H,0,0.333628,-3.701573,-0.760587\H,0,
 -1.915541,-2.656529,-0.930176\C,0,5.242141,-1.827604,-0.363151\H,0,5.4
 50891,1.02542,-2.21936\H,0,4.15948,2.9901,0.460876\H,0,6.34791,-1.2988
 86,-2.140548\H,0,4.022912,-2.077842,1.402557\H,0,5.625918,-2.84765,-0.
 32369\S,0,2.641644,0.489998,1.741439\C,0,-2.680648,-0.257498,0.003764\
 C,0,-4.05427,-0.413992,-0.132503\C,0,-3.489875,0.870167,-0.052158\N,0,
 -5.09974,-1.211802,-0.243141\N,0,-3.607387,2.185094,-0.049886\C,0,-4.9
 5887,-2.66296,-0.086881\H,0,-5.24939,-3.175063,-1.01565\H,0,-3.921906,
 -2.911213,0.159186\H,0,-5.607057,-3.011636,0.730112\C,0,-6.456302,-0.7
 08508,-0.463149\H,0,-6.932296,-1.289768,-1.265044\H,0,-7.06234,-0.8046
 38,0.450448\H,0,-6.424137,0.340187,-0.774131\C,0,-2.422516,3.047015,-0
 .104701\H,0,-2.374233,3.683098,0.791036\H,0,-1.518165,2.434104,-0.1685
 34\H,0,-2.472812,3.689712,-0.995626\C,0,-4.905946,2.85982,-0.071613\H,
 0,-4.903422,3.671788,0.668659\H,0,-5.109136,3.28812,-1.064906\H,0,-5.7
 0105,2.156915,0.195603\\Version=EM64L-G16RevA.03\State=1-A\HF=-1641.31
 4495\RMSD=6.772e-07\Dipole=-4.9103582,0.4727659,0.1983982\Quadrupole=4
 9.4482282,-14.8030599,-34.6451683,-5.1034271,3.577124,2.4115493\PG=C01
  [X(C19H21N2S2)]\\@


 TO BEHOLD HARMS OF OUR OWN HANDS DOING,
 WHERE NONE BESIDE US WROUGHT,
 CAUSES SHARP RUING...

                                         SOPHOCLES
 Job cpu time:       0 days  1 hours 36 minutes 58.5 seconds.
 Elapsed time:       0 days  0 hours 12 minutes  8.9 seconds.
 File lengths (MBytes):  RWF=    156 Int=      0 D2E=      0 Chk=     24 Scr=      8
 Normal termination of Gaussian 16 at Tue Jan 26 22:56:00 2021.
