 Entering Gaussian System, Link 0=g16
 Input=mol_ta_cp_half_tune_c0.gjf
 Output=mol_ta_cp_half_tune_c0.log
 Initial command:
 /opt/ohpc/pub/libs/gaussian/g16-A.03/sandybridge/g16/l1.exe "/mnt/gpfs2_4m/scratch/rdu230/ondemand/projects/init_structures/gaussian/wtuning/mol_ta_cp_half/tuning_mol_ta_cp_half_ocycle0/Gau-117751.inp" -scrdir="/mnt/gpfs2_4m/scratch/rdu230/ondemand/projects/init_structures/gaussian/wtuning/mol_ta_cp_half/tuning_mol_ta_cp_half_ocycle0/"
 Entering Link 1 = /opt/ohpc/pub/libs/gaussian/g16-A.03/sandybridge/g16/l1.exe PID=    117752.
  
 Copyright (c) 1988,1990,1992,1993,1995,1998,2003,2009,2016,
            Gaussian, Inc.  All Rights Reserved.
  
 This is part of the Gaussian(R) 16 program.  It is based on
 the Gaussian(R) 09 system (copyright 2009, Gaussian, Inc.),
 the Gaussian(R) 03 system (copyright 2003, Gaussian, Inc.),
 the Gaussian(R) 98 system (copyright 1998, Gaussian, Inc.),
 the Gaussian(R) 94 system (copyright 1995, Gaussian, Inc.),
 the Gaussian 92(TM) system (copyright 1992, Gaussian, Inc.),
 the Gaussian 90(TM) system (copyright 1990, Gaussian, Inc.),
 the Gaussian 88(TM) system (copyright 1988, Gaussian, Inc.),
 the Gaussian 86(TM) system (copyright 1986, Carnegie Mellon
 University), and the Gaussian 82(TM) system (copyright 1983,
 Carnegie Mellon University). Gaussian is a federally registered
 trademark of Gaussian, Inc.
  
 This software contains proprietary and confidential information,
 including trade secrets, belonging to Gaussian, Inc.
  
 This software is provided under written license and may be
 used, copied, transmitted, or stored only in accord with that
 written license.
  
 The following legend is applicable only to US Government
 contracts under FAR:
  
                    RESTRICTED RIGHTS LEGEND
  
 Use, reproduction and disclosure by the US Government is
 subject to restrictions as set forth in subparagraphs (a)
 and (c) of the Commercial Computer Software - Restricted
 Rights clause in FAR 52.227-19.
  
 Gaussian, Inc.
 340 Quinnipiac St., Bldg. 40, Wallingford CT 06492
  
  
 ---------------------------------------------------------------
 Warning -- This program may not be used in any manner that
 competes with the business of Gaussian, Inc. or will provide
 assistance to any competitor of Gaussian, Inc.  The licensee
 of this program is prohibited from giving any competitor of
 Gaussian, Inc. access to this program.  By using this program,
 the user acknowledges that Gaussian, Inc. is engaged in the
 business of creating and licensing software in the field of
 computational chemistry and represents and warrants to the
 licensee that it is not a competitor of Gaussian, Inc. and that
 it will not use this program in any manner prohibited above.
 ---------------------------------------------------------------
  

 Cite this work as:
 Gaussian 16, Revision A.03,
 M. J. Frisch, G. W. Trucks, H. B. Schlegel, G. E. Scuseria, 
 M. A. Robb, J. R. Cheeseman, G. Scalmani, V. Barone, 
 G. A. Petersson, H. Nakatsuji, X. Li, M. Caricato, A. V. Marenich, 
 J. Bloino, B. G. Janesko, R. Gomperts, B. Mennucci, H. P. Hratchian, 
 J. V. Ortiz, A. F. Izmaylov, J. L. Sonnenberg, D. Williams-Young, 
 F. Ding, F. Lipparini, F. Egidi, J. Goings, B. Peng, A. Petrone, 
 T. Henderson, D. Ranasinghe, V. G. Zakrzewski, J. Gao, N. Rega, 
 G. Zheng, W. Liang, M. Hada, M. Ehara, K. Toyota, R. Fukuda, 
 J. Hasegawa, M. Ishida, T. Nakajima, Y. Honda, O. Kitao, H. Nakai, 
 T. Vreven, K. Throssell, J. A. Montgomery, Jr., J. E. Peralta, 
 F. Ogliaro, M. J. Bearpark, J. J. Heyd, E. N. Brothers, K. N. Kudin, 
 V. N. Staroverov, T. A. Keith, R. Kobayashi, J. Normand, 
 K. Raghavachari, A. P. Rendell, J. C. Burant, S. S. Iyengar, 
 J. Tomasi, M. Cossi, J. M. Millam, M. Klene, C. Adamo, R. Cammi, 
 J. W. Ochterski, R. L. Martin, K. Morokuma, O. Farkas, 
 J. B. Foresman, and D. J. Fox, Gaussian, Inc., Wallingford CT, 2016.
 
 ******************************************
 Gaussian 16:  EM64L-G16RevA.03 25-Dec-2016
                26-Jan-2021 
 ******************************************
 %mem=30GB
 %nproc=8
 Will use up to    8 processors via shared memory.
 ----------------------------------------------------------------------
 #P LC-wHPBE/TZVP iop(3/107=0221900000, 3/108=0221900000) scf=(conver=6
 ,fermi,ndamp=35,noincfock,novaracc,vshift=500,xqc)
 ----------------------------------------------------------------------
 1/38=1,172=1/1;
 2/12=2,17=6,18=5,40=1/2;
 3/5=19,7=101,11=2,25=1,30=1,74=-71,107=221900000,108=221900000/1,2,3;
 4//1;
 5/5=100002,6=6,8=3,10=500,13=1,18=-1,22=13,38=1,93=35/2,8;
 6/7=2,8=2,9=2,10=2,28=1/1;
 99/5=1,9=1/99;
 Leave Link    1 at Tue Jan 26 14:45:08 2021, MaxMem=  4026531840 cpu:               1.3 elap:               0.2
 (Enter /opt/ohpc/pub/libs/gaussian/g16-A.03/sandybridge/g16/l101.exe)
 -------------
 H21 C19 S2 N2
 -------------
 Symbolic Z-matrix:
 Charge =  2 Multiplicity = 2
 C                     5.14133   0.34145  -1.42865 
 C                     4.24633   0.79311  -0.45792 
 S                     3.52743   2.43824  -0.61293 
 C                     3.85258  -0.0852    0.57041 
 C                     0.86371  -0.78743   0.77082 
 C                     1.15259  -1.94954   0.29261 
 C                     5.64145  -0.96371  -1.38032 
 C                     4.33797  -1.39727   0.6117 
 H                     2.80575  -0.53669   2.62066 
 C                    -0.32759  -0.10492   0.75724 
 C                     0.16105  -2.70927  -0.33662 
 C                    -1.11055  -2.12504  -0.41653 
 C                    -1.36656  -0.83681   0.11614 
 H                    -0.50636   0.87639   1.20314 
 H                     0.33363  -3.70157  -0.76059 
 H                    -1.91554  -2.65653  -0.93018 
 C                     5.24214  -1.8276   -0.36315 
 H                     5.45089   1.02542  -2.21936 
 H                     4.15948   2.9901    0.46088 
 H                     6.34791  -1.29889  -2.14055 
 H                     4.02291  -2.07784   1.40256 
 H                     5.62592  -2.84765  -0.32369 
 S                     2.64164   0.49      1.74144 
 C                    -2.68065  -0.2575    0.00376 
 C                    -4.05427  -0.41399  -0.1325 
 C                    -3.48988   0.87017  -0.05216 
 N                    -5.09974  -1.2118   -0.24314 
 N                    -3.60739   2.18509  -0.04989 
 C                    -4.95887  -2.66296  -0.08688 
 H                    -5.24939  -3.17506  -1.01565 
 H                    -3.92191  -2.91121   0.15919 
 H                    -5.60706  -3.01164   0.73011 
 C                    -6.4563   -0.70851  -0.46315 
 H                    -6.9323   -1.28977  -1.26504 
 H                    -7.06234  -0.80464   0.45045 
 H                    -6.42414   0.34019  -0.77413 
 C                    -2.42252   3.04702  -0.1047 
 H                    -2.37423   3.6831    0.79104 
 H                    -1.51817   2.4341   -0.16853 
 H                    -2.47281   3.68971  -0.99563 
 C                    -4.90595   2.85982  -0.07161 
 H                    -4.90342   3.67179   0.66866 
 H                    -5.10914   3.28812  -1.06491 
 H                    -5.70105   2.15692   0.1956 
 
 ITRead=  0  0  0  0  0  0  0  0  0  0  0  0  0  0  0  0  0  0  0  0
 ITRead=  0  0  0  0  0  0  0  0  0  0  0  0  0  0  0  0  0  0  0  0
 ITRead=  0  0  0  0
 MicOpt= -1 -1 -1 -1 -1 -1 -1 -1 -1 -1 -1 -1 -1 -1 -1 -1 -1 -1 -1 -1
 MicOpt= -1 -1 -1 -1 -1 -1 -1 -1 -1 -1 -1 -1 -1 -1 -1 -1 -1 -1 -1 -1
 MicOpt= -1 -1 -1 -1
 NAtoms=     44 NQM=       44 NQMF=       0 NMMI=      0 NMMIF=      0
                NMic=       0 NMicF=      0.
                    Isotopes and Nuclear Properties:
 (Nuclear quadrupole moments (NQMom) in fm**2, nuclear magnetic moments (NMagM)
  in nuclear magnetons)

  Atom         1           2           3           4           5           6           7           8           9          10
 IAtWgt=          12          12          32          12          12          12          12          12           1          12
 AtmWgt=  12.0000000  12.0000000  31.9720718  12.0000000  12.0000000  12.0000000  12.0000000  12.0000000   1.0078250  12.0000000
 NucSpn=           0           0           0           0           0           0           0           0           1           0
 AtZEff=  -0.0000000  -0.0000000  -0.0000000  -0.0000000  -0.0000000  -0.0000000  -0.0000000  -0.0000000  -0.0000000  -0.0000000
 NQMom=    0.0000000   0.0000000   0.0000000   0.0000000   0.0000000   0.0000000   0.0000000   0.0000000   0.0000000   0.0000000
 NMagM=    0.0000000   0.0000000   0.0000000   0.0000000   0.0000000   0.0000000   0.0000000   0.0000000   2.7928460   0.0000000
 AtZNuc=   6.0000000   6.0000000  16.0000000   6.0000000   6.0000000   6.0000000   6.0000000   6.0000000   1.0000000   6.0000000

  Atom        11          12          13          14          15          16          17          18          19          20
 IAtWgt=          12          12          12           1           1           1          12           1           1           1
 AtmWgt=  12.0000000  12.0000000  12.0000000   1.0078250   1.0078250   1.0078250  12.0000000   1.0078250   1.0078250   1.0078250
 NucSpn=           0           0           0           1           1           1           0           1           1           1
 AtZEff=  -0.0000000  -0.0000000  -0.0000000  -0.0000000  -0.0000000  -0.0000000  -0.0000000  -0.0000000  -0.0000000  -0.0000000
 NQMom=    0.0000000   0.0000000   0.0000000   0.0000000   0.0000000   0.0000000   0.0000000   0.0000000   0.0000000   0.0000000
 NMagM=    0.0000000   0.0000000   0.0000000   2.7928460   2.7928460   2.7928460   0.0000000   2.7928460   2.7928460   2.7928460
 AtZNuc=   6.0000000   6.0000000   6.0000000   1.0000000   1.0000000   1.0000000   6.0000000   1.0000000   1.0000000   1.0000000

  Atom        21          22          23          24          25          26          27          28          29          30
 IAtWgt=           1           1          32          12          12          12          14          14          12           1
 AtmWgt=   1.0078250   1.0078250  31.9720718  12.0000000  12.0000000  12.0000000  14.0030740  14.0030740  12.0000000   1.0078250
 NucSpn=           1           1           0           0           0           0           2           2           0           1
 AtZEff=  -0.0000000  -0.0000000  -0.0000000  -0.0000000  -0.0000000  -0.0000000  -0.0000000  -0.0000000  -0.0000000  -0.0000000
 NQMom=    0.0000000   0.0000000   0.0000000   0.0000000   0.0000000   0.0000000   2.0440000   2.0440000   0.0000000   0.0000000
 NMagM=    2.7928460   2.7928460   0.0000000   0.0000000   0.0000000   0.0000000   0.4037610   0.4037610   0.0000000   2.7928460
 AtZNuc=   1.0000000   1.0000000  16.0000000   6.0000000   6.0000000   6.0000000   7.0000000   7.0000000   6.0000000   1.0000000

  Atom        31          32          33          34          35          36          37          38          39          40
 IAtWgt=           1           1          12           1           1           1          12           1           1           1
 AtmWgt=   1.0078250   1.0078250  12.0000000   1.0078250   1.0078250   1.0078250  12.0000000   1.0078250   1.0078250   1.0078250
 NucSpn=           1           1           0           1           1           1           0           1           1           1
 AtZEff=  -0.0000000  -0.0000000  -0.0000000  -0.0000000  -0.0000000  -0.0000000  -0.0000000  -0.0000000  -0.0000000  -0.0000000
 NQMom=    0.0000000   0.0000000   0.0000000   0.0000000   0.0000000   0.0000000   0.0000000   0.0000000   0.0000000   0.0000000
 NMagM=    2.7928460   2.7928460   0.0000000   2.7928460   2.7928460   2.7928460   0.0000000   2.7928460   2.7928460   2.7928460
 AtZNuc=   1.0000000   1.0000000   6.0000000   1.0000000   1.0000000   1.0000000   6.0000000   1.0000000   1.0000000   1.0000000

  Atom        41          42          43          44
 IAtWgt=          12           1           1           1
 AtmWgt=  12.0000000   1.0078250   1.0078250   1.0078250
 NucSpn=           0           1           1           1
 AtZEff=  -0.0000000  -0.0000000  -0.0000000  -0.0000000
 NQMom=    0.0000000   0.0000000   0.0000000   0.0000000
 NMagM=    0.0000000   2.7928460   2.7928460   2.7928460
 AtZNuc=   6.0000000   1.0000000   1.0000000   1.0000000
 Leave Link  101 at Tue Jan 26 14:45:08 2021, MaxMem=  4026531840 cpu:               0.8 elap:               0.1
 (Enter /opt/ohpc/pub/libs/gaussian/g16-A.03/sandybridge/g16/l202.exe)
                          Input orientation:                          
 ---------------------------------------------------------------------
 Center     Atomic      Atomic             Coordinates (Angstroms)
 Number     Number       Type             X           Y           Z
 ---------------------------------------------------------------------
      1          6           0        5.141333    0.341453   -1.428653
      2          6           0        4.246330    0.793113   -0.457920
      3         16           0        3.527427    2.438238   -0.612926
      4          6           0        3.852580   -0.085202    0.570411
      5          6           0        0.863708   -0.787434    0.770822
      6          6           0        1.152588   -1.949541    0.292605
      7          6           0        5.641454   -0.963707   -1.380320
      8          6           0        4.337968   -1.397272    0.611701
      9          1           0        2.805747   -0.536686    2.620663
     10          6           0       -0.327590   -0.104924    0.757243
     11          6           0        0.161049   -2.709273   -0.336618
     12          6           0       -1.110551   -2.125038   -0.416532
     13          6           0       -1.366563   -0.836811    0.116144
     14          1           0       -0.506361    0.876389    1.203135
     15          1           0        0.333628   -3.701573   -0.760587
     16          1           0       -1.915541   -2.656529   -0.930176
     17          6           0        5.242141   -1.827604   -0.363151
     18          1           0        5.450891    1.025420   -2.219360
     19          1           0        4.159480    2.990100    0.460876
     20          1           0        6.347910   -1.298886   -2.140548
     21          1           0        4.022912   -2.077842    1.402557
     22          1           0        5.625918   -2.847650   -0.323690
     23         16           0        2.641644    0.489998    1.741439
     24          6           0       -2.680648   -0.257498    0.003764
     25          6           0       -4.054270   -0.413992   -0.132503
     26          6           0       -3.489875    0.870167   -0.052158
     27          7           0       -5.099740   -1.211802   -0.243141
     28          7           0       -3.607387    2.185094   -0.049886
     29          6           0       -4.958870   -2.662960   -0.086881
     30          1           0       -5.249390   -3.175063   -1.015650
     31          1           0       -3.921906   -2.911213    0.159186
     32          1           0       -5.607057   -3.011636    0.730112
     33          6           0       -6.456302   -0.708508   -0.463149
     34          1           0       -6.932296   -1.289768   -1.265044
     35          1           0       -7.062340   -0.804638    0.450448
     36          1           0       -6.424137    0.340187   -0.774131
     37          6           0       -2.422516    3.047015   -0.104701
     38          1           0       -2.374233    3.683098    0.791036
     39          1           0       -1.518165    2.434104   -0.168534
     40          1           0       -2.472812    3.689712   -0.995626
     41          6           0       -4.905946    2.859820   -0.071613
     42          1           0       -4.903422    3.671788    0.668659
     43          1           0       -5.109136    3.288120   -1.064906
     44          1           0       -5.701050    2.156915    0.195603
 ---------------------------------------------------------------------
                    Distance matrix (angstroms):
                    1          2          3          4          5
     1  C    0.000000
     2  C    1.395475   0.000000
     3  S    2.768864   1.802022   0.000000
     4  C    2.416439   1.408524   2.806022   0.000000
     5  C    4.940663   3.930657   4.406259   3.076792   0.000000
     6  C    4.911361   4.201985   5.070745   3.292855   1.289432
     7  C    1.398535   2.425615   4.078141   2.788762   5.242646
     8  C    2.798500   2.439318   4.107046   1.399584   3.530964
     9  H    4.756369   3.649838   4.452762   2.345897   2.693752
    10  C    5.906481   4.817036   4.817281   4.184390   1.373024
    11  C    5.941607   5.382466   6.156762   4.619075   2.326718
    12  C    6.796618   6.100286   6.509447   5.455974   2.663962
    13  C    6.791717   5.872884   5.933686   5.292516   2.324898
    14  H    6.253712   5.035287   4.691364   4.508366   2.198247
    15  H    6.317151   5.966829   6.922387   5.218498   3.334427
    16  H    7.683479   7.077550   7.462118   6.491125   3.756479
    17  C    2.418732   2.805134   4.604350   2.416275   4.640962
    18  H    1.090346   2.146533   2.876873   3.401603   5.768004
    19  H    3.398483   2.382956   1.362752   3.092518   5.022743
    20  H    2.157159   3.409448   4.924921   3.879304   6.230099
    21  H    3.888393   3.428363   4.970177   2.166124   3.470564
    22  H    3.409713   3.895695   5.694553   3.402244   5.302932
    23  S    4.039801   2.739357   3.181711   1.780036   2.394783
    24  C    7.974581   7.021393   6.796138   6.560019   3.664924
    25  C    9.317179   8.394222   8.114687   7.944839   5.014176
    26  C    8.756257   7.747222   7.212200   7.430476   4.730605
    27  N   10.425815   9.561111   9.374836   9.059532   6.063903
    28  N    9.046553   7.986550   7.161471   7.822411   5.431406
    29  C   10.622662   9.839605   9.915452   9.204266   6.177027
    30  H   10.977412  10.306609  10.426114   9.742109   6.801634
    31  H    9.759271   8.990157   9.203551   8.282396   5.271303
    32  H   11.464352  10.629053  10.721179   9.903245   6.842480
    33  C   11.685023  10.807462  10.468968  10.379297   7.423709
    34  H   12.184423  11.399628  11.123358  11.006063   8.073089
    35  H   12.400572  11.457048  11.126103  10.939262   7.932539
    36  H   11.583976  10.684755  10.171599  10.373026   7.534659
    37  C    8.141543   7.048287   6.002560   7.045807   5.125311
    38  H    8.519234   7.331013   6.192768   7.281618   5.519993
    39  H    7.093377   6.000500   5.065126   5.978114   4.115096
    40  H    8.329079   7.336640   6.141296   7.530806   5.856410
    41  C   10.446604   9.390669   8.461237   9.262674   6.877577
    42  H   10.788278   9.657842   8.616456   9.528494   7.290740
    43  H   10.671798   9.701455   8.690041   9.714212   7.460221
    44  H   11.112667  10.061681   9.268098   9.820357   7.217764
                    6          7          8          9         10
     6  C    0.000000
     7  C    4.890855   0.000000
     8  C    3.248610   2.419752   0.000000
     9  H    3.185741   4.922545   2.669127   0.000000
    10  C    2.410275   6.398138   4.843426   3.671043   0.000000
    11  C    1.398665   5.845610   4.479655   4.523281   2.866694
    12  C    2.378124   6.918609   5.592251   5.204306   2.464069
    13  C    2.759607   7.167134   5.753379   4.875537   1.423422
    14  H    3.401038   6.917790   5.383944   3.869913   1.092590
    15  H    2.202164   6.004415   4.819514   5.249832   3.959407
    16  H    3.377638   7.757348   6.562735   6.276365   3.446688
    17  C    4.143589   1.392983   1.397516   4.062712   5.936734
    18  H    5.799635   2.167240   3.888823   5.732607   6.597627
    19  H    5.785306   4.606391   4.393591   4.351493   5.459011
    20  H    5.773643   1.090583   3.409461   5.983059   7.374621
    21  H    3.080132   3.406667   1.089903   2.310938   4.820343
    22  H    4.604031   2.160081   2.153455   4.686484   6.643434
    23  S    3.204334   4.567001   2.777699   1.361633   3.184168
    24  C    4.200016   8.465920   7.136501   6.084952   2.475458
    25  C    5.445181   9.791134   8.482354   7.392889   3.843867
    26  C    5.442617   9.407884   8.176620   6.982697   3.406755
    27  N    6.318456  10.804072   9.478158   8.435276   4.999936
    28  N    6.314259   9.860328   8.740693   7.461113   4.080773
    29  C    6.164649  10.813293   9.408569   8.493592   5.357691
    30  H    6.648215  11.119063   9.885659   9.223288   6.065725
    31  H    5.166537   9.880319   8.409656   7.547090   4.599134
    32  H    6.856549  11.626562  10.075898   8.970777   6.026814
    33  C    7.746388  12.135157  10.869497   9.763451   6.278119
    34  H    8.259959  12.578505  11.425961  10.511676   7.008255
    35  H    8.295828  12.836019  11.416840  10.107461   6.777948
    36  H    7.986710  12.150971  10.989186   9.873413   6.301676
    37  C    6.156687   9.096192   8.122134   6.899656   3.881544
    38  H    6.664347   9.516240   8.419974   6.927215   4.305694
    39  H    5.153825   8.017087   7.041484   5.941500   2.953167
    40  H    6.826730   9.361817   8.651453   7.668323   4.698275
    41  C    7.743929  11.295119  10.199985   8.846175   5.517069
    42  H    8.271397  11.699596  10.540489   8.997381   5.933771
    43  H    8.275573  11.565150  10.677625   9.531943   6.139720
    44  H    7.990291  11.869044  10.657733   9.246729   5.857084
                   11         12         13         14         15
    11  C    0.000000
    12  C    1.401672   0.000000
    13  C    2.458598   1.417327   0.000000
    14  H    3.958945   3.463659   2.203758   0.000000
    15  H    1.092791   2.165523   3.444730   5.051685   0.000000
    16  H    2.160398   1.092850   2.169686   4.360999   2.485888
    17  C    5.157086   6.359875   6.699729   6.542943   5.269081
    18  H    6.743521   7.498540   7.443129   6.872011   7.117504
    19  H    7.007589   7.396466   6.730620   5.175789   7.804332
    20  H    6.597015   7.699571   8.051041   7.930515   6.621842
    21  H    4.282221   5.446444   5.678156   5.411244   4.574550
    22  H    5.466636   6.775751   7.289151   7.335156   5.378513
    23  S    4.550495   5.057096   4.524127   3.216987   5.399661
    24  C    3.768594   2.475795   1.440504   2.729783   4.640231
    25  C    4.804050   3.416699   2.732100   4.004581   5.518725
    26  C    5.120796   3.842552   2.729570   3.236843   6.001821
    27  N    5.470563   4.096058   3.769126   5.248941   5.999016
    28  N    6.183701   4.994583   3.765736   3.591536   7.119659
    29  C    5.126215   3.899691   4.034936   5.832321   5.435359
    30  H    5.472741   4.311784   4.671694   6.620694   5.613587
    31  H    4.117903   2.975439   3.291622   5.205930   4.424954
    32  H    5.873703   4.724343   4.805061   6.430987   6.163598
    33  C    6.914362   5.530442   5.124206   6.378887   7.426308
    34  H    7.293320   5.942252   5.752411   7.216425   7.672349
    35  H    7.511621   6.157833   5.705670   6.809791   8.034873
    36  H    7.270165   5.868510   5.268488   6.262361   7.874223
    37  C    6.313750   5.344962   4.030870   3.177059   7.319150
    38  H    6.968620   6.065440   4.679792   3.396526   8.017070
    39  H    5.413163   4.584041   3.286778   2.309047   6.436319
    40  H    6.951153   6.000202   4.790535   4.076305   7.909642
    41  C    7.533888   6.274775   5.121286   4.991526   8.424945
    42  H    8.208373   7.011897   5.756918   5.237754   9.156194
    43  H    8.017105   6.761017   5.693574   5.669744   8.864090
    44  H    7.637228   6.307338   5.268443   5.444232   8.464840
                   16         17         18         19         20
    16  H    0.000000
    17  C    7.227797   0.000000
    18  H    8.335650   3.410108   0.000000
    19  H    8.409835   5.006141   3.565302   0.000000
    20  H    8.461254   2.159029   2.492640   5.472845   0.000000
    21  H    6.406383   2.160292   4.978719   5.156496   4.308826
    22  H    7.568220   1.090567   4.315654   6.070034   2.494176
    23  S    6.148666   4.069787   4.885333   3.192832   5.657414
    24  C    2.685700   8.085199   8.527021   7.585723   9.337956
    25  C    3.199909   9.406102   9.837427   8.910984  10.631116
    26  C    3.960685   9.144550   9.200987   7.954241  10.288254
    27  N    3.563478  10.360894  10.964781  10.192388  11.604156
    28  N    5.203707   9.721832   9.386366   7.825160  10.752531
    29  C    3.158012  10.238885  11.247877  10.742506  11.572447
    30  H    3.375016  10.597812  11.558070  11.345316  11.801814
    31  H    2.297188   9.242662  10.440493  10.011259  10.646948
    32  H    4.063243  10.968238  12.135708  11.466410  12.413518
    33  C    4.963004  11.752274  12.160264  11.279555  12.927106
    34  H    5.210375  12.219640  12.633849  12.013474  13.309037
    35  H    5.641380  12.373708  12.925089  11.846071  13.667200
    36  H    5.415911  11.873090  11.982259  10.979992  12.949086
    37  C    5.785227   9.087116   8.399355   6.606496   9.997595
    38  H    6.585123   9.471491   8.795357   6.578652  10.463753
    39  H    5.162611   7.993858   7.399866   5.739420   8.927440
    40  H    6.370998   9.505856   8.448730   6.826284  10.198142
    41  C    6.333227  11.182156  10.735079   9.081986  12.174753
    42  H    7.178531  11.586216  11.070488   9.090878  12.617120
    43  H    6.749522  11.567715  10.861250   9.398089  12.387959
    44  H    6.226291  11.659418  11.466391   9.899223  12.750592
                   21         22         23         24         25
    21  H    0.000000
    22  H    2.478338   0.000000
    23  S    2.935395   4.930572   0.000000
    24  C    7.085760   8.707190   5.648456   0.000000
    25  C    8.388425   9.983250   7.011713   1.389207   0.000000
    26  C    8.200544   9.848532   6.399769   1.389102   1.405013
    27  N    9.310270  10.849987   8.170906   2.612214   1.319753
    28  N    8.860230  10.519382   6.718079   2.613040   2.638518
    29  C    9.123223  10.589047   8.429218   3.314326   2.424508
    30  H    9.645061  10.902217   9.127027   4.018685   3.135566
    31  H    8.084591   9.560238   7.559891   2.933783   2.517681
    32  H    9.698477  11.283489   9.018054   4.083715   3.146904
    33  C   10.731722  12.270918   9.437650   3.831055   2.442504
    34  H   11.302820  12.689440  10.191508   4.555433   3.214447
    35  H   11.198677  12.874979   9.874717   4.438256   3.088838
    36  H   10.941922  12.472731   9.409512   3.869891   2.568412
    37  C    8.371352   9.978593   5.965927   3.316354   3.826482
    38  H    8.630519  10.387285   6.021476   4.030135   4.523449
    39  H    7.316387   8.885883   4.973083   2.936967   3.813762
    40  H    9.011681  10.429671   6.624753   4.077063   4.481783
    41  C   10.309131  11.981607   8.115992   3.830836   3.383327
    42  H   10.643133  12.423962   8.258491   4.563124   4.249296
    43  H   10.875487  12.387028   8.705151   4.428433   3.960777
    44  H   10.674518  12.394174   8.646893   3.871566   3.070684
                   26         27         28         29         30
    26  C    0.000000
    27  N    2.638699   0.000000
    28  N    1.320169   3.715288   0.000000
    29  C    3.826505   1.466329   5.033041   0.000000
    30  H    4.515318   2.115079   5.688599   1.099665   0.000000
    31  H    3.811844   2.106456   5.110282   1.094291   1.792225
    32  H    4.490301   2.108078   5.622551   1.099636   1.789502
    33  C    3.385383   1.463547   4.081671   2.490735   2.801033
    34  H    4.241070   2.099673   4.960473   2.677337   2.539430
    35  H    3.977448   2.121001   4.596252   2.857738   3.324928
    36  H    3.067901   2.108233   3.444168   3.411482   3.714208
    37  C    2.425012   5.032317   1.466230   6.247978   6.894585
    38  H    3.141371   5.697188   2.114671   6.908223   7.652778
    39  H    2.519342   5.111348   2.107352   6.150218   6.789875
    40  H    3.142353   5.611758   2.108450   6.882060   7.405061
    41  C    2.442203   4.079839   1.463551   5.523055   6.117922
    42  H    3.219747   4.971858   2.099112   6.379886   7.059459
    43  H    3.081260   4.574351   2.121835   6.032783   6.464892
    44  H    2.570292   3.449975   2.108194   4.884857   5.486449
                   31         32         33         34         35
    31  H    0.000000
    32  H    1.782070   0.000000
    33  C    3.415022   2.729375   0.000000
    34  H    3.704047   2.949870   1.098849   0.000000
    35  H    3.792732   2.658364   1.100537   1.787505   0.000000
    36  H    4.207593   3.763653   1.094306   1.776506   1.793745
    37  C    6.149658   6.895322   5.523031   6.363348   6.055691
    38  H    6.802901   7.434671   6.125559   7.052149   6.498778
    39  H    5.870075   6.868965   5.860717   6.662010   6.450617
    40  H    6.856068   7.596692   5.957857   6.689903   6.584381
    41  C    5.858876   5.967270   3.910226   4.769639   4.283787
    42  H    6.675241   6.720642   4.783244   5.698471   4.974629
    43  H    6.429591   6.569394   4.260282   4.931635   4.781419
    44  H    5.371462   5.196966   3.035623   3.940695   3.269381
                   36         37         38         39         40
    36  H    0.000000
    37  C    4.877297   0.000000
    38  H    5.479646   1.099672   0.000000
    39  H    5.368407   1.094342   1.792655   0.000000
    40  H    5.184722   1.099698   1.789392   1.781006   0.000000
    41  C    3.024398   2.490695   2.798485   3.415800   2.731787
    42  H    3.936214   2.672699   2.532173   3.700367   2.945850
    43  H    3.241001   2.863224   3.328697   3.798407   2.667636
    44  H    2.182599   3.410461   3.708300   4.207845   3.766963
                   41         42         43         44
    41  C    0.000000
    42  H    1.098773   0.000000
    43  H    1.100617   1.787391   0.000000
    44  H    1.094381   1.776185   1.794121   0.000000
 Stoichiometry    C19H21N2S2(2+,2)
 Framework group  C1[X(C19H21N2S2)]
 Deg. of freedom   126
 Full point group                 C1      NOp   1
 Largest Abelian subgroup         C1      NOp   1
 Largest concise Abelian subgroup C1      NOp   1
                         Standard orientation:                         
 ---------------------------------------------------------------------
 Center     Atomic      Atomic             Coordinates (Angstroms)
 Number     Number       Type             X           Y           Z
 ---------------------------------------------------------------------
      1          6           0        5.141333    0.341453   -1.428653
      2          6           0        4.246330    0.793113   -0.457920
      3         16           0        3.527427    2.438238   -0.612926
      4          6           0        3.852580   -0.085202    0.570411
      5          6           0        0.863708   -0.787434    0.770822
      6          6           0        1.152588   -1.949541    0.292605
      7          6           0        5.641454   -0.963707   -1.380320
      8          6           0        4.337968   -1.397272    0.611701
      9          1           0        2.805747   -0.536686    2.620663
     10          6           0       -0.327590   -0.104924    0.757243
     11          6           0        0.161049   -2.709273   -0.336618
     12          6           0       -1.110551   -2.125038   -0.416532
     13          6           0       -1.366563   -0.836811    0.116144
     14          1           0       -0.506361    0.876389    1.203135
     15          1           0        0.333628   -3.701573   -0.760587
     16          1           0       -1.915541   -2.656529   -0.930176
     17          6           0        5.242141   -1.827604   -0.363151
     18          1           0        5.450891    1.025420   -2.219360
     19          1           0        4.159480    2.990100    0.460876
     20          1           0        6.347910   -1.298886   -2.140548
     21          1           0        4.022912   -2.077842    1.402557
     22          1           0        5.625918   -2.847650   -0.323690
     23         16           0        2.641644    0.489998    1.741439
     24          6           0       -2.680648   -0.257498    0.003764
     25          6           0       -4.054270   -0.413992   -0.132503
     26          6           0       -3.489875    0.870167   -0.052158
     27          7           0       -5.099740   -1.211802   -0.243141
     28          7           0       -3.607387    2.185094   -0.049886
     29          6           0       -4.958870   -2.662960   -0.086881
     30          1           0       -5.249390   -3.175063   -1.015650
     31          1           0       -3.921906   -2.911213    0.159186
     32          1           0       -5.607057   -3.011636    0.730112
     33          6           0       -6.456302   -0.708508   -0.463149
     34          1           0       -6.932296   -1.289768   -1.265044
     35          1           0       -7.062340   -0.804638    0.450448
     36          1           0       -6.424137    0.340187   -0.774131
     37          6           0       -2.422516    3.047015   -0.104701
     38          1           0       -2.374233    3.683098    0.791036
     39          1           0       -1.518165    2.434104   -0.168534
     40          1           0       -2.472812    3.689712   -0.995626
     41          6           0       -4.905946    2.859820   -0.071613
     42          1           0       -4.903422    3.671788    0.668659
     43          1           0       -5.109136    3.288120   -1.064906
     44          1           0       -5.701050    2.156915    0.195603
 ---------------------------------------------------------------------
 Rotational constants (GHZ):           0.4060159           0.0982633           0.0849802
 Leave Link  202 at Tue Jan 26 14:45:08 2021, MaxMem=  4026531840 cpu:               0.2 elap:               0.0
 (Enter /opt/ohpc/pub/libs/gaussian/g16-A.03/sandybridge/g16/l301.exe)
 Standard basis: TZVP (5D, 7F)
 Ernie: Thresh=  0.10000D-02 Tol=  0.10000D-05 Strict=F.
 There are   592 symmetry adapted cartesian basis functions of A   symmetry.
 There are   569 symmetry adapted basis functions of A   symmetry.
   569 basis functions,   997 primitive gaussians,   592 cartesian basis functions
    90 alpha electrons       89 beta electrons
       nuclear repulsion energy      2022.4848436690 Hartrees.
 IExCor=33909 DFT=T Ex+Corr=LC-wHPBE ExCW=0 ScaHFX=  1.000000
 ScaDFX=  1.000000  1.000000  1.000000  1.000000 ScalE2=  1.000000  1.000000
 IRadAn=      5 IRanWt=     -1 IRanGd=            0 ICorTp=0 IEmpDi=  4
 HFx  wShort=  0.000000 wLong=  0.221900 cFull=  0.000000 cShort=  0.000000 cLong=  1.000000
 DFx  wShort=  0.000000 wLong=  0.221900 cFull=  0.000000 cShort=  1.000000 cLong=  0.000000
 NAtoms=   44 NActive=   44 NUniq=   44 SFac= 1.00D+00 NAtFMM=   60 NAOKFM=F Big=F
 Integral buffers will be    131072 words long.
 Raffenetti 2 integral format.
 Two-electron integral symmetry is turned on.
 Leave Link  301 at Tue Jan 26 14:45:08 2021, MaxMem=  4026531840 cpu:               0.5 elap:               0.1
 (Enter /opt/ohpc/pub/libs/gaussian/g16-A.03/sandybridge/g16/l302.exe)
 NPDir=0 NMtPBC=     1 NCelOv=     1 NCel=       1 NClECP=     1 NCelD=      1
         NCelK=      1 NCelE2=     1 NClLst=     1 CellRange=     0.0.
 One-electron integrals computed using PRISM.
 One-electron integral symmetry used in STVInt
 NBasis=   569 RedAO= T EigKep=  9.00D-06  NBF=   569
 NBsUse=   569 1.00D-06 EigRej= -1.00D+00 NBFU=   569
 Precomputing XC quadrature grid using
 IXCGrd= 4 IRadAn=           5 IRanWt=          -1 IRanGd=           0 AccXCQ= 0.00D+00.
 Generated NRdTot=       0 NPtTot=           0 NUsed=           0 NTot=          32
 NSgBfM=   570   570   570   570   570 MxSgAt=    44 MxSgA2=    44.
 Leave Link  302 at Tue Jan 26 14:45:09 2021, MaxMem=  4026531840 cpu:               9.3 elap:               1.2
 (Enter /opt/ohpc/pub/libs/gaussian/g16-A.03/sandybridge/g16/l303.exe)
 DipDrv:  MaxL=1.
 Leave Link  303 at Tue Jan 26 14:45:09 2021, MaxMem=  4026531840 cpu:               0.9 elap:               0.1
 (Enter /opt/ohpc/pub/libs/gaussian/g16-A.03/sandybridge/g16/l401.exe)
 ExpMin= 9.52D-02 ExpMax= 6.07D+04 ExpMxC= 2.07D+03 IAcc=3 IRadAn=         5 AccDes= 0.00D+00
 Harris functional with IExCor=33909 and IRadAn=       5 diagonalized for initial guess.
 HarFok:  IExCor=33909 AccDes= 0.00D+00 IRadAn=         5 IDoV= 1 UseB2=F ITyADJ=14
 ICtDFT=  3500011 ScaDFX=  1.000000  1.000000  1.000000  1.000000
 FoFCou: FMM=F IPFlag=           0 FMFlag=      100000 FMFlg1=           0
         NFxFlg=           0 DoJE=T BraDBF=F KetDBF=T FulRan=T
         wScrn=  0.000000 ICntrl=       500 IOpCl=  0 I1Cent=   200000004 NGrid=           0
         NMat0=    1 NMatS0=      1 NMatT0=    0 NMatD0=    1 NMtDS0=    0 NMtDT0=    0
 Petite list used in FoFCou.
 Harris En= -1619.98913724990    
 JPrj=0 DoOrth=F DoCkMO=F.
 Initial guess <Sx>= 0.0000 <Sy>= 0.0000 <Sz>= 0.5000 <S**2>= 0.7500 S= 0.5000
 Leave Link  401 at Tue Jan 26 14:45:16 2021, MaxMem=  4026531840 cpu:              52.2 elap:               6.6
 (Enter /opt/ohpc/pub/libs/gaussian/g16-A.03/sandybridge/g16/l502.exe)
 Integral symmetry usage will be decided dynamically.
 UHF open shell SCF:
 Using DIIS extrapolation, IDIIS=    10.
 NGot=  4026531840 LenX=  4025820226 LenY=  4025469170
 Requested convergence on RMS density matrix=1.00D-06 within  32 cycles.
 Requested convergence on MAX density matrix=1.00D-04.
 Requested convergence on             energy=1.00D-04.
 Virtual orbitals will be shifted by   0.500 hartree.
 No special actions if energy rises.
 Dynamic level shift is on during FON iterations.

 Cycle   1  Pass 1  IDiag  1:
 FoFJK:  IHMeth= 1 ICntrl=       0 DoSepK=T KAlg= 0 I1Cent=           0 FoldK=F
 IRaf=         1 NMat=       1 IRICut=       1 DoRegI=T DoRafI=F ISym2E= 0 IDoP0=0 IntGTp=1.
 FoFCou: FMM=F IPFlag=           0 FMFlag=      100000 FMFlg1=           0
         NFxFlg=           0 DoJE=T BraDBF=F KetDBF=F FulRan=T
         wScrn=  0.000000 ICntrl=       500 IOpCl=  0 I1Cent=           0 NGrid=           0
         NMat0=    1 NMatS0=      1 NMatT0=    0 NMatD0=    1 NMtDS0=    0 NMtDT0=    0
 Symmetry not used in FoFCou.
 E= -1640.40220631463    
 DIIS: error= 2.70D-02 at cycle   1 NSaved=   1.
 NSaved= 1 IEnMin= 1 EnMin= -1640.40220631463     IErMin= 1 ErrMin= 2.70D-02
 ErrMax= 2.70D-02  0.00D+00 EMaxC= 1.00D+00 BMatC= 2.11D+00 BMatP= 2.11D+00
 IDIUse=1 WtCom= 1.00D+00 WtEn= 0.00D+00
 Coeff-Com:  0.100D+01
 Coeff:      0.100D+01
 Gap=     0.618 Goal=   None    Shift=    0.500
 T= 1432. Gap= 0.469 NK=0 IS=   91 IE=  569 IFin=   90
          NO(<0.9)=   0  NV(>0.1)=   0     90.00e < EF      0.00e >EF  Err=0.0D+00
 Gap=    -0.075 Goal=   None    Shift=    0.500
 T= 1432. Gap= 0.296 NK=0 IS=   90 IE=  569 IFin=   89
          NO(<0.9)=   0  NV(>0.1)=   0     89.00e < EF      0.00e >EF  Err=0.0D+00
 GapD=   -0.075 DampG=0.250 DampE=0.500 DampFc=0.1250 IDamp=-1.
 Damping current iteration by 1.25D-01
 RMSDP=4.59D-03 MaxDP=3.19D-01              OVMax= 2.69D-01

 Cycle   2  Pass 1  IDiag  1:
 E= -1640.51829741231     Delta-E=       -0.116091097685 Rises=F Damp=T
 DIIS: error= 2.30D-02 at cycle   2 NSaved=   2.
 NSaved= 2 IEnMin= 2 EnMin= -1640.51829741231     IErMin= 2 ErrMin= 2.30D-02
 ErrMax= 2.30D-02  0.00D+00 EMaxC= 1.00D+00 BMatC= 1.48D+00 BMatP= 2.11D+00
 IDIUse=1 WtCom= 1.00D+00 WtEn= 0.00D+00
 Coeff-Com: -0.479D+01 0.579D+01
 Coeff:     -0.479D+01 0.579D+01
 Gap=     0.303 Goal=   None    Shift=    0.500
 T= 1402. Gap= 0.741 NK=0 IS=   91 IE=  569 IFin=   90
          NO(<0.9)=   0  NV(>0.1)=   0     90.00e < EF      0.00e >EF  Err=0.0D+00
 Gap=     0.105 Goal=   None    Shift=    0.500
 T= 1402. Gap= 0.561 NK=0 IS=   90 IE=  569 IFin=   89
          NO(<0.9)=   0  NV(>0.1)=   0     89.00e < EF      0.00e >EF  Err=0.0D+00
 GapD=    0.105 DampG=1.000 DampE=0.500 DampFc=0.5000 IDamp=-1.
 Damping current iteration by 5.00D-01
 RMSDP=3.76D-03 MaxDP=2.09D-01 DE=-1.16D-01 OVMax= 5.01D-02

 Cycle   3  Pass 1  IDiag  1:
 E= -1640.81452611562     Delta-E=       -0.296228703306 Rises=F Damp=T
 DIIS: error= 1.47D-02 at cycle   3 NSaved=   3.
 NSaved= 3 IEnMin= 3 EnMin= -1640.81452611562     IErMin= 3 ErrMin= 1.47D-02
 ErrMax= 1.47D-02  0.00D+00 EMaxC= 1.00D+00 BMatC= 2.73D-01 BMatP= 1.48D+00
 IDIUse=1 WtCom= 1.00D+00 WtEn= 0.00D+00
 Coeff-Com:  0.787D+00-0.178D+01 0.199D+01
 Coeff:      0.787D+00-0.178D+01 0.199D+01
 Gap=     0.262 Goal=   None    Shift=    0.500
 T= 1298. Gap= 0.756 NK=0 IS=   91 IE=  569 IFin=   90
          NO(<0.9)=   0  NV(>0.1)=   0     90.00e < EF      0.00e >EF  Err=0.0D+00
 Gap=     0.103 Goal=   None    Shift=    0.500
 T= 1298. Gap= 0.604 NK=0 IS=   90 IE=  569 IFin=   89
          NO(<0.9)=   0  NV(>0.1)=   0     89.00e < EF      0.00e >EF  Err=0.0D+00
 GapD=    0.103 DampG=1.000 DampE=0.500 DampFc=0.5000 IDamp=-1.
 Damping current iteration by 5.00D-01
 RMSDP=1.80D-03 MaxDP=1.53D-01 DE=-2.96D-01 OVMax= 3.81D-02

 Cycle   4  Pass 1  IDiag  1:
 E= -1640.91347810789     Delta-E=       -0.098951992267 Rises=F Damp=T
 DIIS: error= 1.03D-02 at cycle   4 NSaved=   4.
 NSaved= 4 IEnMin= 4 EnMin= -1640.91347810789     IErMin= 4 ErrMin= 1.03D-02
 ErrMax= 1.03D-02  0.00D+00 EMaxC= 1.00D+00 BMatC= 5.56D-02 BMatP= 2.73D-01
 IDIUse=1 WtCom= 1.00D+00 WtEn= 0.00D+00
 Coeff-Com:  0.448D+00-0.380D+00-0.135D+01 0.228D+01
 Coeff:      0.448D+00-0.380D+00-0.135D+01 0.228D+01
 Gap=     0.258 Goal=   None    Shift=    0.500
 T= 1118. Gap= 0.758 NK=0 IS=   91 IE=  569 IFin=   90
          NO(<0.9)=   0  NV(>0.1)=   0     90.00e < EF      0.00e >EF  Err=0.0D+00
 Gap=     0.111 Goal=   None    Shift=    0.500
 T= 1118. Gap= 0.612 NK=0 IS=   90 IE=  569 IFin=   89
          NO(<0.9)=   0  NV(>0.1)=   0     89.00e < EF      0.00e >EF  Err=0.0D+00
 GapD=    0.111 DampG=1.000 DampE=0.500 DampFc=0.5000 IDamp=-1.
 Damping current iteration by 5.00D-01
 RMSDP=1.11D-03 MaxDP=1.03D-01 DE=-9.90D-02 OVMax= 3.49D-02

 Cycle   5  Pass 1  IDiag  1:
 E= -1640.95553632767     Delta-E=       -0.042058219786 Rises=F Damp=T
 DIIS: error= 7.97D-03 at cycle   5 NSaved=   5.
 NSaved= 5 IEnMin= 5 EnMin= -1640.95553632767     IErMin= 5 ErrMin= 7.97D-03
 ErrMax= 7.97D-03  0.00D+00 EMaxC= 1.00D+00 BMatC= 1.37D-02 BMatP= 5.56D-02
 IDIUse=1 WtCom= 1.00D+00 WtEn= 0.00D+00
 Coeff-Com: -0.156D+00 0.411D+00-0.407D+00-0.144D+01 0.259D+01
 Coeff:     -0.156D+00 0.411D+00-0.407D+00-0.144D+01 0.259D+01
 Gap=     0.260 Goal=   None    Shift=    0.500
 T=  892. Gap= 0.760 NK=0 IS=   91 IE=  569 IFin=   90
          NO(<0.9)=   0  NV(>0.1)=   0     90.00e < EF      0.00e >EF  Err=0.0D+00
 Gap=     0.119 Goal=   None    Shift=    0.500
 T=  892. Gap= 0.620 NK=0 IS=   90 IE=  569 IFin=   89
          NO(<0.9)=   0  NV(>0.1)=   0     89.00e < EF      0.00e >EF  Err=0.0D+00
 GapD=    0.119 DampG=1.000 DampE=1.000 DampFc=1.0000 IDamp=-1.
 RMSDP=7.99D-04 MaxDP=6.75D-02 DE=-4.21D-02 OVMax= 3.81D-02

 Cycle   6  Pass 1  IDiag  1:
 E= -1640.99754125483     Delta-E=       -0.042004927157 Rises=F Damp=F
 DIIS: error= 5.38D-03 at cycle   6 NSaved=   6.
 NSaved= 6 IEnMin= 6 EnMin= -1640.99754125483     IErMin= 6 ErrMin= 5.38D-03
 ErrMax= 5.38D-03  0.00D+00 EMaxC= 1.00D+00 BMatC= 1.97D-03 BMatP= 1.37D-02
 IDIUse=1 WtCom= 1.00D+00 WtEn= 0.00D+00
 Coeff-Com: -0.720D-01 0.824D-01 0.363D+00-0.475D+00-0.594D+00 0.170D+01
 Coeff:     -0.720D-01 0.824D-01 0.363D+00-0.475D+00-0.594D+00 0.170D+01
 Gap=     0.260 Goal=   None    Shift=    0.500
 T=  694. Gap= 0.760 NK=0 IS=   91 IE=  569 IFin=   90
          NO(<0.9)=   0  NV(>0.1)=   0     90.00e < EF      0.00e >EF  Err=0.0D+00
 Gap=     0.126 Goal=   None    Shift=    0.500
 T=  694. Gap= 0.628 NK=0 IS=   90 IE=  569 IFin=   89
          NO(<0.9)=   0  NV(>0.1)=   0     89.00e < EF      0.00e >EF  Err=0.0D+00
 GapD=    0.126 DampG=1.000 DampE=1.000 DampFc=1.0000 IDamp=-1.
 RMSDP=2.89D-04 MaxDP=1.95D-02 DE=-4.20D-02 OVMax= 4.05D-02

 Cycle   7  Pass 1  IDiag  1:
 E= -1641.00065521399     Delta-E=       -0.003113959162 Rises=F Damp=F
 DIIS: error= 5.49D-03 at cycle   7 NSaved=   7.
 NSaved= 7 IEnMin= 7 EnMin= -1641.00065521399     IErMin= 6 ErrMin= 5.38D-03
 ErrMax= 5.49D-03  0.00D+00 EMaxC= 1.00D+00 BMatC= 1.50D-03 BMatP= 1.97D-03
 IDIUse=1 WtCom= 1.00D+00 WtEn= 0.00D+00
 Coeff-Com:  0.541D-01-0.615D-01 0.969D-02 0.326D+00-0.765D+00-0.280D-01
 Coeff-Com:  0.146D+01
 Coeff:      0.541D-01-0.615D-01 0.969D-02 0.326D+00-0.765D+00-0.280D-01
 Coeff:      0.146D+01
 Gap=     0.260 Goal=   None    Shift=    0.500
 T=  558. Gap= 0.760 NK=4 IS=   91 IE=  102 IFin=   90
          NO(<0.9)=   0  NV(>0.1)=   0     90.00e < EF      0.00e >EF  Err=0.0D+00
 Gap=     0.131 Goal=   None    Shift=    0.500
 T=  558. Gap= 0.632 NK=4 IS=   90 IE=  102 IFin=   89
          NO(<0.9)=   0  NV(>0.1)=   0     89.00e < EF      0.00e >EF  Err=0.0D+00
 GapD=    0.131 DampG=1.000 DampE=1.000 DampFc=1.0000 IDamp=-1.
 RMSDP=2.11D-04 MaxDP=1.14D-02 DE=-3.11D-03 OVMax= 3.87D-02

 Cycle   8  Pass 1  IDiag  1:
 E= -1641.00329507320     Delta-E=       -0.002639859209 Rises=F Damp=F
 DIIS: error= 5.42D-03 at cycle   8 NSaved=   8.
 NSaved= 8 IEnMin= 8 EnMin= -1641.00329507320     IErMin= 6 ErrMin= 5.38D-03
 ErrMax= 5.42D-03  0.00D+00 EMaxC= 1.00D+00 BMatC= 1.29D-03 BMatP= 1.50D-03
 IDIUse=1 WtCom= 1.00D+00 WtEn= 0.00D+00
 Coeff-Com:  0.874D-01 0.338D-01-0.840D+00 0.873D+00 0.523D+00-0.189D+01
 Coeff-Com: -0.569D+00 0.278D+01
 Coeff:      0.874D-01 0.338D-01-0.840D+00 0.873D+00 0.523D+00-0.189D+01
 Coeff:     -0.569D+00 0.278D+01
 Gap=     0.258 Goal=   None    Shift=    0.500
 T=  471. Gap= 0.758 NK=4 IS=   91 IE=  102 IFin=   90
          NO(<0.9)=   0  NV(>0.1)=   0     90.00e < EF      0.00e >EF  Err=0.0D+00
 Gap=     0.137 Goal=   None    Shift=    0.500
 T=  471. Gap= 0.638 NK=4 IS=   90 IE=  102 IFin=   89
          NO(<0.9)=   0  NV(>0.1)=   0     89.00e < EF      0.00e >EF  Err=0.0D+00
 GapD=    0.137 DampG=1.000 DampE=1.000 DampFc=1.0000 IDamp=-1.
 RMSDP=2.63D-04 MaxDP=1.81D-02 DE=-2.64D-03 OVMax= 4.70D-02

 Cycle   9  Pass 1  IDiag  1:
 E= -1641.00630484219     Delta-E=       -0.003009768995 Rises=F Damp=F
 DIIS: error= 5.56D-03 at cycle   9 NSaved=   9.
 NSaved= 9 IEnMin= 9 EnMin= -1641.00630484219     IErMin= 6 ErrMin= 5.38D-03
 ErrMax= 5.56D-03  0.00D+00 EMaxC= 1.00D+00 BMatC= 1.18D-03 BMatP= 1.29D-03
 IDIUse=1 WtCom= 1.00D+00 WtEn= 0.00D+00
 Coeff-Com:  0.442D-01 0.901D-01-0.770D+00 0.595D+00 0.735D+00-0.123D+01
 Coeff-Com: -0.125D+01 0.196D+01 0.830D+00
 Coeff:      0.442D-01 0.901D-01-0.770D+00 0.595D+00 0.735D+00-0.123D+01
 Coeff:     -0.125D+01 0.196D+01 0.830D+00
 Gap=     0.259 Goal=   None    Shift=    0.500
 T=  471. Gap= 0.759 NK=4 IS=   91 IE=  102 IFin=   90
          NO(<0.9)=   0  NV(>0.1)=   0     90.00e < EF      0.00e >EF  Err=0.0D+00
 Gap=     0.141 Goal=   None    Shift=    0.500
 T=  471. Gap= 0.642 NK=4 IS=   90 IE=  102 IFin=   89
          NO(<0.9)=   0  NV(>0.1)=   0     89.00e < EF      0.00e >EF  Err=0.0D+00
 GapD=    0.141 DampG=1.000 DampE=1.000 DampFc=1.0000 IDamp=-1.
 RMSDP=1.64D-04 MaxDP=1.06D-02 DE=-3.01D-03 OVMax= 3.97D-02

 Cycle  10  Pass 1  IDiag  1:
 E= -1641.00856471990     Delta-E=       -0.002259877707 Rises=F Damp=F
 DIIS: error= 5.17D-03 at cycle  10 NSaved=  10.
 NSaved=10 IEnMin=10 EnMin= -1641.00856471990     IErMin=10 ErrMin= 5.17D-03
 ErrMax= 5.17D-03  0.00D+00 EMaxC= 1.00D+00 BMatC= 9.94D-04 BMatP= 1.18D-03
 IDIUse=1 WtCom= 1.00D+00 WtEn= 0.00D+00
 Coeff-Com: -0.667D-01 0.162D+00-0.109D+00-0.490D+00 0.669D+00 0.143D+01
 Coeff-Com: -0.259D+01-0.639D+00-0.141D+01 0.405D+01
 Coeff:     -0.667D-01 0.162D+00-0.109D+00-0.490D+00 0.669D+00 0.143D+01
 Coeff:     -0.259D+01-0.639D+00-0.141D+01 0.405D+01
 Gap=     0.257 Goal=   None    Shift=    0.500
 T=  465. Gap= 0.757 NK=4 IS=   91 IE=  102 IFin=   90
          NO(<0.9)=   0  NV(>0.1)=   0     90.00e < EF      0.00e >EF  Err=0.0D+00
 Gap=     0.153 Goal=   None    Shift=    0.500
 T=  465. Gap= 0.656 NK=4 IS=   90 IE=  101 IFin=   89
          NO(<0.9)=   0  NV(>0.1)=   0     89.00e < EF      0.00e >EF  Err=0.0D+00
 GapD=    0.153 DampG=1.000 DampE=1.000 DampFc=1.0000 IDamp=-1.
 RMSDP=3.91D-04 MaxDP=2.85D-02 DE=-2.26D-03 OVMax= 6.01D-02

 Cycle  11  Pass 1  IDiag  1:
 E= -1641.01169940386     Delta-E=       -0.003134683959 Rises=F Damp=F
 DIIS: error= 5.78D-03 at cycle  11 NSaved=  11.
 NSaved=11 IEnMin=11 EnMin= -1641.01169940386     IErMin=10 ErrMin= 5.17D-03
 ErrMax= 5.78D-03  0.00D+00 EMaxC= 1.00D+00 BMatC= 1.79D-03 BMatP= 9.94D-04
 IDIUse=1 WtCom= 1.00D+00 WtEn= 0.00D+00
 Coeff-Com: -0.766D-01 0.642D-01 0.591D+00-0.112D+01-0.427D-01 0.300D+01
 Coeff-Com: -0.139D+01-0.168D+01-0.510D+01 0.575D+01 0.100D+01
 Coeff:     -0.766D-01 0.642D-01 0.591D+00-0.112D+01-0.427D-01 0.300D+01
 Coeff:     -0.139D+01-0.168D+01-0.510D+01 0.575D+01 0.100D+01
 Gap=     0.257 Goal=   None    Shift=    0.500
 T=  465. Gap= 0.757 NK=4 IS=   91 IE=  102 IFin=   90
          NO(<0.9)=   0  NV(>0.1)=   0     90.00e < EF      0.00e >EF  Err=0.0D+00
 Gap=     0.158 Goal=   None    Shift=    0.500
 T=  465. Gap= 0.661 NK=4 IS=   90 IE=  101 IFin=   89
          NO(<0.9)=   0  NV(>0.1)=   0     89.00e < EF      0.00e >EF  Err=0.0D+00
 GapD=    0.158 DampG=1.000 DampE=1.000 DampFc=1.0000 IDamp=-1.
 RMSDP=2.85D-04 MaxDP=2.15D-02 DE=-3.13D-03 OVMax= 5.72D-02

 Cycle  12  Pass 1  IDiag  1:
 E= -1641.01414168686     Delta-E=       -0.002442283000 Rises=F Damp=F
 DIIS: error= 5.55D-03 at cycle  12 NSaved=  12.
 NSaved=12 IEnMin=12 EnMin= -1641.01414168686     IErMin=10 ErrMin= 5.17D-03
 ErrMax= 5.55D-03  0.00D+00 EMaxC= 1.00D+00 BMatC= 2.04D-03 BMatP= 9.94D-04
 IDIUse=1 WtCom= 1.00D+00 WtEn= 0.00D+00
 Coeff-Com:  0.305D-02-0.237D-01 0.315D+00-0.492D+00-0.198D+00 0.130D+01
 Coeff-Com:  0.174D+00 0.628D-01-0.554D+01 0.463D+01-0.118D+01 0.195D+01
 Coeff:      0.305D-02-0.237D-01 0.315D+00-0.492D+00-0.198D+00 0.130D+01
 Coeff:      0.174D+00 0.628D-01-0.554D+01 0.463D+01-0.118D+01 0.195D+01
 Gap=     0.258 Goal=   None    Shift=    0.500
 T=  465. Gap= 0.758 NK=4 IS=   91 IE=  102 IFin=   90
          NO(<0.9)=   0  NV(>0.1)=   0     90.00e < EF      0.00e >EF  Err=0.0D+00
 Gap=     0.160 Goal=   None    Shift=    0.500
 T=  465. Gap= 0.662 NK=4 IS=   90 IE=  101 IFin=   89
          NO(<0.9)=   0  NV(>0.1)=   0     89.00e < EF      0.00e >EF  Err=0.0D+00
 GapD=    0.160 DampG=1.000 DampE=1.000 DampFc=1.0000 IDamp=-1.
 RMSDP=1.58D-04 MaxDP=1.14D-02 DE=-2.44D-03 OVMax= 4.54D-02

 Cycle  13  Pass 1  IDiag  1:
 E= -1641.01599875677     Delta-E=       -0.001857069911 Rises=F Damp=F
 DIIS: error= 4.77D-03 at cycle  13 NSaved=  13.
 NSaved=13 IEnMin=13 EnMin= -1641.01599875677     IErMin=13 ErrMin= 4.77D-03
 ErrMax= 4.77D-03  0.00D+00 EMaxC= 1.00D+00 BMatC= 1.26D-03 BMatP= 9.94D-04
 IDIUse=1 WtCom= 1.00D+00 WtEn= 0.00D+00
 Coeff-Com: -0.808D-03 0.373D-01-0.559D-01-0.589D-01-0.566D-02 0.127D+00
 Coeff-Com:  0.372D+00 0.569D-01-0.130D+01 0.950D+00-0.555D+00-0.152D+01
 Coeff-Com:  0.296D+01
 Coeff:     -0.808D-03 0.373D-01-0.559D-01-0.589D-01-0.566D-02 0.127D+00
 Coeff:      0.372D+00 0.569D-01-0.130D+01 0.950D+00-0.555D+00-0.152D+01
 Coeff:      0.296D+01
 Gap=     0.258 Goal=   None    Shift=    0.500
 T=  463. Gap= 0.758 NK=4 IS=   91 IE=  102 IFin=   90
          NO(<0.9)=   0  NV(>0.1)=   0     90.00e < EF      0.00e >EF  Err=0.0D+00
 Gap=     0.163 Goal=   None    Shift=    0.500
 T=  463. Gap= 0.664 NK=4 IS=   90 IE=  101 IFin=   89
          NO(<0.9)=   0  NV(>0.1)=   0     89.00e < EF      0.00e >EF  Err=0.0D+00
 GapD=    0.163 DampG=1.000 DampE=1.000 DampFc=1.0000 IDamp=-1.
 RMSDP=1.51D-04 MaxDP=1.03D-02 DE=-1.86D-03 OVMax= 4.23D-02

 Cycle  14  Pass 1  IDiag  1:
 E= -1641.01742087334     Delta-E=       -0.001422116573 Rises=F Damp=F
 DIIS: error= 4.16D-03 at cycle  14 NSaved=  14.
 NSaved=14 IEnMin=14 EnMin= -1641.01742087334     IErMin=14 ErrMin= 4.16D-03
 ErrMax= 4.16D-03  0.00D+00 EMaxC= 1.00D+00 BMatC= 8.85D-04 BMatP= 9.94D-04
 IDIUse=1 WtCom= 1.00D+00 WtEn= 0.00D+00
 Coeff-Com: -0.335D-01 0.875D-01-0.402D-01-0.197D+00 0.128D+00 0.700D+00
 Coeff-Com: -0.929D+00-0.108D+01 0.203D+01-0.788D+00 0.170D+01-0.409D+01
 Coeff-Com:  0.101D+01 0.251D+01
 Coeff:     -0.335D-01 0.875D-01-0.402D-01-0.197D+00 0.128D+00 0.700D+00
 Coeff:     -0.929D+00-0.108D+01 0.203D+01-0.788D+00 0.170D+01-0.409D+01
 Coeff:      0.101D+01 0.251D+01
 Gap=     0.257 Goal=   None    Shift=    0.500
 T=  399. Gap= 0.757 NK=4 IS=   91 IE=  102 IFin=   90
          NO(<0.9)=   0  NV(>0.1)=   0     90.00e < EF      0.00e >EF  Err=0.0D+00
 Gap=     0.168 Goal=   None    Shift=    0.500
 T=  399. Gap= 0.670 NK=4 IS=   90 IE=  101 IFin=   89
          NO(<0.9)=   0  NV(>0.1)=   0     89.00e < EF      0.00e >EF  Err=0.0D+00
 GapD=    0.168 DampG=1.000 DampE=1.000 DampFc=1.0000 IDamp=-1.
 RMSDP=1.67D-04 MaxDP=1.20D-02 DE=-1.42D-03 OVMax= 4.13D-02

 Cycle  15  Pass 1  IDiag  1:
 E= -1641.01846467797     Delta-E=       -0.001043804631 Rises=F Damp=F
 DIIS: error= 3.73D-03 at cycle  15 NSaved=  15.
 NSaved=15 IEnMin=15 EnMin= -1641.01846467797     IErMin=15 ErrMin= 3.73D-03
 ErrMax= 3.73D-03  0.00D+00 EMaxC= 1.00D+00 BMatC= 9.84D-04 BMatP= 8.85D-04
 IDIUse=1 WtCom= 1.00D+00 WtEn= 0.00D+00
 Coeff-Com: -0.455D-01 0.803D-01 0.484D-01-0.319D+00 0.196D+00 0.106D+01
 Coeff-Com: -0.151D+01-0.891D+00 0.123D+01 0.439D+00 0.174D+01-0.321D+01
 Coeff-Com: -0.403D+00 0.306D+00 0.229D+01
 Coeff:     -0.455D-01 0.803D-01 0.484D-01-0.319D+00 0.196D+00 0.106D+01
 Coeff:     -0.151D+01-0.891D+00 0.123D+01 0.439D+00 0.174D+01-0.321D+01
 Coeff:     -0.403D+00 0.306D+00 0.229D+01
 Gap=     0.256 Goal=   None    Shift=    0.500
 T=  319. Gap= 0.756 NK=4 IS=   91 IE=  102 IFin=   90
          NO(<0.9)=   0  NV(>0.1)=   0     90.00e < EF      0.00e >EF  Err=0.0D+00
 Gap=     0.168 Goal=   None    Shift=    0.500
 T=  319. Gap= 0.669 NK=4 IS=   90 IE=  101 IFin=   89
          NO(<0.9)=   0  NV(>0.1)=   0     89.00e < EF      0.00e >EF  Err=0.0D+00
 GapD=    0.168 DampG=1.000 DampE=1.000 DampFc=1.0000 IDamp=-1.
 RMSDP=1.09D-04 MaxDP=6.12D-03 DE=-1.04D-03 OVMax= 3.39D-02

 Cycle  16  Pass 1  IDiag  1:
 E= -1641.01931087189     Delta-E=       -0.000846193913 Rises=F Damp=F
 DIIS: error= 3.15D-03 at cycle  16 NSaved=  16.
 NSaved=16 IEnMin=16 EnMin= -1641.01931087189     IErMin=16 ErrMin= 3.15D-03
 ErrMax= 3.15D-03  0.00D+00 EMaxC= 1.00D+00 BMatC= 6.85D-04 BMatP= 8.85D-04
 IDIUse=1 WtCom= 1.00D+00 WtEn= 0.00D+00
 Coeff-Com: -0.440D-01 0.581D-01 0.134D+00-0.392D+00 0.162D+00 0.105D+01
 Coeff-Com: -0.110D+01-0.736D+00-0.346D+00 0.151D+01 0.116D+01-0.151D+01
 Coeff-Com: -0.343D+00-0.116D+01 0.382D+00 0.216D+01
 Coeff:     -0.440D-01 0.581D-01 0.134D+00-0.392D+00 0.162D+00 0.105D+01
 Coeff:     -0.110D+01-0.736D+00-0.346D+00 0.151D+01 0.116D+01-0.151D+01
 Coeff:     -0.343D+00-0.116D+01 0.382D+00 0.216D+01
 Gap=     0.255 Goal=   None    Shift=    0.500
 T=  237. Gap= 0.755 NK=4 IS=   91 IE=  102 IFin=   90
          NO(<0.9)=   0  NV(>0.1)=   0     90.00e < EF      0.00e >EF  Err=0.0D+00
 Gap=     0.169 Goal=   None    Shift=    0.500
 T=  237. Gap= 0.670 NK=4 IS=   90 IE=  101 IFin=   89
          NO(<0.9)=   0  NV(>0.1)=   0     89.00e < EF      0.00e >EF  Err=0.0D+00
 GapD=    0.169 DampG=1.000 DampE=1.000 DampFc=1.0000 IDamp=-1.
 RMSDP=9.11D-05 MaxDP=4.47D-03 DE=-8.46D-04 OVMax= 2.91D-02

 Cycle  17  Pass 1  IDiag  1:
 E= -1641.01995354387     Delta-E=       -0.000642671985 Rises=F Damp=F
 DIIS: error= 2.65D-03 at cycle  17 NSaved=  17.
 NSaved=17 IEnMin=17 EnMin= -1641.01995354387     IErMin=17 ErrMin= 2.65D-03
 ErrMax= 2.65D-03  0.00D+00 EMaxC= 1.00D+00 BMatC= 4.48D-04 BMatP= 6.85D-04
 IDIUse=1 WtCom= 1.00D+00 WtEn= 0.00D+00
 Coeff-Com: -0.350D-01 0.419D-01 0.160D+00-0.395D+00 0.107D+00 0.849D+00
 Coeff-Com: -0.488D+00-0.873D+00-0.687D+00 0.129D+01 0.905D+00-0.820D+00
 Coeff-Com:  0.283D+00-0.721D+00-0.103D+01 0.207D+00 0.221D+01
 Coeff:     -0.350D-01 0.419D-01 0.160D+00-0.395D+00 0.107D+00 0.849D+00
 Coeff:     -0.488D+00-0.873D+00-0.687D+00 0.129D+01 0.905D+00-0.820D+00
 Coeff:      0.283D+00-0.721D+00-0.103D+01 0.207D+00 0.221D+01
 Gap=     0.254 Goal=   None    Shift=    0.500
 T=  149. Gap= 0.754 NK=4 IS=   91 IE=  102 IFin=   90
          NO(<0.9)=   0  NV(>0.1)=   0     90.00e < EF      0.00e >EF  Err=0.0D+00
 Gap=     0.172 Goal=   None    Shift=    0.500
 T=  149. Gap= 0.673 NK=4 IS=   90 IE=  101 IFin=   89
          NO(<0.9)=   0  NV(>0.1)=   0     89.00e < EF      0.00e >EF  Err=0.0D+00
 GapD=    0.172 DampG=1.000 DampE=1.000 DampFc=1.0000 IDamp=-1.
 RMSDP=1.02D-04 MaxDP=6.11D-03 DE=-6.43D-04 OVMax= 2.78D-02

 Cycle  18  Pass 1  IDiag  1:
 E= -1641.02041582030     Delta-E=       -0.000462276425 Rises=F Damp=F
 DIIS: error= 2.32D-03 at cycle  18 NSaved=  18.
 NSaved=18 IEnMin=18 EnMin= -1641.02041582030     IErMin=18 ErrMin= 2.32D-03
 ErrMax= 2.32D-03  0.00D+00 EMaxC= 1.00D+00 BMatC= 4.53D-04 BMatP= 4.48D-04
 IDIUse=1 WtCom= 1.00D+00 WtEn= 0.00D+00
 Coeff-Com: -0.231D-01 0.424D-01 0.295D-01-0.171D+00 0.776D-01 0.465D+00
 Coeff-Com: -0.423D+00-0.675D+00 0.562D+00 0.850D-01 0.952D+00-0.210D+01
 Coeff-Com:  0.830D+00 0.119D+01 0.190D+00-0.274D+01-0.218D+00 0.293D+01
 Coeff:     -0.231D-01 0.424D-01 0.295D-01-0.171D+00 0.776D-01 0.465D+00
 Coeff:     -0.423D+00-0.675D+00 0.562D+00 0.850D-01 0.952D+00-0.210D+01
 Coeff:      0.830D+00 0.119D+01 0.190D+00-0.274D+01-0.218D+00 0.293D+01
 Gap=     0.253 Goal=   None    Shift=    0.500
 T=   53. Gap= 0.754 NK=4 IS=   91 IE=  102 IFin=   90
          NO(<0.9)=   0  NV(>0.1)=   0     90.00e < EF      0.00e >EF  Err=0.0D+00
 Gap=     0.172 Goal=   None    Shift=    0.500
 T=   53. Gap= 0.673 NK=4 IS=   90 IE=  101 IFin=   89
          NO(<0.9)=   0  NV(>0.1)=   0     89.00e < EF      0.00e >EF  Err=0.0D+00
 GapD=    0.172 DampG=1.000 DampE=1.000 DampFc=1.0000 IDamp=-1.
 RMSDP=7.89D-05 MaxDP=4.43D-03 DE=-4.62D-04 OVMax= 2.43D-02

 Cycle  19  Pass 1  IDiag  1:
 E= -1641.02080279563     Delta-E=       -0.000386975337 Rises=F Damp=F
 DIIS: error= 1.96D-03 at cycle  19 NSaved=  19.
 NSaved=19 IEnMin=19 EnMin= -1641.02080279563     IErMin=19 ErrMin= 1.96D-03
 ErrMax= 1.96D-03  0.00D+00 EMaxC= 1.00D+00 BMatC= 3.49D-04 BMatP= 4.48D-04
 IDIUse=1 WtCom= 1.00D+00 WtEn= 0.00D+00
 Coeff-Com: -0.162D-01 0.385D-01-0.444D-01-0.341D-01 0.746D-01 0.327D+00
 Coeff-Com: -0.717D+00-0.429D+00 0.144D+01-0.493D+00 0.107D+01-0.278D+01
 Coeff-Com:  0.547D+00 0.158D+01 0.162D+01-0.253D+01-0.210D+01 0.137D+01
 Coeff-Com:  0.209D+01
 Coeff:     -0.162D-01 0.385D-01-0.444D-01-0.341D-01 0.746D-01 0.327D+00
 Coeff:     -0.717D+00-0.429D+00 0.144D+01-0.493D+00 0.107D+01-0.278D+01
 Coeff:      0.547D+00 0.158D+01 0.162D+01-0.253D+01-0.210D+01 0.137D+01
 Coeff:      0.209D+01
 Gap=     0.253 Goal=   None    Shift=    0.500
 Gap=     0.171 Goal=   None    Shift=    0.500
 GapD=    0.171 DampG=1.000 DampE=1.000 DampFc=1.0000 IDamp=-1.
 RMSDP=6.21D-05 MaxDP=3.73D-03 DE=-3.87D-04 OVMax= 2.03D-02

 Cycle  20  Pass 1  IDiag  1:
 E= -1641.02111621137     Delta-E=       -0.000313415735 Rises=F Damp=F
 DIIS: error= 1.62D-03 at cycle  20 NSaved=  20.
 NSaved=20 IEnMin=20 EnMin= -1641.02111621137     IErMin=20 ErrMin= 1.62D-03
 ErrMax= 1.62D-03  0.00D+00 EMaxC= 1.00D+00 BMatC= 1.90D-04 BMatP= 3.49D-04
 IDIUse=1 WtCom= 1.00D+00 WtEn= 0.00D+00
 Coeff-Com: -0.141D-01 0.180D-01 0.535D-01-0.172D+00 0.110D+00 0.472D+00
 Coeff-Com: -0.826D+00-0.448D+00 0.100D+01-0.159D+00 0.990D+00-0.146D+01
 Coeff-Com: -0.377D+00-0.982D-01 0.157D+01 0.813D+00-0.139D+01-0.200D+01
 Coeff-Com: -0.339D+00 0.326D+01
 Coeff:     -0.141D-01 0.180D-01 0.535D-01-0.172D+00 0.110D+00 0.472D+00
 Coeff:     -0.826D+00-0.448D+00 0.100D+01-0.159D+00 0.990D+00-0.146D+01
 Coeff:     -0.377D+00-0.982D-01 0.157D+01 0.813D+00-0.139D+01-0.200D+01
 Coeff:     -0.339D+00 0.326D+01
 Gap=     0.252 Goal=   None    Shift=    0.500
 Gap=     0.174 Goal=   None    Shift=    0.500
 GapD=    0.174 DampG=1.000 DampE=1.000 DampFc=1.0000 IDamp=-1.
 RMSDP=8.51D-05 MaxDP=5.87D-03 DE=-3.13D-04 OVMax= 2.20D-02

 Cycle  21  Pass 1  IDiag  1:
 E= -1641.02133648649     Delta-E=       -0.000220275117 Rises=F Damp=F
 DIIS: error= 1.42D-03 at cycle  21 NSaved=  20.
 NSaved=20 IEnMin=20 EnMin= -1641.02133648649     IErMin=20 ErrMin= 1.42D-03
 ErrMax= 1.42D-03  0.00D+00 EMaxC= 1.00D+00 BMatC= 2.35D-04 BMatP= 1.90D-04
 IDIUse=1 WtCom= 1.00D+00 WtEn= 0.00D+00
 Coeff-Com: -0.133D-02 0.385D-01-0.122D+00 0.984D-01 0.338D+00-0.657D+00
 Coeff-Com: -0.297D+00 0.594D+00 0.810D-01 0.769D+00-0.109D+01-0.211D+00
 Coeff-Com: -0.559D+00 0.115D+01 0.140D+01-0.807D+00-0.220D+01-0.105D+01
 Coeff-Com:  0.273D+01 0.803D+00
 Coeff:     -0.133D-02 0.385D-01-0.122D+00 0.984D-01 0.338D+00-0.657D+00
 Coeff:     -0.297D+00 0.594D+00 0.810D-01 0.769D+00-0.109D+01-0.211D+00
 Coeff:     -0.559D+00 0.115D+01 0.140D+01-0.807D+00-0.220D+01-0.105D+01
 Coeff:      0.273D+01 0.803D+00
 Gap=     0.251 Goal=   None    Shift=    0.500
 Gap=     0.174 Goal=   None    Shift=    0.500
 GapD=    0.174 DampG=1.000 DampE=1.000 DampFc=1.0000 IDamp=-1.
 RMSDP=5.40D-05 MaxDP=3.09D-03 DE=-2.20D-04 OVMax= 1.69D-02

 Cycle  22  Pass 1  IDiag  1:
 E= -1641.02149695529     Delta-E=       -0.000160468799 Rises=F Damp=F
 DIIS: error= 1.19D-03 at cycle  22 NSaved=  20.
 NSaved=20 IEnMin=20 EnMin= -1641.02149695529     IErMin=20 ErrMin= 1.19D-03
 ErrMax= 1.19D-03  0.00D+00 EMaxC= 1.00D+00 BMatC= 1.93D-04 BMatP= 1.90D-04
 IDIUse=1 WtCom= 1.00D+00 WtEn= 0.00D+00
 Coeff-Com:  0.176D-01-0.474D-01 0.206D-01 0.288D+00-0.412D+00-0.339D+00
 Coeff-Com:  0.356D+00 0.156D+00 0.651D+00-0.839D+00-0.111D+00-0.194D+00
 Coeff-Com:  0.161D+00 0.700D+00 0.497D+00-0.661D+00-0.122D+01 0.103D+01
 Coeff-Com: -0.302D+01 0.398D+01
 Coeff:      0.176D-01-0.474D-01 0.206D-01 0.288D+00-0.412D+00-0.339D+00
 Coeff:      0.356D+00 0.156D+00 0.651D+00-0.839D+00-0.111D+00-0.194D+00
 Coeff:      0.161D+00 0.700D+00 0.497D+00-0.661D+00-0.122D+01 0.103D+01
 Coeff:     -0.302D+01 0.398D+01
 Gap=     0.251 Goal=   None    Shift=    0.500
 Gap=     0.173 Goal=   None    Shift=    0.500
 GapD=    0.173 DampG=1.000 DampE=1.000 DampFc=1.0000 IDamp=-1.
 RMSDP=4.65D-05 MaxDP=2.70D-03 DE=-1.60D-04 OVMax= 1.45D-02

 Cycle  23  Pass 1  IDiag  1:
 E= -1641.02163252072     Delta-E=       -0.000135565434 Rises=F Damp=F
 DIIS: error= 9.69D-04 at cycle  23 NSaved=  20.
 NSaved=20 IEnMin=20 EnMin= -1641.02163252072     IErMin=20 ErrMin= 9.69D-04
 ErrMax= 9.69D-04  0.00D+00 EMaxC= 1.00D+00 BMatC= 1.19D-04 BMatP= 1.90D-04
 IDIUse=1 WtCom= 1.00D+00 WtEn= 0.00D+00
 Coeff-Com:  0.114D-01-0.234D-01 0.206D+00-0.321D+00-0.371D+00 0.682D+00
 Coeff-Com: -0.203D+00 0.678D+00-0.102D+01-0.957D-01 0.568D+00 0.239D+00
 Coeff-Com: -0.725D+00 0.187D+00 0.757D+00-0.239D-01 0.176D+00-0.461D+01
 Coeff-Com:  0.326D+01 0.162D+01
 Coeff:      0.114D-01-0.234D-01 0.206D+00-0.321D+00-0.371D+00 0.682D+00
 Coeff:     -0.203D+00 0.678D+00-0.102D+01-0.957D-01 0.568D+00 0.239D+00
 Coeff:     -0.725D+00 0.187D+00 0.757D+00-0.239D-01 0.176D+00-0.461D+01
 Coeff:      0.326D+01 0.162D+01
 Gap=     0.251 Goal=   None    Shift=    0.500
 Gap=     0.174 Goal=   None    Shift=    0.500
 RMSDP=4.04D-05 MaxDP=2.48D-03 DE=-1.36D-04 OVMax= 1.25D-02

 Cycle  24  Pass 1  IDiag  1:
 E= -1641.02172401462     Delta-E=       -0.000091493900 Rises=F Damp=F
 DIIS: error= 7.85D-04 at cycle  24 NSaved=  20.
 NSaved=20 IEnMin=20 EnMin= -1641.02172401462     IErMin=20 ErrMin= 7.85D-04
 ErrMax= 7.85D-04  0.00D+00 EMaxC= 1.00D+00 BMatC= 7.71D-05 BMatP= 1.19D-04
 IDIUse=1 WtCom= 1.00D+00 WtEn= 0.00D+00
 Coeff-Com: -0.138D-02 0.848D-01-0.197D+00-0.205D+00 0.635D+00-0.347D+00
 Coeff-Com:  0.435D+00-0.814D+00-0.129D-01 0.560D+00 0.649D+00-0.102D+01
 Coeff-Com: -0.650D+00 0.744D+00 0.917D+00 0.368D+00-0.284D+01 0.938D+00
 Coeff-Com: -0.933D+00 0.269D+01
 Coeff:     -0.138D-02 0.848D-01-0.197D+00-0.205D+00 0.635D+00-0.347D+00
 Coeff:      0.435D+00-0.814D+00-0.129D-01 0.560D+00 0.649D+00-0.102D+01
 Coeff:     -0.650D+00 0.744D+00 0.917D+00 0.368D+00-0.284D+01 0.938D+00
 Coeff:     -0.933D+00 0.269D+01
 Gap=     0.251 Goal=   None    Shift=    0.500
 Gap=     0.174 Goal=   None    Shift=    0.500
 RMSDP=3.72D-05 MaxDP=2.46D-03 DE=-9.15D-05 OVMax= 1.09D-02

 Cycle  25  Pass 1  IDiag  1:
 E= -1641.02178343663     Delta-E=       -0.000059422012 Rises=F Damp=F
 DIIS: error= 6.34D-04 at cycle  25 NSaved=  20.
 NSaved=20 IEnMin=20 EnMin= -1641.02178343663     IErMin=20 ErrMin= 6.34D-04
 ErrMax= 6.34D-04  0.00D+00 EMaxC= 1.00D+00 BMatC= 6.03D-05 BMatP= 7.71D-05
 IDIUse=1 WtCom= 1.00D+00 WtEn= 0.00D+00
 Coeff-Com:  0.475D-01-0.154D+00-0.896D-01 0.382D+00-0.181D+00 0.278D+00
 Coeff-Com: -0.608D+00 0.105D+00 0.165D+00 0.603D+00-0.402D+00-0.703D+00
 Coeff-Com:  0.871D-01 0.630D+00 0.754D+00-0.122D+01 0.289D+00-0.177D+01
 Coeff-Com:  0.860D+00 0.193D+01
 Coeff:      0.475D-01-0.154D+00-0.896D-01 0.382D+00-0.181D+00 0.278D+00
 Coeff:     -0.608D+00 0.105D+00 0.165D+00 0.603D+00-0.402D+00-0.703D+00
 Coeff:      0.871D-01 0.630D+00 0.754D+00-0.122D+01 0.289D+00-0.177D+01
 Coeff:      0.860D+00 0.193D+01
 Gap=     0.250 Goal=   None    Shift=    0.500
 Gap=     0.174 Goal=   None    Shift=    0.500
 RMSDP=2.82D-05 MaxDP=1.62D-03 DE=-5.94D-05 OVMax= 8.43D-03

 Cycle  26  Pass 1  IDiag  1:
 E= -1641.02182186692     Delta-E=       -0.000038430289 Rises=F Damp=F
 DIIS: error= 5.07D-04 at cycle  26 NSaved=  20.
 NSaved=20 IEnMin=20 EnMin= -1641.02182186692     IErMin=20 ErrMin= 5.07D-04
 ErrMax= 5.07D-04  0.00D+00 EMaxC= 1.00D+00 BMatC= 4.27D-05 BMatP= 6.03D-05
 IDIUse=1 WtCom= 1.00D+00 WtEn= 0.00D+00
 Coeff-Com: -0.489D-01-0.114D-01 0.709D-01-0.571D-02 0.138D+00-0.265D+00
 Coeff-Com:  0.114D+00-0.158D+00 0.176D+00 0.311D+00-0.194D+00-0.521D+00
 Coeff-Com: -0.140D+00 0.980D+00-0.229D+00 0.322D+00-0.739D+00-0.116D+01
 Coeff-Com: -0.331D+00 0.269D+01
 Coeff:     -0.489D-01-0.114D-01 0.709D-01-0.571D-02 0.138D+00-0.265D+00
 Coeff:      0.114D+00-0.158D+00 0.176D+00 0.311D+00-0.194D+00-0.521D+00
 Coeff:     -0.140D+00 0.980D+00-0.229D+00 0.322D+00-0.739D+00-0.116D+01
 Coeff:     -0.331D+00 0.269D+01
 Gap=     0.250 Goal=   None    Shift=    0.500
 Gap=     0.174 Goal=   None    Shift=    0.500
 RMSDP=2.26D-05 MaxDP=1.17D-03 DE=-3.84D-05 OVMax= 6.66D-03

 Cycle  27  Pass 1  IDiag  1:
 E= -1641.02184660262     Delta-E=       -0.000024735695 Rises=F Damp=F
 DIIS: error= 4.03D-04 at cycle  27 NSaved=  20.
 NSaved=20 IEnMin=20 EnMin= -1641.02184660262     IErMin=20 ErrMin= 4.03D-04
 ErrMax= 4.03D-04  0.00D+00 EMaxC= 1.00D+00 BMatC= 2.98D-05 BMatP= 4.27D-05
 IDIUse=1 WtCom= 1.00D+00 WtEn= 0.00D+00
 Coeff-Com: -0.921D-01 0.119D+00-0.504D-01 0.183D+00-0.279D+00 0.753D-01
 Coeff-Com:  0.150D-01-0.343D-01 0.174D+00 0.988D-01-0.279D+00-0.276D+00
 Coeff-Com:  0.604D+00-0.720D+00 0.750D+00 0.433D+00-0.972D+00-0.180D+01
 Coeff-Com:  0.122D+01 0.183D+01
 Coeff:     -0.921D-01 0.119D+00-0.504D-01 0.183D+00-0.279D+00 0.753D-01
 Coeff:      0.150D-01-0.343D-01 0.174D+00 0.988D-01-0.279D+00-0.276D+00
 Coeff:      0.604D+00-0.720D+00 0.750D+00 0.433D+00-0.972D+00-0.180D+01
 Coeff:      0.122D+01 0.183D+01
 Gap=     0.250 Goal=   None    Shift=    0.500
 Gap=     0.174 Goal=   None    Shift=    0.500
 RMSDP=1.74D-05 MaxDP=1.01D-03 DE=-2.47D-05 OVMax= 5.14D-03

 Cycle  28  Pass 1  IDiag  1:
 E= -1641.02186268403     Delta-E=       -0.000016081412 Rises=F Damp=F
 DIIS: error= 3.14D-04 at cycle  28 NSaved=  20.
 NSaved=20 IEnMin=20 EnMin= -1641.02186268403     IErMin=20 ErrMin= 3.14D-04
 ErrMax= 3.14D-04  0.00D+00 EMaxC= 1.00D+00 BMatC= 1.84D-05 BMatP= 2.98D-05
 IDIUse=1 WtCom= 1.00D+00 WtEn= 0.00D+00
 Coeff-Com: -0.600D-01 0.607D-01 0.603D-01-0.435D-01-0.221D-01-0.114D+00
 Coeff-Com:  0.118D+00 0.799D-01-0.538D-01-0.683D-01-0.460D-01 0.163D+00
 Coeff-Com: -0.280D+00 0.267D+00-0.307D+00 0.754D+00-0.171D+00-0.753D+00
 Coeff-Com: -0.229D+01 0.371D+01
 Coeff:     -0.600D-01 0.607D-01 0.603D-01-0.435D-01-0.221D-01-0.114D+00
 Coeff:      0.118D+00 0.799D-01-0.538D-01-0.683D-01-0.460D-01 0.163D+00
 Coeff:     -0.280D+00 0.267D+00-0.307D+00 0.754D+00-0.171D+00-0.753D+00
 Coeff:     -0.229D+01 0.371D+01
 Gap=     0.250 Goal=   None    Shift=    0.500
 Gap=     0.174 Goal=   None    Shift=    0.500
 RMSDP=1.39D-05 MaxDP=7.29D-04 DE=-1.61D-05 OVMax= 4.07D-03

 Cycle  29  Pass 1  IDiag  1:
 E= -1641.02187295883     Delta-E=       -0.000010274801 Rises=F Damp=F
 DIIS: error= 2.40D-04 at cycle  29 NSaved=  20.
 NSaved=20 IEnMin=20 EnMin= -1641.02187295883     IErMin=20 ErrMin= 2.40D-04
 ErrMax= 2.40D-04  0.00D+00 EMaxC= 1.00D+00 BMatC= 1.11D-05 BMatP= 1.84D-05
 IDIUse=1 WtCom= 1.00D+00 WtEn= 0.00D+00
 Coeff-Com: -0.122D-01 0.462D-01-0.713D-01 0.281D-01 0.171D-01 0.115D+00
 Coeff-Com: -0.262D+00-0.109D+00 0.335D+00 0.210D+00-0.192D+00-0.559D+00
 Coeff-Com:  0.250D+00-0.419D+00 0.137D+01 0.588D+00-0.118D+01-0.309D+01
 Coeff-Com:  0.218D+01 0.175D+01
 Coeff:     -0.122D-01 0.462D-01-0.713D-01 0.281D-01 0.171D-01 0.115D+00
 Coeff:     -0.262D+00-0.109D+00 0.335D+00 0.210D+00-0.192D+00-0.559D+00
 Coeff:      0.250D+00-0.419D+00 0.137D+01 0.588D+00-0.118D+01-0.309D+01
 Coeff:      0.218D+01 0.175D+01
 Gap=     0.250 Goal=   None    Shift=    0.500
 Gap=     0.174 Goal=   None    Shift=    0.500
 RMSDP=1.12D-05 MaxDP=6.08D-04 DE=-1.03D-05 OVMax= 3.32D-03

 Cycle  30  Pass 1  IDiag  1:
 E= -1641.02187935394     Delta-E=       -0.000006395106 Rises=F Damp=F
 DIIS: error= 1.82D-04 at cycle  30 NSaved=  20.
 NSaved=20 IEnMin=20 EnMin= -1641.02187935394     IErMin=20 ErrMin= 1.82D-04
 ErrMax= 1.82D-04  0.00D+00 EMaxC= 1.00D+00 BMatC= 7.05D-06 BMatP= 1.11D-05
 IDIUse=1 WtCom= 1.00D+00 WtEn= 0.00D+00
 Coeff-Com:  0.215D-01-0.917D-01 0.101D+00-0.852D-03 0.592D-01-0.163D+00
 Coeff-Com: -0.933D-01 0.200D+00 0.120D+00 0.254D-02-0.449D+00 0.310D+00
 Coeff-Com: -0.289D+00 0.134D+00 0.476D+00 0.328D+00-0.981D+00-0.828D+00
 Coeff-Com: -0.139D+00 0.228D+01
 Coeff:      0.215D-01-0.917D-01 0.101D+00-0.852D-03 0.592D-01-0.163D+00
 Coeff:     -0.933D-01 0.200D+00 0.120D+00 0.254D-02-0.449D+00 0.310D+00
 Coeff:     -0.289D+00 0.134D+00 0.476D+00 0.328D+00-0.981D+00-0.828D+00
 Coeff:     -0.139D+00 0.228D+01
 Gap=     0.250 Goal=   None    Shift=    0.500
 Gap=     0.174 Goal=   None    Shift=    0.500
 RMSDP=8.43D-06 MaxDP=5.39D-04 DE=-6.40D-06 OVMax= 2.43D-03

 Cycle  31  Pass 1  IDiag  1:
 E= -1641.02188358456     Delta-E=       -0.000004230622 Rises=F Damp=F
 DIIS: error= 1.37D-04 at cycle  31 NSaved=  20.
 NSaved=20 IEnMin=20 EnMin= -1641.02188358456     IErMin=20 ErrMin= 1.37D-04
 ErrMax= 1.37D-04  0.00D+00 EMaxC= 1.00D+00 BMatC= 3.64D-06 BMatP= 7.05D-06
 IDIUse=1 WtCom= 1.00D+00 WtEn= 0.00D+00
 Coeff-Com: -0.229D-01 0.573D-01-0.936D-01 0.607D-01 0.102D+00-0.860D-01
 Coeff-Com: -0.153D+00-0.844D-02 0.264D+00 0.991D-02 0.201D-01-0.230D+00
 Coeff-Com: -0.403D+00 0.306D-01 0.866D+00 0.571D+00-0.126D+01-0.972D+00
 Coeff-Com:  0.490D-01 0.220D+01
 Coeff:     -0.229D-01 0.573D-01-0.936D-01 0.607D-01 0.102D+00-0.860D-01
 Coeff:     -0.153D+00-0.844D-02 0.264D+00 0.991D-02 0.201D-01-0.230D+00
 Coeff:     -0.403D+00 0.306D-01 0.866D+00 0.571D+00-0.126D+01-0.972D+00
 Coeff:      0.490D-01 0.220D+01
 Gap=     0.250 Goal=   None    Shift=    0.500
 Gap=     0.174 Goal=   None    Shift=    0.500
 RMSDP=6.89D-06 MaxDP=3.96D-04 DE=-4.23D-06 OVMax= 2.04D-03

 Cycle  32  Pass 1  IDiag  1:
 E= -1641.02188600303     Delta-E=       -0.000002418467 Rises=F Damp=F
 DIIS: error= 1.03D-04 at cycle  32 NSaved=  20.
 NSaved=20 IEnMin=20 EnMin= -1641.02188600303     IErMin=20 ErrMin= 1.03D-04
 ErrMax= 1.03D-04  0.00D+00 EMaxC= 1.00D+00 BMatC= 2.56D-06 BMatP= 3.64D-06
 IDIUse=1 WtCom= 1.00D+00 WtEn= 0.00D+00
 Coeff-Com:  0.512D-02-0.241D-01 0.209D-01 0.897D-02-0.106D-01-0.306D-01
 Coeff-Com:  0.227D-01 0.100D+00-0.218D+00 0.776D-01 0.232D-01 0.268D+00
 Coeff-Com: -0.265D+00-0.292D+00-0.143D+00 0.104D+01 0.472D-01-0.156D+01
 Coeff-Com: -0.967D+00 0.290D+01
 Coeff:      0.512D-02-0.241D-01 0.209D-01 0.897D-02-0.106D-01-0.306D-01
 Coeff:      0.227D-01 0.100D+00-0.218D+00 0.776D-01 0.232D-01 0.268D+00
 Coeff:     -0.265D+00-0.292D+00-0.143D+00 0.104D+01 0.472D-01-0.156D+01
 Coeff:     -0.967D+00 0.290D+01
 Gap=     0.250 Goal=   None    Shift=    0.500
 Gap=     0.174 Goal=   None    Shift=    0.500
 RMSDP=4.93D-06 MaxDP=3.06D-04 DE=-2.42D-06 OVMax= 1.48D-03

 >>>>>>>>>> Convergence criterion not met.
 SCF Done:  E(ULC-wHPBE) =  -1641.02188600     A.U. after   33 cycles
            NFock= 32  Conv=0.49D-05     -V/T= 2.0043
 <Sx>= 0.0000 <Sy>= 0.0000 <Sz>= 0.5000 <S**2>= 0.7951 S= 0.5223
 <L.S>= 0.000000000000E+00
 KE= 1.634060165104D+03 PE=-7.855123383068D+03 EE= 2.557556488292D+03
 Annihilation of the first spin contaminant:
 S**2 before annihilation     0.7951,   after     0.7508
 Leave Link  502 at Tue Jan 26 15:12:22 2021, MaxMem=  4026531840 cpu:           12989.1 elap:            1626.1
 (Enter /opt/ohpc/pub/libs/gaussian/g16-A.03/sandybridge/g16/l508.exe)
 Integral symmetry usage will be decided dynamically.
 Tight linear equation convergence will be used.
 ULC-wHPBE wavefunction.
 Quadratic Convergence SCF Method.
 Line search only if initial step raises energy.
 FoFJK:  IHMeth= 1 ICntrl=       0 DoSepK=T KAlg= 0 I1Cent=           0 FoldK=F
 IRaf=         1 NMat=       1 IRICut=       1 DoRegI=T DoRafI=F ISym2E= 1 IDoP0=0 IntGTp=1.
 FoFCou: FMM=F IPFlag=           0 FMFlag=      100000 FMFlg1=           0
         NFxFlg=           0 DoJE=T BraDBF=F KetDBF=F FulRan=T
         wScrn=  0.000000 ICntrl=       500 IOpCl=  0 I1Cent=           0 NGrid=           0
         NMat0=    1 NMatS0=      1 NMatT0=    0 NMatD0=    1 NMtDS0=    0 NMtDT0=    0
 Petite list used in FoFCou.
 Iteration   1 EE= -1641.02188761897                                    Grad=8.641D-04 Max rot=    0.0142 deg.
 QCNR:  CnvC1=8.64D-09 CnvC2=8.64D-08
 LinEq1:  Iter=  0 NonCon=     1 RMS=8.00D-06 Max=1.42D-03 NDo=     1
 AX will form     1 AO Fock derivatives at one time.
 LinEq1:  Iter=  1 NonCon=     1 RMS=5.98D-06 Max=4.76D-04 NDo=     1
 LinEq1:  Iter=  2 NonCon=     1 RMS=2.87D-06 Max=1.53D-04 NDo=     1
 LinEq1:  Iter=  3 NonCon=     1 RMS=1.71D-06 Max=1.05D-04 NDo=     1
 LinEq1:  Iter=  4 NonCon=     1 RMS=9.24D-07 Max=4.47D-05 NDo=     1
 LinEq1:  Iter=  5 NonCon=     1 RMS=6.15D-07 Max=3.19D-05 NDo=     1
 LinEq1:  Iter=  6 NonCon=     1 RMS=3.68D-07 Max=2.22D-05 NDo=     1
 LinEq1:  Iter=  7 NonCon=     1 RMS=2.49D-07 Max=1.82D-05 NDo=     1
 LinEq1:  Iter=  8 NonCon=     1 RMS=1.39D-07 Max=1.04D-05 NDo=     1
 LinEq1:  Iter=  9 NonCon=     1 RMS=9.53D-08 Max=6.85D-06 NDo=     1
 LinEq1:  Iter= 10 NonCon=     1 RMS=5.73D-08 Max=3.36D-06 NDo=     1
 LinEq1:  Iter= 11 NonCon=     1 RMS=3.67D-08 Max=1.67D-06 NDo=     1
 LinEq1:  Iter= 12 NonCon=     1 RMS=2.11D-08 Max=1.22D-06 NDo=     1
 LinEq1:  Iter= 13 NonCon=     1 RMS=1.23D-08 Max=1.17D-06 NDo=     1
 LinEq1:  Iter= 14 NonCon=     1 RMS=6.84D-09 Max=5.33D-07 NDo=     1
 LinEq1:  Iter= 15 NonCon=     1 RMS=3.93D-09 Max=3.02D-07 NDo=     1
 LinEq1:  Iter= 16 NonCon=     1 RMS=2.31D-09 Max=2.10D-07 NDo=     1
 LinEq1:  Iter= 17 NonCon=     1 RMS=1.46D-09 Max=1.30D-07 NDo=     1
 LinEq1:  Iter= 18 NonCon=     0 RMS=8.48D-10 Max=6.52D-08 NDo=     1
 Linear equations converged to 8.641D-09 8.641D-08 after    18 iterations.
 Angle between quadratic step and gradient=  59.93 degrees.
     ILin= 1 X=0.000D+00 Y=-1.641021887619D+03 DE= 0.00D+00 F= -4.74D-06
     ILin= 2 X=1.000D+00 Y=-1.641021889997D+03 DE=-2.38D-06
 Iteration   2 EE= -1641.02188999711     Delta-E=       -0.000002378139 Grad=6.691D-06 Max rot=    0.0001 deg.
 Rotation gradient small -- convergence achieved.
 SCF Done:  E(ULC-wHPBE) =  -1641.02189000     a.u. after    2 cycles
            Convg  =    0.6691D-05                    20 Fock formations.
              S**2 =  0.7958                  -V/T =  2.0043
 <Sx>= 0.0000 <Sy>= 0.0000 <Sz>= 0.5000 <S**2>= 0.7958 S= 0.5227
 <L.S>= 0.000000000000E+00
 Annihilation of the first spin contaminant:
 S**2 before annihilation     0.7958,   after     0.7508
 Leave Link  508 at Tue Jan 26 15:27:08 2021, MaxMem=  4026531840 cpu:            7066.4 elap:             885.9
 (Enter /opt/ohpc/pub/libs/gaussian/g16-A.03/sandybridge/g16/l601.exe)
 Copying SCF densities to generalized density rwf, IOpCl= 1 IROHF=0.

 **********************************************************************

            Population analysis using the SCF density.

 **********************************************************************

 Orbital symmetries:
 Alpha Orbitals:
       Occupied  (A) (A) (A) (A) (A) (A) (A) (A) (A) (A) (A) (A)
                 (A) (A) (A) (A) (A) (A) (A) (A) (A) (A) (A) (A)
                 (A) (A) (A) (A) (A) (A) (A) (A) (A) (A) (A) (A)
                 (A) (A) (A) (A) (A) (A) (A) (A) (A) (A) (A) (A)
                 (A) (A) (A) (A) (A) (A) (A) (A) (A) (A) (A) (A)
                 (A) (A) (A) (A) (A) (A) (A) (A) (A) (A) (A) (A)
                 (A) (A) (A) (A) (A) (A) (A) (A) (A) (A) (A) (A)
                 (A) (A) (A) (A) (A) (A)
       Virtual   (A) (A) (A) (A) (A) (A) (A) (A) (A) (A) (A) (A)
                 (A) (A) (A) (A) (A) (A) (A) (A) (A) (A) (A) (A)
                 (A) (A) (A) (A) (A) (A) (A) (A) (A) (A) (A) (A)
                 (A) (A) (A) (A) (A) (A) (A) (A) (A) (A) (A) (A)
                 (A) (A) (A) (A) (A) (A) (A) (A) (A) (A) (A) (A)
                 (A) (A) (A) (A) (A) (A) (A) (A) (A) (A) (A) (A)
                 (A) (A) (A) (A) (A) (A) (A) (A) (A) (A) (A) (A)
                 (A) (A) (A) (A) (A) (A) (A) (A) (A) (A) (A) (A)
                 (A) (A) (A) (A) (A) (A) (A) (A) (A) (A) (A) (A)
                 (A) (A) (A) (A) (A) (A) (A) (A) (A) (A) (A) (A)
                 (A) (A) (A) (A) (A) (A) (A) (A) (A) (A) (A) (A)
                 (A) (A) (A) (A) (A) (A) (A) (A) (A) (A) (A) (A)
                 (A) (A) (A) (A) (A) (A) (A) (A) (A) (A) (A) (A)
                 (A) (A) (A) (A) (A) (A) (A) (A) (A) (A) (A) (A)
                 (A) (A) (A) (A) (A) (A) (A) (A) (A) (A) (A) (A)
                 (A) (A) (A) (A) (A) (A) (A) (A) (A) (A) (A) (A)
                 (A) (A) (A) (A) (A) (A) (A) (A) (A) (A) (A) (A)
                 (A) (A) (A) (A) (A) (A) (A) (A) (A) (A) (A) (A)
                 (A) (A) (A) (A) (A) (A) (A) (A) (A) (A) (A) (A)
                 (A) (A) (A) (A) (A) (A) (A) (A) (A) (A) (A) (A)
                 (A) (A) (A) (A) (A) (A) (A) (A) (A) (A) (A) (A)
                 (A) (A) (A) (A) (A) (A) (A) (A) (A) (A) (A) (A)
                 (A) (A) (A) (A) (A) (A) (A) (A) (A) (A) (A) (A)
                 (A) (A) (A) (A) (A) (A) (A) (A) (A) (A) (A) (A)
                 (A) (A) (A) (A) (A) (A) (A) (A) (A) (A) (A) (A)
                 (A) (A) (A) (A) (A) (A) (A) (A) (A) (A) (A) (A)
                 (A) (A) (A) (A) (A) (A) (A) (A) (A) (A) (A) (A)
                 (A) (A) (A) (A) (A) (A) (A) (A) (A) (A) (A) (A)
                 (A) (A) (A) (A) (A) (A) (A) (A) (A) (A) (A) (A)
                 (A) (A) (A) (A) (A) (A) (A) (A) (A) (A) (A) (A)
                 (A) (A) (A) (A) (A) (A) (A) (A) (A) (A) (A) (A)
                 (A) (A) (A) (A) (A) (A) (A) (A) (A) (A) (A) (A)
                 (A) (A) (A) (A) (A) (A) (A) (A) (A) (A) (A) (A)
                 (A) (A) (A) (A) (A) (A) (A) (A) (A) (A) (A) (A)
                 (A) (A) (A) (A) (A) (A) (A) (A) (A) (A) (A) (A)
                 (A) (A) (A) (A) (A) (A) (A) (A) (A) (A) (A) (A)
                 (A) (A) (A) (A) (A) (A) (A) (A) (A) (A) (A) (A)
                 (A) (A) (A) (A) (A) (A) (A) (A) (A) (A) (A) (A)
                 (A) (A) (A) (A) (A) (A) (A) (A) (A) (A) (A) (A)
                 (A) (A) (A) (A) (A) (A) (A) (A) (A) (A) (A)
 Beta  Orbitals:
       Occupied  (A) (A) (A) (A) (A) (A) (A) (A) (A) (A) (A) (A)
                 (A) (A) (A) (A) (A) (A) (A) (A) (A) (A) (A) (A)
                 (A) (A) (A) (A) (A) (A) (A) (A) (A) (A) (A) (A)
                 (A) (A) (A) (A) (A) (A) (A) (A) (A) (A) (A) (A)
                 (A) (A) (A) (A) (A) (A) (A) (A) (A) (A) (A) (A)
                 (A) (A) (A) (A) (A) (A) (A) (A) (A) (A) (A) (A)
[...]
    40  H(1)              -0.00011      -0.49008      -0.17487      -0.16347
    41  C(13)              0.00009       0.10264       0.03663       0.03424
    42  H(1)              -0.00009      -0.38801      -0.13845      -0.12943
    43  H(1)              -0.00009      -0.39627      -0.14140      -0.13218
    44  H(1)              -0.00000      -0.01194      -0.00426      -0.00398
 --------------------------------------------------------
       Center         ----  Spin Dipole Couplings  ----
                      3XX-RR        3YY-RR        3ZZ-RR
 --------------------------------------------------------
     1   Atom       -0.007897      0.008076     -0.000179
     2   Atom        0.023020     -0.021659     -0.001360
     3   Atom        0.025962     -0.025123     -0.000839
     4   Atom       -0.006166      0.005803      0.000363
     5   Atom       -0.131630      0.162353     -0.030723
     6   Atom        0.625714     -0.253873     -0.371841
     7   Atom        0.023528     -0.019952     -0.003576
     8   Atom        0.010760     -0.009307     -0.001453
     9   Atom       -0.007917      0.004626      0.003291
    10   Atom       -0.006137     -0.001755      0.007892
    11   Atom        0.063126     -0.008616     -0.054511
    12   Atom        0.037421     -0.026489     -0.010932
    13   Atom        0.018980      0.010763     -0.029743
    14   Atom       -0.001356      0.003193     -0.001836
    15   Atom       -0.001679      0.004797     -0.003118
    16   Atom        0.004487     -0.002332     -0.002155
    17   Atom        0.005913     -0.005603     -0.000310
    18   Atom        0.000143      0.000014     -0.000157
    19   Atom       -0.001155      0.001809     -0.000654
    20   Atom        0.002285     -0.003563      0.001278
    21   Atom        0.007090     -0.003653     -0.003437
    22   Atom        0.001778      0.000177     -0.001955
    23   Atom        0.379106     -0.169054     -0.210052
    24   Atom       -0.005702     -0.003600      0.009302
    25   Atom        0.002100      0.001478     -0.003577
    26   Atom        0.002131      0.001698     -0.003829
    27   Atom        0.006950      0.005745     -0.012695
    28   Atom        0.006545      0.005751     -0.012296
    29   Atom        0.001367     -0.000798     -0.000569
    30   Atom        0.000833     -0.000506     -0.000327
    31   Atom        0.001816     -0.001017     -0.000799
    32   Atom        0.000731     -0.000434     -0.000297
    33   Atom        0.000239     -0.000092     -0.000147
    34   Atom        0.000307     -0.000152     -0.000155
    35   Atom        0.000276     -0.000132     -0.000144
    36   Atom        0.000322     -0.000180     -0.000142
    37   Atom        0.000254      0.000348     -0.000602
    38   Atom        0.000138      0.000278     -0.000416
    39   Atom        0.000136      0.000607     -0.000744
    40   Atom        0.000082      0.000199     -0.000281
    41   Atom        0.000184     -0.000027     -0.000157
    42   Atom        0.000198     -0.000028     -0.000170
    43   Atom        0.000180     -0.000028     -0.000153
    44   Atom        0.000221     -0.000072     -0.000149
 --------------------------------------------------------
                        XY            XZ            YZ
 --------------------------------------------------------
     1   Atom       -0.007245     -0.015589     -0.005319
     2   Atom        0.024418      0.040884      0.016891
     3   Atom        0.005513     -0.029269     -0.004181
     4   Atom       -0.000305     -0.007482     -0.002355
     5   Atom       -0.087541     -0.063914      0.077532
     6   Atom       -0.462277      0.037433     -0.081947
     7   Atom        0.024986      0.035301      0.017461
     8   Atom        0.005962      0.009146      0.002113
     9   Atom        0.003447      0.007047     -0.004743
    10   Atom       -0.014523     -0.017930     -0.015247
    11   Atom       -0.009945      0.034405      0.030320
    12   Atom       -0.023361      0.002186     -0.020134
    13   Atom       -0.016549      0.008990      0.019313
    14   Atom       -0.001387     -0.000494      0.002851
    15   Atom        0.009775      0.006646      0.009279
    16   Atom        0.003832      0.004489      0.002162
    17   Atom        0.002710      0.004620      0.001379
    18   Atom       -0.000039     -0.001436     -0.000040
    19   Atom        0.001521     -0.000553     -0.000766
    20   Atom       -0.000113     -0.003200      0.001923
    21   Atom        0.000618      0.005388     -0.000872
    22   Atom       -0.001006     -0.000532     -0.000525
    23   Atom        0.729824      0.659387      0.455624
    24   Atom        0.001201     -0.001659     -0.000621
    25   Atom        0.000261     -0.001133      0.000985
    26   Atom       -0.000541      0.002971     -0.000708
    27   Atom       -0.000104      0.001830     -0.001672
    28   Atom       -0.000580      0.000498     -0.001170
    29   Atom        0.000037      0.000038      0.000095
    30   Atom        0.000188      0.000207     -0.000019
    31   Atom        0.000488     -0.000151     -0.000009
    32   Atom        0.000109     -0.000066      0.000050
    33   Atom       -0.000064     -0.000037     -0.000007
    34   Atom       -0.000066      0.000035     -0.000023
    35   Atom       -0.000065      0.000045      0.000006
    36   Atom       -0.000107      0.000036      0.000006
    37   Atom       -0.001130      0.000251     -0.000108
    38   Atom       -0.000732     -0.000026     -0.000019
    39   Atom       -0.001322      0.000384     -0.000376
    40   Atom       -0.000599      0.000218     -0.000149
    41   Atom       -0.000185      0.000079     -0.000077
    42   Atom       -0.000235      0.000026     -0.000034
    43   Atom       -0.000210      0.000047     -0.000005
    44   Atom       -0.000226      0.000043     -0.000014
 --------------------------------------------------------


 ---------------------------------------------------------------------------------
              Anisotropic Spin Dipole Couplings in Principal Axis System
 ---------------------------------------------------------------------------------

       Atom             a.u.   MegaHertz   Gauss  10(-4) cm-1        Axes

              Baa    -0.0227    -3.049    -1.088    -1.017  0.7574  0.2801  0.5899
     1 C(13)  Bbb     0.0106     1.429     0.510     0.477 -0.1002  0.9425 -0.3188
              Bcc     0.0121     1.620     0.578     0.540 -0.6453  0.1823  0.7419
 
              Baa    -0.0329    -4.414    -1.575    -1.472 -0.5988  0.6900  0.4068
     2 C(13)  Bbb    -0.0309    -4.147    -1.480    -1.383 -0.2541 -0.6452  0.7205
              Bcc     0.0638     8.561     3.055     2.856  0.7596  0.3280  0.5616
 
              Baa    -0.0258    -1.060    -0.378    -0.353 -0.0349  0.9916  0.1249
     3 S(33)  Bbb    -0.0196    -0.803    -0.286    -0.268  0.5460 -0.0857  0.8334
              Bcc     0.0454     1.862     0.665     0.621  0.8371  0.0973 -0.5384
 
              Baa    -0.0112    -1.504    -0.537    -0.502  0.8276  0.0915  0.5538
     4 C(13)  Bbb     0.0038     0.507     0.181     0.169 -0.4771  0.6346  0.6080
              Bcc     0.0074     0.997     0.356     0.333  0.2958  0.7674 -0.5689
 
              Baa    -0.1703   -22.847    -8.152    -7.621  0.9282  0.1668  0.3325
     5 C(13)  Bbb    -0.0503    -6.746    -2.407    -2.250 -0.2389 -0.4180  0.8765
              Bcc     0.2205    29.593    10.560     9.871 -0.2852  0.8930  0.3481
 
              Baa    -0.4854   -65.139   -23.243   -21.728  0.3228  0.8148  0.4815
     6 C(13)  Bbb    -0.3423   -45.930   -16.389   -15.321 -0.2360 -0.4234  0.8747
              Bcc     0.8277   111.069    39.632    37.049  0.9166 -0.3960  0.0557
 
              Baa    -0.0317    -4.249    -1.516    -1.417 -0.2618  0.9321 -0.2504
     7 C(13)  Bbb    -0.0278    -3.734    -1.332    -1.245 -0.5833  0.0539  0.8104
              Bcc     0.0595     7.982     2.848     2.663  0.7689  0.3583  0.5296
 
              Baa    -0.0110    -1.472    -0.525    -0.491 -0.2900  0.9547  0.0668
     8 C(13)  Bbb    -0.0062    -0.827    -0.295    -0.276 -0.4148 -0.1883  0.8902
              Bcc     0.0171     2.299     0.820     0.767  0.8624  0.2305  0.4506
 
              Baa    -0.0129    -6.870    -2.451    -2.292  0.8437 -0.2888 -0.4525
     9 H(1)   Bbb     0.0038     2.008     0.717     0.670  0.5074  0.7042  0.4966
              Bcc     0.0091     4.862     1.735     1.622  0.1752 -0.6486  0.7407
 
              Baa    -0.0324    -4.346    -1.551    -1.450  0.6555  0.5619  0.5045
    10 C(13)  Bbb     0.0107     1.441     0.514     0.481 -0.6470  0.7624 -0.0085
              Bcc     0.0216     2.905     1.036     0.969 -0.3895 -0.3208  0.8634
 
              Baa    -0.0784   -10.519    -3.754    -3.509 -0.2423 -0.4155  0.8767
    11 C(13)  Bbb     0.0059     0.792     0.283     0.264 -0.0867  0.9093  0.4070
              Bcc     0.0725     9.727     3.471     3.245  0.9663 -0.0226  0.2564
 
              Baa    -0.0445    -5.973    -2.131    -1.992  0.2269  0.8417  0.4900
    12 C(13)  Bbb    -0.0018    -0.248    -0.089    -0.083 -0.2972 -0.4192  0.8579
              Bcc     0.0464     6.221     2.220     2.075  0.9275 -0.3403  0.1550
 
              Baa    -0.0411    -5.518    -1.969    -1.841 -0.2435 -0.4056  0.8810
    13 C(13)  Bbb     0.0087     1.171     0.418     0.391  0.6185  0.6347  0.4632
              Bcc     0.0324     4.346     1.551     1.450  0.7471 -0.6577 -0.0963
 
              Baa    -0.0031    -1.672    -0.597    -0.558 -0.0802 -0.4242  0.9020
    14 H(1)   Bbb    -0.0017    -0.904    -0.323    -0.302  0.9697  0.1764  0.1691
              Bcc     0.0048     2.576     0.919     0.859 -0.2309  0.8882  0.3972
 
              Baa    -0.0093    -4.953    -1.767    -1.652 -0.2191 -0.4262  0.8777
    15 H(1)   Bbb    -0.0087    -4.661    -1.663    -1.555  0.8290 -0.5557 -0.0629
              Bcc     0.0180     9.614     3.431     3.207  0.5145  0.7138  0.4751
 
              Baa    -0.0045    -2.406    -0.859    -0.803 -0.2662 -0.4016  0.8763
    16 H(1)   Bbb    -0.0040    -2.144    -0.765    -0.715 -0.4985  0.8354  0.2314
              Bcc     0.0085     4.551     1.624     1.518  0.8250  0.3752  0.4226
 
              Baa    -0.0062    -0.837    -0.299    -0.279 -0.1872  0.9789 -0.0819
    17 C(13)  Bbb    -0.0028    -0.371    -0.133    -0.124 -0.4661 -0.0152  0.8846
              Bcc     0.0090     1.208     0.431     0.403  0.8647  0.2038  0.4591
 
              Baa    -0.0015    -0.775    -0.277    -0.259  0.6689  0.0377  0.7424
    18 H(1)   Bbb     0.0000     0.009     0.003     0.003 -0.0241  0.9993 -0.0290
              Bcc     0.0014     0.767     0.274     0.256  0.7430 -0.0015 -0.6693
 
              Baa    -0.0018    -0.983    -0.351    -0.328  0.9175 -0.3384  0.2092
    19 H(1)   Bbb    -0.0009    -0.460    -0.164    -0.153 -0.0951  0.3241  0.9412
              Bcc     0.0027     1.443     0.515     0.481  0.3863  0.8834 -0.2652
 
              Baa    -0.0044    -2.351    -0.839    -0.784 -0.1779  0.8974 -0.4038
    20 H(1)   Bbb    -0.0008    -0.440    -0.157    -0.147  0.6604  0.4131  0.6271
              Bcc     0.0052     2.791     0.996     0.931  0.7295 -0.1551 -0.6661
 
              Baa    -0.0061    -3.278    -1.170    -1.094 -0.3632  0.3869  0.8476
    21 H(1)   Bbb    -0.0032    -1.718    -0.613    -0.573  0.1346  0.9220 -0.3632
              Bcc     0.0094     4.996     1.783     1.666  0.9220  0.0178  0.3869
 
              Baa    -0.0022    -1.188    -0.424    -0.396  0.1966  0.2870  0.9375
    22 H(1)   Bbb    -0.0001    -0.027    -0.010    -0.009  0.3745  0.8617 -0.3423
              Bcc     0.0023     1.216     0.434     0.405  0.9062 -0.4184 -0.0619
 
              Baa    -0.6746   -27.657    -9.869    -9.225 -0.5766  0.8169  0.0172
    23 S(33)  Bbb    -0.6332   -25.963    -9.264    -8.660 -0.3728 -0.2817  0.8841
              Bcc     1.3078    53.620    19.133    17.886  0.7271  0.5033  0.4669
 
              Baa    -0.0064    -0.852    -0.304    -0.284  0.9200 -0.3831  0.0823
    24 C(13)  Bbb    -0.0032    -0.426    -0.152    -0.142  0.3753  0.9219  0.0957
              Bcc     0.0095     1.278     0.456     0.426 -0.1126 -0.0572  0.9920
 
              Baa    -0.0040    -0.535    -0.191    -0.178  0.1875 -0.1830  0.9651
    25 C(13)  Bbb     0.0017     0.223     0.079     0.074 -0.0682  0.9777  0.1986
              Bcc     0.0023     0.312     0.111     0.104  0.9799  0.1031 -0.1709
 
              Baa    -0.0051    -0.683    -0.244    -0.228 -0.3755  0.0666  0.9244
    26 C(13)  Bbb     0.0014     0.191     0.068     0.064  0.3657  0.9272  0.0818
              Bcc     0.0037     0.492     0.175     0.164  0.8516 -0.3687  0.3725
 
              Baa    -0.0130    -0.502    -0.179    -0.167 -0.0905  0.0880  0.9920
    27 N(14)  Bbb     0.0058     0.225     0.080     0.075  0.2033  0.9767 -0.0681
              Bcc     0.0072     0.277     0.099     0.092  0.9749 -0.1956  0.1063
 
              Baa    -0.0124    -0.478    -0.170    -0.159 -0.0243  0.0636  0.9977
    28 N(14)  Bbb     0.0055     0.211     0.075     0.070  0.4937  0.8686 -0.0433
              Bcc     0.0069     0.266     0.095     0.089  0.8693 -0.4915  0.0525
 
              Baa    -0.0008    -0.112    -0.040    -0.037 -0.0102  0.9416 -0.3366
    29 C(13)  Bbb    -0.0005    -0.072    -0.026    -0.024 -0.0253  0.3362  0.9414
              Bcc     0.0014     0.184     0.066     0.061  0.9996  0.0182  0.0204
 
              Baa    -0.0005    -0.290    -0.104    -0.097 -0.1671  0.9553  0.2438
    30 H(1)   Bbb    -0.0003    -0.186    -0.066    -0.062 -0.1248 -0.2658  0.9559
              Bcc     0.0009     0.476     0.170     0.159  0.9780  0.1293  0.1637
 
              Baa    -0.0011    -0.587    -0.209    -0.196 -0.1674  0.9844 -0.0543
    31 H(1)   Bbb    -0.0008    -0.430    -0.153    -0.143  0.0459  0.0628  0.9970
              Bcc     0.0019     1.017     0.363     0.339  0.9848  0.1644 -0.0557
 
              Baa    -0.0005    -0.247    -0.088    -0.083 -0.1037  0.9410 -0.3221
    32 H(1)   Bbb    -0.0003    -0.150    -0.054    -0.050  0.0262  0.3263  0.9449
              Bcc     0.0007     0.397     0.142     0.133  0.9943  0.0896 -0.0585
 
              Baa    -0.0002    -0.021    -0.007    -0.007  0.1306  0.2382  0.9624
    33 C(13)  Bbb    -0.0001    -0.013    -0.005    -0.004  0.1523  0.9544 -0.2569
              Bcc     0.0003     0.034     0.012     0.011  0.9797 -0.1801 -0.0884
 
              Baa    -0.0002    -0.094    -0.034    -0.032  0.0509  0.7338  0.6774
    34 H(1)   Bbb    -0.0001    -0.076    -0.027    -0.025 -0.1537 -0.6645  0.7313
              Bcc     0.0003     0.170     0.061     0.057  0.9868 -0.1413  0.0789
 
              Baa    -0.0002    -0.085    -0.030    -0.028 -0.1701 -0.5976  0.7836
    35 H(1)   Bbb    -0.0001    -0.070    -0.025    -0.024  0.0593  0.7875  0.6134
              Bcc     0.0003     0.155     0.055     0.052  0.9836 -0.1508  0.0985
 
              Baa    -0.0002    -0.109    -0.039    -0.036  0.2087  0.9557 -0.2075
    36 H(1)   Bbb    -0.0001    -0.076    -0.027    -0.025 -0.0253  0.2174  0.9758
              Bcc     0.0003     0.185     0.066     0.062  0.9777 -0.1984  0.0695
 
              Baa    -0.0009    -0.117    -0.042    -0.039  0.6916  0.6035 -0.3967
    37 C(13)  Bbb    -0.0006    -0.079    -0.028    -0.026  0.2094  0.3581  0.9099
              Bcc     0.0015     0.196     0.070     0.065 -0.6912  0.7124 -0.1213
 
              Baa    -0.0005    -0.286    -0.102    -0.095  0.7154  0.6496  0.2574
    38 H(1)   Bbb    -0.0004    -0.218    -0.078    -0.073 -0.1888 -0.1749  0.9663
              Bcc     0.0009     0.503     0.180     0.168 -0.6727  0.7399  0.0025
 
              Baa    -0.0010    -0.529    -0.189    -0.176  0.7603  0.5461 -0.3518
    39 H(1)   Bbb    -0.0008    -0.446    -0.159    -0.149  0.1518  0.3772  0.9136
              Bcc     0.0018     0.974     0.348     0.325 -0.6316  0.7480 -0.2039
 
              Baa    -0.0005    -0.260    -0.093    -0.087  0.7372  0.5632 -0.3732
    40 H(1)   Bbb    -0.0003    -0.169    -0.060    -0.056  0.1364  0.4170  0.8986
              Bcc     0.0008     0.429     0.153     0.143 -0.6617  0.7134 -0.2306
 
              Baa    -0.0002    -0.026    -0.009    -0.009  0.0359  0.4526  0.8910
    41 C(13)  Bbb    -0.0001    -0.016    -0.006    -0.005  0.5464  0.7376 -0.3967
              Bcc     0.0003     0.042     0.015     0.014  0.8367 -0.5011  0.2208
 
              Baa    -0.0002    -0.101    -0.036    -0.034  0.3511  0.6506  0.6734
    42 H(1)   Bbb    -0.0002    -0.085    -0.030    -0.028 -0.4086 -0.5406  0.7354
              Bcc     0.0003     0.186     0.066     0.062  0.8425 -0.5333  0.0760
 
              Baa    -0.0002    -0.095    -0.034    -0.032 -0.4311 -0.5795  0.6916
    43 H(1)   Bbb    -0.0001    -0.073    -0.026    -0.024  0.3084  0.6257  0.7165
              Bcc     0.0003     0.168     0.060     0.056  0.8480 -0.5222  0.0910
 
              Baa    -0.0002    -0.105    -0.037    -0.035  0.4829  0.8558 -0.1855
    44 H(1)   Bbb    -0.0002    -0.081    -0.029    -0.027  0.0110  0.2059  0.9785
              Bcc     0.0003     0.185     0.066     0.062  0.8756 -0.4746  0.0901
 

 ---------------------------------------------------------------------------------

 No NMR shielding tensors so no spin-rotation constants.
 Leave Link  601 at Tue Jan 26 15:27:09 2021, MaxMem=  4026531840 cpu:               6.9 elap:               0.9
 (Enter /opt/ohpc/pub/libs/gaussian/g16-A.03/sandybridge/g16/l9999.exe)

 Test job not archived.
 1\1\GINC-GNODE020\SP\ULC-wHPBE\TZVP\C19H21N2S2(2+,2)\RDU230\26-Jan-202
 1\0\\#P LC-wHPBE/TZVP iop(3/107=0221900000, 3/108=0221900000) scf=(con
 ver=6,fermi,ndamp=35,noincfock,novaracc,vshift=500,xqc)\\H21 C19 S2 N2
 \\2,2\C,0,5.141333,0.341453,-1.428653\C,0,4.24633,0.793113,-0.45792\S,
 0,3.527427,2.438238,-0.612926\C,0,3.85258,-0.085202,0.570411\C,0,0.863
 708,-0.787434,0.770822\C,0,1.152588,-1.949541,0.292605\C,0,5.641454,-0
 .963707,-1.38032\C,0,4.337968,-1.397272,0.611701\H,0,2.805747,-0.53668
 6,2.620663\C,0,-0.32759,-0.104924,0.757243\C,0,0.161049,-2.709273,-0.3
 36618\C,0,-1.110551,-2.125038,-0.416532\C,0,-1.366563,-0.836811,0.1161
 44\H,0,-0.506361,0.876389,1.203135\H,0,0.333628,-3.701573,-0.760587\H,
 0,-1.915541,-2.656529,-0.930176\C,0,5.242141,-1.827604,-0.363151\H,0,5
 .450891,1.02542,-2.21936\H,0,4.15948,2.9901,0.460876\H,0,6.34791,-1.29
 8886,-2.140548\H,0,4.022912,-2.077842,1.402557\H,0,5.625918,-2.84765,-
 0.32369\S,0,2.641644,0.489998,1.741439\C,0,-2.680648,-0.257498,0.00376
 4\C,0,-4.05427,-0.413992,-0.132503\C,0,-3.489875,0.870167,-0.052158\N,
 0,-5.09974,-1.211802,-0.243141\N,0,-3.607387,2.185094,-0.049886\C,0,-4
 .95887,-2.66296,-0.086881\H,0,-5.24939,-3.175063,-1.01565\H,0,-3.92190
 6,-2.911213,0.159186\H,0,-5.607057,-3.011636,0.730112\C,0,-6.456302,-0
 .708508,-0.463149\H,0,-6.932296,-1.289768,-1.265044\H,0,-7.06234,-0.80
 4638,0.450448\H,0,-6.424137,0.340187,-0.774131\C,0,-2.422516,3.047015,
 -0.104701\H,0,-2.374233,3.683098,0.791036\H,0,-1.518165,2.434104,-0.16
 8534\H,0,-2.472812,3.689712,-0.995626\C,0,-4.905946,2.85982,-0.071613\
 H,0,-4.903422,3.671788,0.668659\H,0,-5.109136,3.28812,-1.064906\H,0,-5
 .70105,2.156915,0.195603\\Version=EM64L-G16RevA.03\State=2-A\HF=-1641.
 02189\S2=0.795822\S2-1=0.\S2A=0.75084\RMSD=2.284e-08\Dipole=-2.6295892
 ,-0.5358563,0.6606156\Quadrupole=74.1606848,-22.3854031,-51.7752817,-6
 .7779957,5.0850725,3.7773497\PG=C01 [X(C19H21N2S2)]\\@


 UNLESS WE CHANGE DIRECTIONS, WE WILL WIND UP WHERE WE ARE HEADED.
     -- CONFUCIUS
 Job cpu time:       0 days  5 hours 35 minutes 29.2 seconds.
 Elapsed time:       0 days  0 hours 42 minutes  1.5 seconds.
 File lengths (MBytes):  RWF=    208 Int=      0 D2E=      0 Chk=     28 Scr=      8
 Normal termination of Gaussian 16 at Tue Jan 26 15:27:09 2021.
