 Entering Gaussian System, Link 0=g16
 Input=mol_ta_cp_half_tune_c6.gjf
 Output=mol_ta_cp_half_tune_c6.log
 Initial command:
 /opt/ohpc/pub/libs/gaussian/g16-A.03/sandybridge/g16/l1.exe "/mnt/gpfs2_4m/scratch/rdu230/ondemand/projects/init_structures/gaussian/wtuning/mol_ta_cp_half/tuning_mol_ta_cp_half_ocycle0/Gau-6363.inp" -scrdir="/mnt/gpfs2_4m/scratch/rdu230/ondemand/projects/init_structures/gaussian/wtuning/mol_ta_cp_half/tuning_mol_ta_cp_half_ocycle0/"
 Entering Link 1 = /opt/ohpc/pub/libs/gaussian/g16-A.03/sandybridge/g16/l1.exe PID=      6364.
  
 Copyright (c) 1988,1990,1992,1993,1995,1998,2003,2009,2016,
            Gaussian, Inc.  All Rights Reserved.
  
 This is part of the Gaussian(R) 16 program.  It is based on
 the Gaussian(R) 09 system (copyright 2009, Gaussian, Inc.),
 the Gaussian(R) 03 system (copyright 2003, Gaussian, Inc.),
 the Gaussian(R) 98 system (copyright 1998, Gaussian, Inc.),
 the Gaussian(R) 94 system (copyright 1995, Gaussian, Inc.),
 the Gaussian 92(TM) system (copyright 1992, Gaussian, Inc.),
 the Gaussian 90(TM) system (copyright 1990, Gaussian, Inc.),
 the Gaussian 88(TM) system (copyright 1988, Gaussian, Inc.),
 the Gaussian 86(TM) system (copyright 1986, Carnegie Mellon
 University), and the Gaussian 82(TM) system (copyright 1983,
 Carnegie Mellon University). Gaussian is a federally registered
 trademark of Gaussian, Inc.
  
 This software contains proprietary and confidential information,
 including trade secrets, belonging to Gaussian, Inc.
  
 This software is provided under written license and may be
 used, copied, transmitted, or stored only in accord with that
 written license.
  
 The following legend is applicable only to US Government
 contracts under FAR:
  
                    RESTRICTED RIGHTS LEGEND
  
 Use, reproduction and disclosure by the US Government is
 subject to restrictions as set forth in subparagraphs (a)
 and (c) of the Commercial Computer Software - Restricted
 Rights clause in FAR 52.227-19.
  
 Gaussian, Inc.
 340 Quinnipiac St., Bldg. 40, Wallingford CT 06492
  
  
 ---------------------------------------------------------------
 Warning -- This program may not be used in any manner that
 competes with the business of Gaussian, Inc. or will provide
 assistance to any competitor of Gaussian, Inc.  The licensee
 of this program is prohibited from giving any competitor of
 Gaussian, Inc. access to this program.  By using this program,
 the user acknowledges that Gaussian, Inc. is engaged in the
 business of creating and licensing software in the field of
 computational chemistry and represents and warrants to the
 licensee that it is not a competitor of Gaussian, Inc. and that
 it will not use this program in any manner prohibited above.
 ---------------------------------------------------------------
  

 Cite this work as:
 Gaussian 16, Revision A.03,
 M. J. Frisch, G. W. Trucks, H. B. Schlegel, G. E. Scuseria, 
 M. A. Robb, J. R. Cheeseman, G. Scalmani, V. Barone, 
 G. A. Petersson, H. Nakatsuji, X. Li, M. Caricato, A. V. Marenich, 
 J. Bloino, B. G. Janesko, R. Gomperts, B. Mennucci, H. P. Hratchian, 
 J. V. Ortiz, A. F. Izmaylov, J. L. Sonnenberg, D. Williams-Young, 
 F. Ding, F. Lipparini, F. Egidi, J. Goings, B. Peng, A. Petrone, 
 T. Henderson, D. Ranasinghe, V. G. Zakrzewski, J. Gao, N. Rega, 
 G. Zheng, W. Liang, M. Hada, M. Ehara, K. Toyota, R. Fukuda, 
 J. Hasegawa, M. Ishida, T. Nakajima, Y. Honda, O. Kitao, H. Nakai, 
 T. Vreven, K. Throssell, J. A. Montgomery, Jr., J. E. Peralta, 
 F. Ogliaro, M. J. Bearpark, J. J. Heyd, E. N. Brothers, K. N. Kudin, 
 V. N. Staroverov, T. A. Keith, R. Kobayashi, J. Normand, 
 K. Raghavachari, A. P. Rendell, J. C. Burant, S. S. Iyengar, 
 J. Tomasi, M. Cossi, J. M. Millam, M. Klene, C. Adamo, R. Cammi, 
 J. W. Ochterski, R. L. Martin, K. Morokuma, O. Farkas, 
 J. B. Foresman, and D. J. Fox, Gaussian, Inc., Wallingford CT, 2016.
 
 ******************************************
 Gaussian 16:  EM64L-G16RevA.03 25-Dec-2016
                26-Jan-2021 
 ******************************************
 %mem=30GB
 %nproc=8
 Will use up to    8 processors via shared memory.
 ----------------------------------------------------------------------
 #P LC-wHPBE/TZVP iop(3/107=0171200000, 3/108=0171200000) scf=(conver=6
 ,fermi,ndamp=35,noincfock,novaracc,vshift=500,xqc)
 ----------------------------------------------------------------------
 1/38=1,172=1/1;
 2/12=2,17=6,18=5,40=1/2;
 3/5=19,7=101,11=2,25=1,30=1,74=-71,107=171200000,108=171200000/1,2,3;
 4//1;
 5/5=100002,6=6,8=3,10=500,13=1,18=-1,22=13,38=1,93=35/2,8;
 6/7=2,8=2,9=2,10=2,28=1/1;
 99/5=1,9=1/99;
 Leave Link    1 at Tue Jan 26 20:08:50 2021, MaxMem=  4026531840 cpu:               1.2 elap:               0.2
 (Enter /opt/ohpc/pub/libs/gaussian/g16-A.03/sandybridge/g16/l101.exe)
 -------------
 H21 C19 S2 N2
 -------------
 Symbolic Z-matrix:
 Charge =  2 Multiplicity = 2
 C                     5.14133   0.34145  -1.42865 
 C                     4.24633   0.79311  -0.45792 
 S                     3.52743   2.43824  -0.61293 
 C                     3.85258  -0.0852    0.57041 
 C                     0.86371  -0.78743   0.77082 
 C                     1.15259  -1.94954   0.29261 
 C                     5.64145  -0.96371  -1.38032 
 C                     4.33797  -1.39727   0.6117 
 H                     2.80575  -0.53669   2.62066 
 C                    -0.32759  -0.10492   0.75724 
 C                     0.16105  -2.70927  -0.33662 
 C                    -1.11055  -2.12504  -0.41653 
 C                    -1.36656  -0.83681   0.11614 
 H                    -0.50636   0.87639   1.20314 
 H                     0.33363  -3.70157  -0.76059 
 H                    -1.91554  -2.65653  -0.93018 
 C                     5.24214  -1.8276   -0.36315 
 H                     5.45089   1.02542  -2.21936 
 H                     4.15948   2.9901    0.46088 
 H                     6.34791  -1.29889  -2.14055 
 H                     4.02291  -2.07784   1.40256 
 H                     5.62592  -2.84765  -0.32369 
 S                     2.64164   0.49      1.74144 
 C                    -2.68065  -0.2575    0.00376 
 C                    -4.05427  -0.41399  -0.1325 
 C                    -3.48988   0.87017  -0.05216 
 N                    -5.09974  -1.2118   -0.24314 
 N                    -3.60739   2.18509  -0.04989 
 C                    -4.95887  -2.66296  -0.08688 
 H                    -5.24939  -3.17506  -1.01565 
 H                    -3.92191  -2.91121   0.15919 
 H                    -5.60706  -3.01164   0.73011 
 C                    -6.4563   -0.70851  -0.46315 
 H                    -6.9323   -1.28977  -1.26504 
 H                    -7.06234  -0.80464   0.45045 
 H                    -6.42414   0.34019  -0.77413 
 C                    -2.42252   3.04702  -0.1047 
 H                    -2.37423   3.6831    0.79104 
 H                    -1.51817   2.4341   -0.16853 
 H                    -2.47281   3.68971  -0.99563 
 C                    -4.90595   2.85982  -0.07161 
 H                    -4.90342   3.67179   0.66866 
 H                    -5.10914   3.28812  -1.06491 
 H                    -5.70105   2.15692   0.1956 
 
 ITRead=  0  0  0  0  0  0  0  0  0  0  0  0  0  0  0  0  0  0  0  0
 ITRead=  0  0  0  0  0  0  0  0  0  0  0  0  0  0  0  0  0  0  0  0
 ITRead=  0  0  0  0
 MicOpt= -1 -1 -1 -1 -1 -1 -1 -1 -1 -1 -1 -1 -1 -1 -1 -1 -1 -1 -1 -1
 MicOpt= -1 -1 -1 -1 -1 -1 -1 -1 -1 -1 -1 -1 -1 -1 -1 -1 -1 -1 -1 -1
 MicOpt= -1 -1 -1 -1
 NAtoms=     44 NQM=       44 NQMF=       0 NMMI=      0 NMMIF=      0
                NMic=       0 NMicF=      0.
                    Isotopes and Nuclear Properties:
 (Nuclear quadrupole moments (NQMom) in fm**2, nuclear magnetic moments (NMagM)
  in nuclear magnetons)

  Atom         1           2           3           4           5           6           7           8           9          10
 IAtWgt=          12          12          32          12          12          12          12          12           1          12
 AtmWgt=  12.0000000  12.0000000  31.9720718  12.0000000  12.0000000  12.0000000  12.0000000  12.0000000   1.0078250  12.0000000
 NucSpn=           0           0           0           0           0           0           0           0           1           0
 AtZEff=  -0.0000000  -0.0000000  -0.0000000  -0.0000000  -0.0000000  -0.0000000  -0.0000000  -0.0000000  -0.0000000  -0.0000000
 NQMom=    0.0000000   0.0000000   0.0000000   0.0000000   0.0000000   0.0000000   0.0000000   0.0000000   0.0000000   0.0000000
 NMagM=    0.0000000   0.0000000   0.0000000   0.0000000   0.0000000   0.0000000   0.0000000   0.0000000   2.7928460   0.0000000
 AtZNuc=   6.0000000   6.0000000  16.0000000   6.0000000   6.0000000   6.0000000   6.0000000   6.0000000   1.0000000   6.0000000

  Atom        11          12          13          14          15          16          17          18          19          20
 IAtWgt=          12          12          12           1           1           1          12           1           1           1
 AtmWgt=  12.0000000  12.0000000  12.0000000   1.0078250   1.0078250   1.0078250  12.0000000   1.0078250   1.0078250   1.0078250
 NucSpn=           0           0           0           1           1           1           0           1           1           1
 AtZEff=  -0.0000000  -0.0000000  -0.0000000  -0.0000000  -0.0000000  -0.0000000  -0.0000000  -0.0000000  -0.0000000  -0.0000000
 NQMom=    0.0000000   0.0000000   0.0000000   0.0000000   0.0000000   0.0000000   0.0000000   0.0000000   0.0000000   0.0000000
 NMagM=    0.0000000   0.0000000   0.0000000   2.7928460   2.7928460   2.7928460   0.0000000   2.7928460   2.7928460   2.7928460
 AtZNuc=   6.0000000   6.0000000   6.0000000   1.0000000   1.0000000   1.0000000   6.0000000   1.0000000   1.0000000   1.0000000

  Atom        21          22          23          24          25          26          27          28          29          30
 IAtWgt=           1           1          32          12          12          12          14          14          12           1
 AtmWgt=   1.0078250   1.0078250  31.9720718  12.0000000  12.0000000  12.0000000  14.0030740  14.0030740  12.0000000   1.0078250
 NucSpn=           1           1           0           0           0           0           2           2           0           1
 AtZEff=  -0.0000000  -0.0000000  -0.0000000  -0.0000000  -0.0000000  -0.0000000  -0.0000000  -0.0000000  -0.0000000  -0.0000000
 NQMom=    0.0000000   0.0000000   0.0000000   0.0000000   0.0000000   0.0000000   2.0440000   2.0440000   0.0000000   0.0000000
 NMagM=    2.7928460   2.7928460   0.0000000   0.0000000   0.0000000   0.0000000   0.4037610   0.4037610   0.0000000   2.7928460
 AtZNuc=   1.0000000   1.0000000  16.0000000   6.0000000   6.0000000   6.0000000   7.0000000   7.0000000   6.0000000   1.0000000

  Atom        31          32          33          34          35          36          37          38          39          40
 IAtWgt=           1           1          12           1           1           1          12           1           1           1
 AtmWgt=   1.0078250   1.0078250  12.0000000   1.0078250   1.0078250   1.0078250  12.0000000   1.0078250   1.0078250   1.0078250
 NucSpn=           1           1           0           1           1           1           0           1           1           1
 AtZEff=  -0.0000000  -0.0000000  -0.0000000  -0.0000000  -0.0000000  -0.0000000  -0.0000000  -0.0000000  -0.0000000  -0.0000000
 NQMom=    0.0000000   0.0000000   0.0000000   0.0000000   0.0000000   0.0000000   0.0000000   0.0000000   0.0000000   0.0000000
 NMagM=    2.7928460   2.7928460   0.0000000   2.7928460   2.7928460   2.7928460   0.0000000   2.7928460   2.7928460   2.7928460
 AtZNuc=   1.0000000   1.0000000   6.0000000   1.0000000   1.0000000   1.0000000   6.0000000   1.0000000   1.0000000   1.0000000

  Atom        41          42          43          44
 IAtWgt=          12           1           1           1
 AtmWgt=  12.0000000   1.0078250   1.0078250   1.0078250
 NucSpn=           0           1           1           1
 AtZEff=  -0.0000000  -0.0000000  -0.0000000  -0.0000000
 NQMom=    0.0000000   0.0000000   0.0000000   0.0000000
 NMagM=    0.0000000   2.7928460   2.7928460   2.7928460
 AtZNuc=   6.0000000   1.0000000   1.0000000   1.0000000
 Leave Link  101 at Tue Jan 26 20:08:50 2021, MaxMem=  4026531840 cpu:               0.7 elap:               0.1
 (Enter /opt/ohpc/pub/libs/gaussian/g16-A.03/sandybridge/g16/l202.exe)
                          Input orientation:                          
 ---------------------------------------------------------------------
 Center     Atomic      Atomic             Coordinates (Angstroms)
 Number     Number       Type             X           Y           Z
 ---------------------------------------------------------------------
      1          6           0        5.141333    0.341453   -1.428653
      2          6           0        4.246330    0.793113   -0.457920
      3         16           0        3.527427    2.438238   -0.612926
      4          6           0        3.852580   -0.085202    0.570411
      5          6           0        0.863708   -0.787434    0.770822
      6          6           0        1.152588   -1.949541    0.292605
      7          6           0        5.641454   -0.963707   -1.380320
      8          6           0        4.337968   -1.397272    0.611701
      9          1           0        2.805747   -0.536686    2.620663
     10          6           0       -0.327590   -0.104924    0.757243
     11          6           0        0.161049   -2.709273   -0.336618
     12          6           0       -1.110551   -2.125038   -0.416532
     13          6           0       -1.366563   -0.836811    0.116144
     14          1           0       -0.506361    0.876389    1.203135
     15          1           0        0.333628   -3.701573   -0.760587
     16          1           0       -1.915541   -2.656529   -0.930176
     17          6           0        5.242141   -1.827604   -0.363151
     18          1           0        5.450891    1.025420   -2.219360
     19          1           0        4.159480    2.990100    0.460876
     20          1           0        6.347910   -1.298886   -2.140548
     21          1           0        4.022912   -2.077842    1.402557
     22          1           0        5.625918   -2.847650   -0.323690
     23         16           0        2.641644    0.489998    1.741439
     24          6           0       -2.680648   -0.257498    0.003764
     25          6           0       -4.054270   -0.413992   -0.132503
     26          6           0       -3.489875    0.870167   -0.052158
     27          7           0       -5.099740   -1.211802   -0.243141
     28          7           0       -3.607387    2.185094   -0.049886
     29          6           0       -4.958870   -2.662960   -0.086881
     30          1           0       -5.249390   -3.175063   -1.015650
     31          1           0       -3.921906   -2.911213    0.159186
     32          1           0       -5.607057   -3.011636    0.730112
     33          6           0       -6.456302   -0.708508   -0.463149
     34          1           0       -6.932296   -1.289768   -1.265044
     35          1           0       -7.062340   -0.804638    0.450448
     36          1           0       -6.424137    0.340187   -0.774131
     37          6           0       -2.422516    3.047015   -0.104701
     38          1           0       -2.374233    3.683098    0.791036
     39          1           0       -1.518165    2.434104   -0.168534
     40          1           0       -2.472812    3.689712   -0.995626
     41          6           0       -4.905946    2.859820   -0.071613
     42          1           0       -4.903422    3.671788    0.668659
     43          1           0       -5.109136    3.288120   -1.064906
     44          1           0       -5.701050    2.156915    0.195603
 ---------------------------------------------------------------------
                    Distance matrix (angstroms):
                    1          2          3          4          5
     1  C    0.000000
     2  C    1.395475   0.000000
     3  S    2.768864   1.802022   0.000000
     4  C    2.416439   1.408524   2.806022   0.000000
     5  C    4.940663   3.930657   4.406259   3.076792   0.000000
     6  C    4.911361   4.201985   5.070745   3.292855   1.289432
     7  C    1.398535   2.425615   4.078141   2.788762   5.242646
     8  C    2.798500   2.439318   4.107046   1.399584   3.530964
     9  H    4.756369   3.649838   4.452762   2.345897   2.693752
    10  C    5.906481   4.817036   4.817281   4.184390   1.373024
    11  C    5.941607   5.382466   6.156762   4.619075   2.326718
    12  C    6.796618   6.100286   6.509447   5.455974   2.663962
    13  C    6.791717   5.872884   5.933686   5.292516   2.324898
    14  H    6.253712   5.035287   4.691364   4.508366   2.198247
    15  H    6.317151   5.966829   6.922387   5.218498   3.334427
    16  H    7.683479   7.077550   7.462118   6.491125   3.756479
    17  C    2.418732   2.805134   4.604350   2.416275   4.640962
    18  H    1.090346   2.146533   2.876873   3.401603   5.768004
    19  H    3.398483   2.382956   1.362752   3.092518   5.022743
    20  H    2.157159   3.409448   4.924921   3.879304   6.230099
    21  H    3.888393   3.428363   4.970177   2.166124   3.470564
    22  H    3.409713   3.895695   5.694553   3.402244   5.302932
    23  S    4.039801   2.739357   3.181711   1.780036   2.394783
    24  C    7.974581   7.021393   6.796138   6.560019   3.664924
    25  C    9.317179   8.394222   8.114687   7.944839   5.014176
    26  C    8.756257   7.747222   7.212200   7.430476   4.730605
    27  N   10.425815   9.561111   9.374836   9.059532   6.063903
    28  N    9.046553   7.986550   7.161471   7.822411   5.431406
    29  C   10.622662   9.839605   9.915452   9.204266   6.177027
    30  H   10.977412  10.306609  10.426114   9.742109   6.801634
    31  H    9.759271   8.990157   9.203551   8.282396   5.271303
    32  H   11.464352  10.629053  10.721179   9.903245   6.842480
    33  C   11.685023  10.807462  10.468968  10.379297   7.423709
    34  H   12.184423  11.399628  11.123358  11.006063   8.073089
    35  H   12.400572  11.457048  11.126103  10.939262   7.932539
    36  H   11.583976  10.684755  10.171599  10.373026   7.534659
    37  C    8.141543   7.048287   6.002560   7.045807   5.125311
    38  H    8.519234   7.331013   6.192768   7.281618   5.519993
    39  H    7.093377   6.000500   5.065126   5.978114   4.115096
    40  H    8.329079   7.336640   6.141296   7.530806   5.856410
    41  C   10.446604   9.390669   8.461237   9.262674   6.877577
    42  H   10.788278   9.657842   8.616456   9.528494   7.290740
    43  H   10.671798   9.701455   8.690041   9.714212   7.460221
    44  H   11.112667  10.061681   9.268098   9.820357   7.217764
                    6          7          8          9         10
     6  C    0.000000
     7  C    4.890855   0.000000
     8  C    3.248610   2.419752   0.000000
     9  H    3.185741   4.922545   2.669127   0.000000
    10  C    2.410275   6.398138   4.843426   3.671043   0.000000
    11  C    1.398665   5.845610   4.479655   4.523281   2.866694
    12  C    2.378124   6.918609   5.592251   5.204306   2.464069
    13  C    2.759607   7.167134   5.753379   4.875537   1.423422
    14  H    3.401038   6.917790   5.383944   3.869913   1.092590
    15  H    2.202164   6.004415   4.819514   5.249832   3.959407
    16  H    3.377638   7.757348   6.562735   6.276365   3.446688
    17  C    4.143589   1.392983   1.397516   4.062712   5.936734
    18  H    5.799635   2.167240   3.888823   5.732607   6.597627
    19  H    5.785306   4.606391   4.393591   4.351493   5.459011
    20  H    5.773643   1.090583   3.409461   5.983059   7.374621
    21  H    3.080132   3.406667   1.089903   2.310938   4.820343
    22  H    4.604031   2.160081   2.153455   4.686484   6.643434
    23  S    3.204334   4.567001   2.777699   1.361633   3.184168
    24  C    4.200016   8.465920   7.136501   6.084952   2.475458
    25  C    5.445181   9.791134   8.482354   7.392889   3.843867
    26  C    5.442617   9.407884   8.176620   6.982697   3.406755
    27  N    6.318456  10.804072   9.478158   8.435276   4.999936
    28  N    6.314259   9.860328   8.740693   7.461113   4.080773
    29  C    6.164649  10.813293   9.408569   8.493592   5.357691
    30  H    6.648215  11.119063   9.885659   9.223288   6.065725
    31  H    5.166537   9.880319   8.409656   7.547090   4.599134
    32  H    6.856549  11.626562  10.075898   8.970777   6.026814
    33  C    7.746388  12.135157  10.869497   9.763451   6.278119
    34  H    8.259959  12.578505  11.425961  10.511676   7.008255
    35  H    8.295828  12.836019  11.416840  10.107461   6.777948
    36  H    7.986710  12.150971  10.989186   9.873413   6.301676
    37  C    6.156687   9.096192   8.122134   6.899656   3.881544
    38  H    6.664347   9.516240   8.419974   6.927215   4.305694
    39  H    5.153825   8.017087   7.041484   5.941500   2.953167
    40  H    6.826730   9.361817   8.651453   7.668323   4.698275
    41  C    7.743929  11.295119  10.199985   8.846175   5.517069
    42  H    8.271397  11.699596  10.540489   8.997381   5.933771
    43  H    8.275573  11.565150  10.677625   9.531943   6.139720
    44  H    7.990291  11.869044  10.657733   9.246729   5.857084
                   11         12         13         14         15
    11  C    0.000000
    12  C    1.401672   0.000000
    13  C    2.458598   1.417327   0.000000
    14  H    3.958945   3.463659   2.203758   0.000000
    15  H    1.092791   2.165523   3.444730   5.051685   0.000000
    16  H    2.160398   1.092850   2.169686   4.360999   2.485888
    17  C    5.157086   6.359875   6.699729   6.542943   5.269081
    18  H    6.743521   7.498540   7.443129   6.872011   7.117504
    19  H    7.007589   7.396466   6.730620   5.175789   7.804332
    20  H    6.597015   7.699571   8.051041   7.930515   6.621842
    21  H    4.282221   5.446444   5.678156   5.411244   4.574550
    22  H    5.466636   6.775751   7.289151   7.335156   5.378513
    23  S    4.550495   5.057096   4.524127   3.216987   5.399661
    24  C    3.768594   2.475795   1.440504   2.729783   4.640231
    25  C    4.804050   3.416699   2.732100   4.004581   5.518725
    26  C    5.120796   3.842552   2.729570   3.236843   6.001821
    27  N    5.470563   4.096058   3.769126   5.248941   5.999016
    28  N    6.183701   4.994583   3.765736   3.591536   7.119659
    29  C    5.126215   3.899691   4.034936   5.832321   5.435359
    30  H    5.472741   4.311784   4.671694   6.620694   5.613587
    31  H    4.117903   2.975439   3.291622   5.205930   4.424954
    32  H    5.873703   4.724343   4.805061   6.430987   6.163598
    33  C    6.914362   5.530442   5.124206   6.378887   7.426308
    34  H    7.293320   5.942252   5.752411   7.216425   7.672349
    35  H    7.511621   6.157833   5.705670   6.809791   8.034873
    36  H    7.270165   5.868510   5.268488   6.262361   7.874223
    37  C    6.313750   5.344962   4.030870   3.177059   7.319150
    38  H    6.968620   6.065440   4.679792   3.396526   8.017070
    39  H    5.413163   4.584041   3.286778   2.309047   6.436319
    40  H    6.951153   6.000202   4.790535   4.076305   7.909642
    41  C    7.533888   6.274775   5.121286   4.991526   8.424945
    42  H    8.208373   7.011897   5.756918   5.237754   9.156194
    43  H    8.017105   6.761017   5.693574   5.669744   8.864090
    44  H    7.637228   6.307338   5.268443   5.444232   8.464840
                   16         17         18         19         20
    16  H    0.000000
    17  C    7.227797   0.000000
    18  H    8.335650   3.410108   0.000000
    19  H    8.409835   5.006141   3.565302   0.000000
    20  H    8.461254   2.159029   2.492640   5.472845   0.000000
    21  H    6.406383   2.160292   4.978719   5.156496   4.308826
    22  H    7.568220   1.090567   4.315654   6.070034   2.494176
    23  S    6.148666   4.069787   4.885333   3.192832   5.657414
    24  C    2.685700   8.085199   8.527021   7.585723   9.337956
    25  C    3.199909   9.406102   9.837427   8.910984  10.631116
    26  C    3.960685   9.144550   9.200987   7.954241  10.288254
    27  N    3.563478  10.360894  10.964781  10.192388  11.604156
    28  N    5.203707   9.721832   9.386366   7.825160  10.752531
    29  C    3.158012  10.238885  11.247877  10.742506  11.572447
    30  H    3.375016  10.597812  11.558070  11.345316  11.801814
    31  H    2.297188   9.242662  10.440493  10.011259  10.646948
    32  H    4.063243  10.968238  12.135708  11.466410  12.413518
    33  C    4.963004  11.752274  12.160264  11.279555  12.927106
    34  H    5.210375  12.219640  12.633849  12.013474  13.309037
    35  H    5.641380  12.373708  12.925089  11.846071  13.667200
    36  H    5.415911  11.873090  11.982259  10.979992  12.949086
    37  C    5.785227   9.087116   8.399355   6.606496   9.997595
    38  H    6.585123   9.471491   8.795357   6.578652  10.463753
    39  H    5.162611   7.993858   7.399866   5.739420   8.927440
    40  H    6.370998   9.505856   8.448730   6.826284  10.198142
    41  C    6.333227  11.182156  10.735079   9.081986  12.174753
    42  H    7.178531  11.586216  11.070488   9.090878  12.617120
    43  H    6.749522  11.567715  10.861250   9.398089  12.387959
    44  H    6.226291  11.659418  11.466391   9.899223  12.750592
                   21         22         23         24         25
    21  H    0.000000
    22  H    2.478338   0.000000
    23  S    2.935395   4.930572   0.000000
    24  C    7.085760   8.707190   5.648456   0.000000
    25  C    8.388425   9.983250   7.011713   1.389207   0.000000
    26  C    8.200544   9.848532   6.399769   1.389102   1.405013
    27  N    9.310270  10.849987   8.170906   2.612214   1.319753
    28  N    8.860230  10.519382   6.718079   2.613040   2.638518
    29  C    9.123223  10.589047   8.429218   3.314326   2.424508
    30  H    9.645061  10.902217   9.127027   4.018685   3.135566
    31  H    8.084591   9.560238   7.559891   2.933783   2.517681
    32  H    9.698477  11.283489   9.018054   4.083715   3.146904
    33  C   10.731722  12.270918   9.437650   3.831055   2.442504
    34  H   11.302820  12.689440  10.191508   4.555433   3.214447
    35  H   11.198677  12.874979   9.874717   4.438256   3.088838
    36  H   10.941922  12.472731   9.409512   3.869891   2.568412
    37  C    8.371352   9.978593   5.965927   3.316354   3.826482
    38  H    8.630519  10.387285   6.021476   4.030135   4.523449
    39  H    7.316387   8.885883   4.973083   2.936967   3.813762
    40  H    9.011681  10.429671   6.624753   4.077063   4.481783
    41  C   10.309131  11.981607   8.115992   3.830836   3.383327
    42  H   10.643133  12.423962   8.258491   4.563124   4.249296
    43  H   10.875487  12.387028   8.705151   4.428433   3.960777
    44  H   10.674518  12.394174   8.646893   3.871566   3.070684
                   26         27         28         29         30
    26  C    0.000000
    27  N    2.638699   0.000000
    28  N    1.320169   3.715288   0.000000
    29  C    3.826505   1.466329   5.033041   0.000000
    30  H    4.515318   2.115079   5.688599   1.099665   0.000000
    31  H    3.811844   2.106456   5.110282   1.094291   1.792225
    32  H    4.490301   2.108078   5.622551   1.099636   1.789502
    33  C    3.385383   1.463547   4.081671   2.490735   2.801033
    34  H    4.241070   2.099673   4.960473   2.677337   2.539430
    35  H    3.977448   2.121001   4.596252   2.857738   3.324928
    36  H    3.067901   2.108233   3.444168   3.411482   3.714208
    37  C    2.425012   5.032317   1.466230   6.247978   6.894585
    38  H    3.141371   5.697188   2.114671   6.908223   7.652778
    39  H    2.519342   5.111348   2.107352   6.150218   6.789875
    40  H    3.142353   5.611758   2.108450   6.882060   7.405061
    41  C    2.442203   4.079839   1.463551   5.523055   6.117922
    42  H    3.219747   4.971858   2.099112   6.379886   7.059459
    43  H    3.081260   4.574351   2.121835   6.032783   6.464892
    44  H    2.570292   3.449975   2.108194   4.884857   5.486449
                   31         32         33         34         35
    31  H    0.000000
    32  H    1.782070   0.000000
    33  C    3.415022   2.729375   0.000000
    34  H    3.704047   2.949870   1.098849   0.000000
    35  H    3.792732   2.658364   1.100537   1.787505   0.000000
    36  H    4.207593   3.763653   1.094306   1.776506   1.793745
    37  C    6.149658   6.895322   5.523031   6.363348   6.055691
    38  H    6.802901   7.434671   6.125559   7.052149   6.498778
    39  H    5.870075   6.868965   5.860717   6.662010   6.450617
    40  H    6.856068   7.596692   5.957857   6.689903   6.584381
    41  C    5.858876   5.967270   3.910226   4.769639   4.283787
    42  H    6.675241   6.720642   4.783244   5.698471   4.974629
    43  H    6.429591   6.569394   4.260282   4.931635   4.781419
    44  H    5.371462   5.196966   3.035623   3.940695   3.269381
                   36         37         38         39         40
    36  H    0.000000
    37  C    4.877297   0.000000
    38  H    5.479646   1.099672   0.000000
    39  H    5.368407   1.094342   1.792655   0.000000
    40  H    5.184722   1.099698   1.789392   1.781006   0.000000
    41  C    3.024398   2.490695   2.798485   3.415800   2.731787
    42  H    3.936214   2.672699   2.532173   3.700367   2.945850
    43  H    3.241001   2.863224   3.328697   3.798407   2.667636
    44  H    2.182599   3.410461   3.708300   4.207845   3.766963
                   41         42         43         44
    41  C    0.000000
    42  H    1.098773   0.000000
    43  H    1.100617   1.787391   0.000000
    44  H    1.094381   1.776185   1.794121   0.000000
 Stoichiometry    C19H21N2S2(2+,2)
 Framework group  C1[X(C19H21N2S2)]
 Deg. of freedom   126
 Full point group                 C1      NOp   1
 Largest Abelian subgroup         C1      NOp   1
 Largest concise Abelian subgroup C1      NOp   1
                         Standard orientation:                         
 ---------------------------------------------------------------------
 Center     Atomic      Atomic             Coordinates (Angstroms)
 Number     Number       Type             X           Y           Z
 ---------------------------------------------------------------------
      1          6           0        5.141333    0.341453   -1.428653
      2          6           0        4.246330    0.793113   -0.457920
      3         16           0        3.527427    2.438238   -0.612926
      4          6           0        3.852580   -0.085202    0.570411
      5          6           0        0.863708   -0.787434    0.770822
      6          6           0        1.152588   -1.949541    0.292605
      7          6           0        5.641454   -0.963707   -1.380320
      8          6           0        4.337968   -1.397272    0.611701
      9          1           0        2.805747   -0.536686    2.620663
     10          6           0       -0.327590   -0.104924    0.757243
     11          6           0        0.161049   -2.709273   -0.336618
     12          6           0       -1.110551   -2.125038   -0.416532
     13          6           0       -1.366563   -0.836811    0.116144
     14          1           0       -0.506361    0.876389    1.203135
     15          1           0        0.333628   -3.701573   -0.760587
     16          1           0       -1.915541   -2.656529   -0.930176
     17          6           0        5.242141   -1.827604   -0.363151
     18          1           0        5.450891    1.025420   -2.219360
     19          1           0        4.159480    2.990100    0.460876
     20          1           0        6.347910   -1.298886   -2.140548
     21          1           0        4.022912   -2.077842    1.402557
     22          1           0        5.625918   -2.847650   -0.323690
     23         16           0        2.641644    0.489998    1.741439
     24          6           0       -2.680648   -0.257498    0.003764
     25          6           0       -4.054270   -0.413992   -0.132503
     26          6           0       -3.489875    0.870167   -0.052158
     27          7           0       -5.099740   -1.211802   -0.243141
     28          7           0       -3.607387    2.185094   -0.049886
     29          6           0       -4.958870   -2.662960   -0.086881
     30          1           0       -5.249390   -3.175063   -1.015650
     31          1           0       -3.921906   -2.911213    0.159186
     32          1           0       -5.607057   -3.011636    0.730112
     33          6           0       -6.456302   -0.708508   -0.463149
     34          1           0       -6.932296   -1.289768   -1.265044
     35          1           0       -7.062340   -0.804638    0.450448
     36          1           0       -6.424137    0.340187   -0.774131
     37          6           0       -2.422516    3.047015   -0.104701
     38          1           0       -2.374233    3.683098    0.791036
     39          1           0       -1.518165    2.434104   -0.168534
     40          1           0       -2.472812    3.689712   -0.995626
     41          6           0       -4.905946    2.859820   -0.071613
     42          1           0       -4.903422    3.671788    0.668659
     43          1           0       -5.109136    3.288120   -1.064906
     44          1           0       -5.701050    2.156915    0.195603
 ---------------------------------------------------------------------
 Rotational constants (GHZ):           0.4060159           0.0982633           0.0849802
 Leave Link  202 at Tue Jan 26 20:08:50 2021, MaxMem=  4026531840 cpu:               0.3 elap:               0.1
 (Enter /opt/ohpc/pub/libs/gaussian/g16-A.03/sandybridge/g16/l301.exe)
 Standard basis: TZVP (5D, 7F)
 Ernie: Thresh=  0.10000D-02 Tol=  0.10000D-05 Strict=F.
 There are   592 symmetry adapted cartesian basis functions of A   symmetry.
 There are   569 symmetry adapted basis functions of A   symmetry.
   569 basis functions,   997 primitive gaussians,   592 cartesian basis functions
    90 alpha electrons       89 beta electrons
       nuclear repulsion energy      2022.4848436690 Hartrees.
 IExCor=33909 DFT=T Ex+Corr=LC-wHPBE ExCW=0 ScaHFX=  1.000000
 ScaDFX=  1.000000  1.000000  1.000000  1.000000 ScalE2=  1.000000  1.000000
 IRadAn=      5 IRanWt=     -1 IRanGd=            0 ICorTp=0 IEmpDi=  4
 HFx  wShort=  0.000000 wLong=  0.171200 cFull=  0.000000 cShort=  0.000000 cLong=  1.000000
 DFx  wShort=  0.000000 wLong=  0.171200 cFull=  0.000000 cShort=  1.000000 cLong=  0.000000
 NAtoms=   44 NActive=   44 NUniq=   44 SFac= 1.00D+00 NAtFMM=   60 NAOKFM=F Big=F
 Integral buffers will be    131072 words long.
 Raffenetti 2 integral format.
 Two-electron integral symmetry is turned on.
 Leave Link  301 at Tue Jan 26 20:08:50 2021, MaxMem=  4026531840 cpu:               0.5 elap:               0.1
 (Enter /opt/ohpc/pub/libs/gaussian/g16-A.03/sandybridge/g16/l302.exe)
 NPDir=0 NMtPBC=     1 NCelOv=     1 NCel=       1 NClECP=     1 NCelD=      1
         NCelK=      1 NCelE2=     1 NClLst=     1 CellRange=     0.0.
 One-electron integrals computed using PRISM.
 One-electron integral symmetry used in STVInt
 NBasis=   569 RedAO= T EigKep=  9.00D-06  NBF=   569
 NBsUse=   569 1.00D-06 EigRej= -1.00D+00 NBFU=   569
 Precomputing XC quadrature grid using
 IXCGrd= 4 IRadAn=           5 IRanWt=          -1 IRanGd=           0 AccXCQ= 0.00D+00.
 Generated NRdTot=       0 NPtTot=           0 NUsed=           0 NTot=          32
 NSgBfM=   570   570   570   570   570 MxSgAt=    44 MxSgA2=    44.
 Leave Link  302 at Tue Jan 26 20:08:52 2021, MaxMem=  4026531840 cpu:               8.9 elap:               1.1
 (Enter /opt/ohpc/pub/libs/gaussian/g16-A.03/sandybridge/g16/l303.exe)
 DipDrv:  MaxL=1.
 Leave Link  303 at Tue Jan 26 20:08:52 2021, MaxMem=  4026531840 cpu:               1.0 elap:               0.2
 (Enter /opt/ohpc/pub/libs/gaussian/g16-A.03/sandybridge/g16/l401.exe)
 ExpMin= 9.52D-02 ExpMax= 6.07D+04 ExpMxC= 2.07D+03 IAcc=3 IRadAn=         5 AccDes= 0.00D+00
 Harris functional with IExCor=33909 and IRadAn=       5 diagonalized for initial guess.
 HarFok:  IExCor=33909 AccDes= 0.00D+00 IRadAn=         5 IDoV= 1 UseB2=F ITyADJ=14
 ICtDFT=  3500011 ScaDFX=  1.000000  1.000000  1.000000  1.000000
 FoFCou: FMM=F IPFlag=           0 FMFlag=      100000 FMFlg1=           0
         NFxFlg=           0 DoJE=T BraDBF=F KetDBF=T FulRan=T
         wScrn=  0.000000 ICntrl=       500 IOpCl=  0 I1Cent=   200000004 NGrid=           0
         NMat0=    1 NMatS0=      1 NMatT0=    0 NMatD0=    1 NMtDS0=    0 NMtDT0=    0
 Petite list used in FoFCou.
 Harris En= -1624.51979050203    
 JPrj=0 DoOrth=F DoCkMO=F.
 Initial guess <Sx>= 0.0000 <Sy>= 0.0000 <Sz>= 0.5000 <S**2>= 0.7500 S= 0.5000
 Leave Link  401 at Tue Jan 26 20:08:58 2021, MaxMem=  4026531840 cpu:              50.1 elap:               6.3
 (Enter /opt/ohpc/pub/libs/gaussian/g16-A.03/sandybridge/g16/l502.exe)
 Integral symmetry usage will be decided dynamically.
 UHF open shell SCF:
 Using DIIS extrapolation, IDIIS=    10.
 NGot=  4026531840 LenX=  4025820226 LenY=  4025469170
 Requested convergence on RMS density matrix=1.00D-06 within  32 cycles.
 Requested convergence on MAX density matrix=1.00D-04.
 Requested convergence on             energy=1.00D-04.
 Virtual orbitals will be shifted by   0.500 hartree.
 No special actions if energy rises.
 Dynamic level shift is on during FON iterations.

 Cycle   1  Pass 1  IDiag  1:
 FoFJK:  IHMeth= 1 ICntrl=       0 DoSepK=T KAlg= 0 I1Cent=           0 FoldK=F
 IRaf=         1 NMat=       1 IRICut=       1 DoRegI=T DoRafI=F ISym2E= 0 IDoP0=0 IntGTp=1.
 FoFCou: FMM=F IPFlag=           0 FMFlag=      100000 FMFlg1=           0
         NFxFlg=           0 DoJE=T BraDBF=F KetDBF=F FulRan=T
         wScrn=  0.000000 ICntrl=       500 IOpCl=  0 I1Cent=           0 NGrid=           0
         NMat0=    1 NMatS0=      1 NMatT0=    0 NMatD0=    1 NMtDS0=    0 NMtDT0=    0
 Symmetry not used in FoFCou.
 E= -1640.31608383448    
 DIIS: error= 2.86D-02 at cycle   1 NSaved=   1.
 NSaved= 1 IEnMin= 1 EnMin= -1640.31608383448     IErMin= 1 ErrMin= 2.86D-02
 ErrMax= 2.86D-02  0.00D+00 EMaxC= 1.00D+00 BMatC= 2.19D+00 BMatP= 2.19D+00
 IDIUse=1 WtCom= 1.00D+00 WtEn= 0.00D+00
 Coeff-Com:  0.100D+01
 Coeff:      0.100D+01
 Gap=     0.600 Goal=   None    Shift=    0.500
 T= 1467. Gap= 0.429 NK=0 IS=   91 IE=  569 IFin=   90
          NO(<0.9)=   0  NV(>0.1)=   0     90.00e < EF      0.00e >EF  Err=0.0D+00
 Gap=    -0.104 Goal=   None    Shift=    0.500
 T= 1467. Gap= 0.267 NK=0 IS=   90 IE=  569 IFin=   89
          NO(<0.9)=   0  NV(>0.1)=   0     89.00e < EF      0.00e >EF  Err=0.0D+00
 GapD=   -0.104 DampG=0.250 DampE=0.500 DampFc=0.1250 IDamp=-1.
 Damping current iteration by 1.25D-01
 RMSDP=4.71D-03 MaxDP=3.43D-01              OVMax= 2.96D-01

 Cycle   2  Pass 1  IDiag  1:
 E= -1640.44217085863     Delta-E=       -0.126087024154 Rises=F Damp=T
 DIIS: error= 2.43D-02 at cycle   2 NSaved=   2.
 NSaved= 2 IEnMin= 2 EnMin= -1640.44217085863     IErMin= 2 ErrMin= 2.43D-02
 ErrMax= 2.43D-02  0.00D+00 EMaxC= 1.00D+00 BMatC= 1.51D+00 BMatP= 2.19D+00
 IDIUse=1 WtCom= 1.00D+00 WtEn= 0.00D+00
 Coeff-Com: -0.462D+01 0.562D+01
 Coeff:     -0.462D+01 0.562D+01
 Gap=     0.278 Goal=   None    Shift=    0.500
 T= 1436. Gap= 0.717 NK=0 IS=   91 IE=  569 IFin=   90
          NO(<0.9)=   0  NV(>0.1)=   0     90.00e < EF      0.00e >EF  Err=0.0D+00
 Gap=     0.095 Goal=   None    Shift=    0.500
 T= 1436. Gap= 0.546 NK=0 IS=   90 IE=  569 IFin=   89
          NO(<0.9)=   0  NV(>0.1)=   0     89.00e < EF      0.00e >EF  Err=0.0D+00
 GapD=    0.095 DampG=0.500 DampE=0.500 DampFc=0.2500 IDamp=-1.
 Damping current iteration by 2.50D-01
 RMSDP=3.66D-03 MaxDP=2.25D-01 DE=-1.26D-01 OVMax= 5.37D-02

 Cycle   3  Pass 1  IDiag  1:
 E= -1640.61847283227     Delta-E=       -0.176301973635 Rises=F Damp=T
 DIIS: error= 1.91D-02 at cycle   3 NSaved=   3.
 NSaved= 3 IEnMin= 3 EnMin= -1640.61847283227     IErMin= 3 ErrMin= 1.91D-02
 ErrMax= 1.91D-02  0.00D+00 EMaxC= 1.00D+00 BMatC= 7.56D-01 BMatP= 1.51D+00
 IDIUse=1 WtCom= 1.00D+00 WtEn= 0.00D+00
 Coeff-Com:  0.814D+00-0.373D+01 0.391D+01
 Coeff:      0.814D+00-0.373D+01 0.391D+01
 Gap=     0.238 Goal=   None    Shift=    0.500
 T= 1361. Gap= 0.731 NK=0 IS=   91 IE=  569 IFin=   90
          NO(<0.9)=   0  NV(>0.1)=   0     90.00e < EF      0.00e >EF  Err=0.0D+00
 Gap=     0.089 Goal=   None    Shift=    0.500
 T= 1361. Gap= 0.589 NK=0 IS=   90 IE=  569 IFin=   89
          NO(<0.9)=   0  NV(>0.1)=   0     89.00e < EF      0.00e >EF  Err=0.0D+00
 GapD=    0.089 DampG=0.500 DampE=0.500 DampFc=0.2500 IDamp=-1.
 Damping current iteration by 2.50D-01
 RMSDP=2.44D-03 MaxDP=1.39D-01 DE=-1.76D-01 OVMax= 4.00D-02

 Cycle   4  Pass 1  IDiag  1:
 E= -1640.72222789745     Delta-E=       -0.103755065180 Rises=F Damp=T
 DIIS: error= 1.70D-02 at cycle   4 NSaved=   4.
 NSaved= 4 IEnMin= 4 EnMin= -1640.72222789745     IErMin= 4 ErrMin= 1.70D-02
 ErrMax= 1.70D-02  0.00D+00 EMaxC= 1.00D+00 BMatC= 3.98D-01 BMatP= 7.56D-01
 IDIUse=1 WtCom= 1.00D+00 WtEn= 0.00D+00
 Coeff-Com:  0.553D+00 0.159D+00-0.497D+01 0.525D+01
 Coeff:      0.553D+00 0.159D+00-0.497D+01 0.525D+01
 Gap=     0.233 Goal=   None    Shift=    0.500
 T= 1256. Gap= 0.733 NK=4 IS=   91 IE=  102 IFin=   90
          NO(<0.9)=   0  NV(>0.1)=   0     90.00e < EF      0.00e >EF  Err=0.0D+00
 Gap=     0.099 Goal=   None    Shift=    0.500
 T= 1256. Gap= 0.600 NK=4 IS=   90 IE=  102 IFin=   89
          NO(<0.9)=   0  NV(>0.1)=   0     89.00e < EF      0.00e >EF  Err=0.0D+00
 GapD=    0.099 DampG=0.500 DampE=0.500 DampFc=0.2500 IDamp=-1.
 Damping current iteration by 2.50D-01
 RMSDP=1.81D-03 MaxDP=1.25D-01 DE=-1.04D-01 OVMax= 3.60D-02

 Cycle   5  Pass 1  IDiag  1:
 E= -1640.78772824868     Delta-E=       -0.065500351235 Rises=F Damp=T
 DIIS: error= 1.50D-02 at cycle   5 NSaved=   5.
 NSaved= 5 IEnMin= 5 EnMin= -1640.78772824868     IErMin= 5 ErrMin= 1.50D-02
 ErrMax= 1.50D-02  0.00D+00 EMaxC= 1.00D+00 BMatC= 2.18D-01 BMatP= 3.98D-01
 IDIUse=1 WtCom= 1.00D+00 WtEn= 0.00D+00
 Coeff-Com: -0.168D+00 0.133D+01-0.191D+01-0.324D+01 0.499D+01
 Coeff:     -0.168D+00 0.133D+01-0.191D+01-0.324D+01 0.499D+01
 Gap=     0.234 Goal=   None    Shift=    0.500
 T= 1155. Gap= 0.734 NK=4 IS=   91 IE=  102 IFin=   90
          NO(<0.9)=   0  NV(>0.1)=   0     90.00e < EF      0.00e >EF  Err=0.0D+00
 Gap=     0.107 Goal=   None    Shift=    0.500
 T= 1155. Gap= 0.608 NK=4 IS=   90 IE=  102 IFin=   89
          NO(<0.9)=   0  NV(>0.1)=   0     89.00e < EF      0.00e >EF  Err=0.0D+00
 GapD=    0.107 DampG=1.000 DampE=0.500 DampFc=0.5000 IDamp=-1.
 Damping current iteration by 5.00D-01
 RMSDP=1.44D-03 MaxDP=1.06D-01 DE=-6.55D-02 OVMax= 3.90D-02

 Cycle   6  Pass 1  IDiag  1:
 E= -1640.87178373699     Delta-E=       -0.084055488313 Rises=F Damp=T
 DIIS: error= 1.08D-02 at cycle   6 NSaved=   6.
 NSaved= 6 IEnMin= 6 EnMin= -1640.87178373699     IErMin= 6 ErrMin= 1.08D-02
 ErrMax= 1.08D-02  0.00D+00 EMaxC= 1.00D+00 BMatC= 5.25D-02 BMatP= 2.18D-01
 IDIUse=1 WtCom= 1.00D+00 WtEn= 0.00D+00
 Coeff-Com: -0.123D+00 0.622D-01 0.145D+01-0.671D+00-0.332D+01 0.360D+01
 Coeff:     -0.123D+00 0.622D-01 0.145D+01-0.671D+00-0.332D+01 0.360D+01
 Gap=     0.234 Goal=   None    Shift=    0.500
 T= 1049. Gap= 0.734 NK=4 IS=   91 IE=  102 IFin=   90
          NO(<0.9)=   0  NV(>0.1)=   0     90.00e < EF      0.00e >EF  Err=0.0D+00
 Gap=     0.114 Goal=   None    Shift=    0.500
 T= 1049. Gap= 0.615 NK=4 IS=   90 IE=  102 IFin=   89
          NO(<0.9)=   0  NV(>0.1)=   0     89.00e < EF      0.00e >EF  Err=0.0D+00
 GapD=    0.114 DampG=1.000 DampE=0.500 DampFc=0.5000 IDamp=-1.
 Damping current iteration by 5.00D-01
 RMSDP=8.66D-04 MaxDP=5.91D-02 DE=-8.41D-02 OVMax= 3.98D-02

 Cycle   7  Pass 1  IDiag  1:
 E= -1640.90871456686     Delta-E=       -0.036930829866 Rises=F Damp=T
 DIIS: error= 8.17D-03 at cycle   7 NSaved=   7.
 NSaved= 7 IEnMin= 7 EnMin= -1640.90871456686     IErMin= 7 ErrMin= 8.17D-03
 ErrMax= 8.17D-03  0.00D+00 EMaxC= 1.00D+00 BMatC= 1.36D-02 BMatP= 5.25D-02
 IDIUse=1 WtCom= 1.00D+00 WtEn= 0.00D+00
 Coeff-Com: -0.176D-01-0.237D+00 0.120D+01 0.229D+00-0.225D+01-0.431D+00
 Coeff-Com:  0.251D+01
 Coeff:     -0.176D-01-0.237D+00 0.120D+01 0.229D+00-0.225D+01-0.431D+00
 Coeff:      0.251D+01
 Gap=     0.234 Goal=   None    Shift=    0.500
 T=  911. Gap= 0.734 NK=4 IS=   91 IE=  102 IFin=   90
          NO(<0.9)=   0  NV(>0.1)=   0     90.00e < EF      0.00e >EF  Err=0.0D+00
 Gap=     0.118 Goal=   None    Shift=    0.500
 T=  911. Gap= 0.619 NK=4 IS=   90 IE=  102 IFin=   89
          NO(<0.9)=   0  NV(>0.1)=   0     89.00e < EF      0.00e >EF  Err=0.0D+00
 GapD=    0.118 DampG=1.000 DampE=1.000 DampFc=1.0000 IDamp=-1.
 RMSDP=5.76D-04 MaxDP=3.64D-02 DE=-3.69D-02 OVMax= 3.67D-02

 Cycle   8  Pass 1  IDiag  1:
 E= -1640.94491905569     Delta-E=       -0.036204488825 Rises=F Damp=F
 DIIS: error= 5.03D-03 at cycle   8 NSaved=   8.
 NSaved= 8 IEnMin= 8 EnMin= -1640.94491905569     IErMin= 8 ErrMin= 5.03D-03
 ErrMax= 5.03D-03  0.00D+00 EMaxC= 1.00D+00 BMatC= 1.06D-03 BMatP= 1.36D-02
 IDIUse=1 WtCom= 1.00D+00 WtEn= 0.00D+00
 Coeff-Com:  0.276D-01-0.133D+00-0.399D-01 0.670D+00 0.301D+00-0.164D+01
 Coeff-Com: -0.299D+00 0.212D+01
 Coeff:      0.276D-01-0.133D+00-0.399D-01 0.670D+00 0.301D+00-0.164D+01
 Coeff:     -0.299D+00 0.212D+01
 Gap=     0.232 Goal=   None    Shift=    0.500
 T=  703. Gap= 0.732 NK=4 IS=   91 IE=  102 IFin=   90
          NO(<0.9)=   0  NV(>0.1)=   0     90.00e < EF      0.00e >EF  Err=0.0D+00
 Gap=     0.124 Goal=   None    Shift=    0.500
 T=  703. Gap= 0.625 NK=4 IS=   90 IE=  102 IFin=   89
          NO(<0.9)=   0  NV(>0.1)=   0     89.00e < EF      0.00e >EF  Err=0.0D+00
 GapD=    0.124 DampG=1.000 DampE=1.000 DampFc=1.0000 IDamp=-1.
 RMSDP=2.34D-04 MaxDP=1.74D-02 DE=-3.62D-02 OVMax= 4.16D-02

 Cycle   9  Pass 1  IDiag  1:
 E= -1640.94725952989     Delta-E=       -0.002340474203 Rises=F Damp=F
 DIIS: error= 5.02D-03 at cycle   9 NSaved=   9.
 NSaved= 9 IEnMin= 9 EnMin= -1640.94725952989     IErMin= 9 ErrMin= 5.02D-03
 ErrMax= 5.02D-03  0.00D+00 EMaxC= 1.00D+00 BMatC= 9.29D-04 BMatP= 1.06D-03
 IDIUse=1 WtCom= 1.00D+00 WtEn= 0.00D+00
 Coeff-Com:  0.781D-02-0.102D+00 0.227D-01 0.756D+00-0.366D+00-0.646D+00
 Coeff-Com: -0.621D+00 0.118D+01 0.773D+00
 Coeff:      0.781D-02-0.102D+00 0.227D-01 0.756D+00-0.366D+00-0.646D+00
 Coeff:     -0.621D+00 0.118D+01 0.773D+00
 Gap=     0.233 Goal=   None    Shift=    0.500
 T=  538. Gap= 0.733 NK=4 IS=   91 IE=  102 IFin=   90
          NO(<0.9)=   0  NV(>0.1)=   0     90.00e < EF      0.00e >EF  Err=0.0D+00
 Gap=     0.128 Goal=   None    Shift=    0.500
 T=  538. Gap= 0.629 NK=4 IS=   90 IE=  102 IFin=   89
          NO(<0.9)=   0  NV(>0.1)=   0     89.00e < EF      0.00e >EF  Err=0.0D+00
 GapD=    0.128 DampG=1.000 DampE=1.000 DampFc=1.0000 IDamp=-1.
 RMSDP=1.50D-04 MaxDP=9.32D-03 DE=-2.34D-03 OVMax= 3.54D-02

 Cycle  10  Pass 1  IDiag  1:
 E= -1640.94900627721     Delta-E=       -0.001746747324 Rises=F Damp=F
 DIIS: error= 4.61D-03 at cycle  10 NSaved=  10.
 NSaved=10 IEnMin=10 EnMin= -1640.94900627721     IErMin=10 ErrMin= 4.61D-03
 ErrMax= 4.61D-03  0.00D+00 EMaxC= 1.00D+00 BMatC= 7.59D-04 BMatP= 9.29D-04
 IDIUse=1 WtCom= 1.00D+00 WtEn= 0.00D+00
 Coeff-Com:  0.452D-02-0.653D-01 0.137D+00 0.102D+01-0.203D+01 0.139D+01
 Coeff-Com: -0.570D+00-0.422D+00-0.230D+01 0.384D+01
 Coeff:      0.452D-02-0.653D-01 0.137D+00 0.102D+01-0.203D+01 0.139D+01
 Coeff:     -0.570D+00-0.422D+00-0.230D+01 0.384D+01
 Gap=     0.230 Goal=   None    Shift=    0.500
 T=  407. Gap= 0.731 NK=4 IS=   91 IE=  102 IFin=   90
          NO(<0.9)=   0  NV(>0.1)=   0     90.00e < EF      0.00e >EF  Err=0.0D+00
 Gap=     0.135 Goal=   None    Shift=    0.500
 T=  407. Gap= 0.637 NK=4 IS=   90 IE=  101 IFin=   89
          NO(<0.9)=   0  NV(>0.1)=   0     89.00e < EF      0.00e >EF  Err=0.0D+00
 GapD=    0.135 DampG=1.000 DampE=1.000 DampFc=1.0000 IDamp=-1.
 RMSDP=2.82D-04 MaxDP=2.21D-02 DE=-1.75D-03 OVMax= 4.61D-02

 Cycle  11  Pass 1  IDiag  1:
 E= -1640.95095666187     Delta-E=       -0.001950384653 Rises=F Damp=F
 DIIS: error= 4.89D-03 at cycle  11 NSaved=  11.
 NSaved=11 IEnMin=11 EnMin= -1640.95095666187     IErMin=10 ErrMin= 4.61D-03
 ErrMax= 4.89D-03  0.00D+00 EMaxC= 1.00D+00 BMatC= 1.24D-03 BMatP= 7.59D-04
 IDIUse=1 WtCom= 1.00D+00 WtEn= 0.00D+00
 Coeff-Com:  0.196D-01-0.204D+00 0.772D+00 0.890D+00-0.332D+01 0.181D+01
 Coeff-Com:  0.108D+01-0.337D+00-0.537D+01 0.470D+01 0.957D+00
 Coeff:      0.196D-01-0.204D+00 0.772D+00 0.890D+00-0.332D+01 0.181D+01
 Coeff:      0.108D+01-0.337D+00-0.537D+01 0.470D+01 0.957D+00
 Gap=     0.230 Goal=   None    Shift=    0.500
 T=  401. Gap= 0.731 NK=4 IS=   91 IE=  102 IFin=   90
          NO(<0.9)=   0  NV(>0.1)=   0     90.00e < EF      0.00e >EF  Err=0.0D+00
 Gap=     0.136 Goal=   None    Shift=    0.500
 T=  401. Gap= 0.638 NK=4 IS=   90 IE=  101 IFin=   89
          NO(<0.9)=   0  NV(>0.1)=   0     89.00e < EF      0.00e >EF  Err=0.0D+00
 GapD=    0.136 DampG=1.000 DampE=1.000 DampFc=1.0000 IDamp=-1.
 RMSDP=1.63D-04 MaxDP=1.09D-02 DE=-1.95D-03 OVMax= 3.93D-02

 Cycle  12  Pass 1  IDiag  1:
 E= -1640.95243450078     Delta-E=       -0.001477838911 Rises=F Damp=F
 DIIS: error= 4.47D-03 at cycle  12 NSaved=  12.
 NSaved=12 IEnMin=12 EnMin= -1640.95243450078     IErMin=12 ErrMin= 4.47D-03
 ErrMax= 4.47D-03  0.00D+00 EMaxC= 1.00D+00 BMatC= 1.08D-03 BMatP= 7.59D-04
 IDIUse=1 WtCom= 1.00D+00 WtEn= 0.00D+00
 Coeff-Com:  0.394D-01-0.184D+00 0.478D+00 0.283D+00-0.108D+01-0.332D+00
 Coeff-Com:  0.135D+01 0.165D+01-0.566D+01 0.316D+01-0.155D+01 0.284D+01
 Coeff:      0.394D-01-0.184D+00 0.478D+00 0.283D+00-0.108D+01-0.332D+00
 Coeff:      0.135D+01 0.165D+01-0.566D+01 0.316D+01-0.155D+01 0.284D+01
 Gap=     0.231 Goal=   None    Shift=    0.500
 T=  378. Gap= 0.731 NK=4 IS=   91 IE=  102 IFin=   90
          NO(<0.9)=   0  NV(>0.1)=   0     90.00e < EF      0.00e >EF  Err=0.0D+00
 Gap=     0.139 Goal=   None    Shift=    0.500
 T=  378. Gap= 0.641 NK=4 IS=   90 IE=  101 IFin=   89
          NO(<0.9)=   0  NV(>0.1)=   0     89.00e < EF      0.00e >EF  Err=0.0D+00
 GapD=    0.139 DampG=1.000 DampE=1.000 DampFc=1.0000 IDamp=-1.
 RMSDP=1.50D-04 MaxDP=1.00D-02 DE=-1.48D-03 OVMax= 3.99D-02

 Cycle  13  Pass 1  IDiag  1:
 E= -1640.95373286298     Delta-E=       -0.001298362206 Rises=F Damp=F
 DIIS: error= 3.97D-03 at cycle  13 NSaved=  13.
 NSaved=13 IEnMin=13 EnMin= -1640.95373286298     IErMin=13 ErrMin= 3.97D-03
 ErrMax= 3.97D-03  0.00D+00 EMaxC= 1.00D+00 BMatC= 8.89D-04 BMatP= 7.59D-04
 IDIUse=1 WtCom= 1.00D+00 WtEn= 0.00D+00
 Coeff-Com:  0.124D-01-0.737D-01 0.271D+00-0.155D+00 0.602D-01-0.769D+00
 Coeff-Com:  0.729D+00 0.165D+01-0.299D+01 0.139D+01-0.225D+01 0.124D+01
 Coeff-Com:  0.188D+01
 Coeff:      0.124D-01-0.737D-01 0.271D+00-0.155D+00 0.602D-01-0.769D+00
 Coeff:      0.729D+00 0.165D+01-0.299D+01 0.139D+01-0.225D+01 0.124D+01
 Coeff:      0.188D+01
 Gap=     0.231 Goal=   None    Shift=    0.500
 T=  350. Gap= 0.731 NK=4 IS=   91 IE=  102 IFin=   90
          NO(<0.9)=   0  NV(>0.1)=   0     90.00e < EF      0.00e >EF  Err=0.0D+00
 Gap=     0.142 Goal=   None    Shift=    0.500
 T=  350. Gap= 0.642 NK=4 IS=   90 IE=  101 IFin=   89
          NO(<0.9)=   0  NV(>0.1)=   0     89.00e < EF      0.00e >EF  Err=0.0D+00
 GapD=    0.142 DampG=1.000 DampE=1.000 DampFc=1.0000 IDamp=-1.
 RMSDP=1.26D-04 MaxDP=8.96D-03 DE=-1.30D-03 OVMax= 3.54D-02

 Cycle  14  Pass 1  IDiag  1:
 E= -1640.95472688591     Delta-E=       -0.000994022929 Rises=F Damp=F
 DIIS: error= 3.49D-03 at cycle  14 NSaved=  14.
 NSaved=14 IEnMin=14 EnMin= -1640.95472688591     IErMin=14 ErrMin= 3.49D-03
 ErrMax= 3.49D-03  0.00D+00 EMaxC= 1.00D+00 BMatC= 6.63D-04 BMatP= 7.59D-04
 IDIUse=1 WtCom= 1.00D+00 WtEn= 0.00D+00
 Coeff-Com:  0.312D-02-0.199D-01 0.128D+00-0.732D-01 0.310D-01-0.275D+00
 Coeff-Com:  0.135D-01 0.582D+00-0.197D+00 0.347D+00-0.117D+01-0.706D+00
 Coeff-Com:  0.367D-01 0.230D+01
 Coeff:      0.312D-02-0.199D-01 0.128D+00-0.732D-01 0.310D-01-0.275D+00
 Coeff:      0.135D-01 0.582D+00-0.197D+00 0.347D+00-0.117D+01-0.706D+00
 Coeff:      0.367D-01 0.230D+01
 Gap=     0.231 Goal=   None    Shift=    0.500
 T=  283. Gap= 0.731 NK=4 IS=   91 IE=  102 IFin=   90
          NO(<0.9)=   0  NV(>0.1)=   0     90.00e < EF      0.00e >EF  Err=0.0D+00
 Gap=     0.144 Goal=   None    Shift=    0.500
 T=  283. Gap= 0.644 NK=4 IS=   90 IE=  101 IFin=   89
          NO(<0.9)=   0  NV(>0.1)=   0     89.00e < EF      0.00e >EF  Err=0.0D+00
 GapD=    0.144 DampG=1.000 DampE=1.000 DampFc=1.0000 IDamp=-1.
 RMSDP=1.15D-04 MaxDP=8.52D-03 DE=-9.94D-04 OVMax= 3.21D-02

 Cycle  15  Pass 1  IDiag  1:
 E= -1640.95545898668     Delta-E=       -0.000732100768 Rises=F Damp=F
 DIIS: error= 3.08D-03 at cycle  15 NSaved=  15.
 NSaved=15 IEnMin=15 EnMin= -1640.95545898668     IErMin=15 ErrMin= 3.08D-03
 ErrMax= 3.08D-03  0.00D+00 EMaxC= 1.00D+00 BMatC= 5.78D-04 BMatP= 6.63D-04
 IDIUse=1 WtCom= 1.00D+00 WtEn= 0.00D+00
 Coeff-Com:  0.687D-02-0.478D-01 0.114D+00 0.261D+00-0.469D+00-0.363D-01
 Coeff-Com:  0.959D-01 0.304D+00-0.723D+00 0.106D+01-0.431D+00-0.240D+00
 Coeff-Com: -0.894D+00-0.548D+00 0.255D+01
 Coeff:      0.687D-02-0.478D-01 0.114D+00 0.261D+00-0.469D+00-0.363D-01
 Coeff:      0.959D-01 0.304D+00-0.723D+00 0.106D+01-0.431D+00-0.240D+00
 Coeff:     -0.894D+00-0.548D+00 0.255D+01
 Gap=     0.230 Goal=   None    Shift=    0.500
 T=  209. Gap= 0.730 NK=4 IS=   91 IE=  103 IFin=   90
          NO(<0.9)=   0  NV(>0.1)=   0     90.00e < EF      0.00e >EF  Err=0.0D+00
 Gap=     0.145 Goal=   None    Shift=    0.500
 T=  209. Gap= 0.645 NK=4 IS=   90 IE=  101 IFin=   89
          NO(<0.9)=   0  NV(>0.1)=   0     89.00e < EF      0.00e >EF  Err=0.0D+00
 GapD=    0.145 DampG=1.000 DampE=1.000 DampFc=1.0000 IDamp=-1.
 RMSDP=8.83D-05 MaxDP=6.07D-03 DE=-7.32D-04 OVMax= 2.72D-02

 Cycle  16  Pass 1  IDiag  1:
 E= -1640.95599898606     Delta-E=       -0.000539999376 Rises=F Damp=F
 DIIS: error= 2.68D-03 at cycle  16 NSaved=  16.
 NSaved=16 IEnMin=16 EnMin= -1640.95599898606     IErMin=16 ErrMin= 2.68D-03
 ErrMax= 2.68D-03  0.00D+00 EMaxC= 1.00D+00 BMatC= 4.60D-04 BMatP= 5.78D-04
 IDIUse=1 WtCom= 1.00D+00 WtEn= 0.00D+00
 Coeff-Com:  0.265D-03-0.219D-01-0.299D-01 0.465D+00-0.487D+00-0.148D+00
 Coeff-Com:  0.164D+00 0.387D+00-0.145D+01 0.156D+01-0.700D-01 0.677D+00
 Coeff-Com: -0.737D+00-0.300D+01 0.114D+01 0.255D+01
 Coeff:      0.265D-03-0.219D-01-0.299D-01 0.465D+00-0.487D+00-0.148D+00
 Coeff:      0.164D+00 0.387D+00-0.145D+01 0.156D+01-0.700D-01 0.677D+00
 Coeff:     -0.737D+00-0.300D+01 0.114D+01 0.255D+01
 Gap=     0.230 Goal=   None    Shift=    0.500
 T=  130. Gap= 0.730 NK=4 IS=   91 IE=  103 IFin=   90
          NO(<0.9)=   0  NV(>0.1)=   0     90.00e < EF      0.00e >EF  Err=0.0D+00
 Gap=     0.145 Goal=   None    Shift=    0.500
 T=  130. Gap= 0.646 NK=4 IS=   90 IE=  101 IFin=   89
          NO(<0.9)=   0  NV(>0.1)=   0     89.00e < EF      0.00e >EF  Err=0.0D+00
 GapD=    0.145 DampG=1.000 DampE=1.000 DampFc=1.0000 IDamp=-1.
 RMSDP=8.08D-05 MaxDP=5.06D-03 DE=-5.40D-04 OVMax= 2.50D-02

 Cycle  17  Pass 1  IDiag  1:
 E= -1640.95643237793     Delta-E=       -0.000433391875 Rises=F Damp=F
 DIIS: error= 2.33D-03 at cycle  17 NSaved=  17.
 NSaved=17 IEnMin=17 EnMin= -1640.95643237793     IErMin=17 ErrMin= 2.33D-03
 ErrMax= 2.33D-03  0.00D+00 EMaxC= 1.00D+00 BMatC= 3.64D-04 BMatP= 4.60D-04
 IDIUse=1 WtCom= 1.00D+00 WtEn= 0.00D+00
 Coeff-Com:  0.115D-02-0.964D-02-0.737D-01 0.416D+00-0.352D+00-0.138D+00
 Coeff-Com:  0.554D-01 0.277D+00-0.109D+01 0.133D+01-0.619D-01 0.397D+00
 Coeff-Com: -0.113D+00-0.222D+01-0.443D+00 0.154D+01 0.149D+01
 Coeff:      0.115D-02-0.964D-02-0.737D-01 0.416D+00-0.352D+00-0.138D+00
 Coeff:      0.554D-01 0.277D+00-0.109D+01 0.133D+01-0.619D-01 0.397D+00
 Coeff:     -0.113D+00-0.222D+01-0.443D+00 0.154D+01 0.149D+01
 Gap=     0.229 Goal=   None    Shift=    0.500
 T=   50. Gap= 0.729 NK=4 IS=   91 IE=  103 IFin=   90
          NO(<0.9)=   0  NV(>0.1)=   0     90.00e < EF      0.00e >EF  Err=0.0D+00
 Gap=     0.146 Goal=   None    Shift=    0.500
 T=   50. Gap= 0.647 NK=4 IS=   90 IE=  101 IFin=   89
          NO(<0.9)=   0  NV(>0.1)=   0     89.00e < EF      0.00e >EF  Err=0.0D+00
 GapD=    0.146 DampG=1.000 DampE=1.000 DampFc=1.0000 IDamp=-1.
 RMSDP=6.91D-05 MaxDP=4.50D-03 DE=-4.33D-04 OVMax= 2.18D-02

 Cycle  18  Pass 1  IDiag  1:
 E= -1640.95676105921     Delta-E=       -0.000328681279 Rises=F Damp=F
 DIIS: error= 2.01D-03 at cycle  18 NSaved=  18.
 NSaved=18 IEnMin=18 EnMin= -1640.95676105921     IErMin=18 ErrMin= 2.01D-03
 ErrMax= 2.01D-03  0.00D+00 EMaxC= 1.00D+00 BMatC= 2.86D-04 BMatP= 3.64D-04
 IDIUse=1 WtCom= 1.00D+00 WtEn= 0.00D+00
 Coeff-Com:  0.658D-02-0.152D-01-0.287D-01 0.216D+00-0.190D+00-0.349D-01
 Coeff-Com: -0.670D-01-0.487D-01 0.583D-01 0.519D+00-0.114D+00-0.687D+00
 Coeff-Com:  0.359D+00 0.305D+00-0.649D+00-0.403D+00-0.126D+01 0.304D+01
 Coeff:      0.658D-02-0.152D-01-0.287D-01 0.216D+00-0.190D+00-0.349D-01
 Coeff:     -0.670D-01-0.487D-01 0.583D-01 0.519D+00-0.114D+00-0.687D+00
 Coeff:      0.359D+00 0.305D+00-0.649D+00-0.403D+00-0.126D+01 0.304D+01
 Gap=     0.228 Goal=   None    Shift=    0.500
 Gap=     0.147 Goal=   None    Shift=    0.500
 GapD=    0.147 DampG=1.000 DampE=1.000 DampFc=1.0000 IDamp=-1.
 RMSDP=6.87D-05 MaxDP=4.34D-03 DE=-3.29D-04 OVMax= 2.05D-02

 Cycle  19  Pass 1  IDiag  1:
 E= -1640.95702210829     Delta-E=       -0.000261049080 Rises=F Damp=F
 DIIS: error= 1.75D-03 at cycle  19 NSaved=  19.
 NSaved=19 IEnMin=19 EnMin= -1640.95702210829     IErMin=19 ErrMin= 1.75D-03
 ErrMax= 1.75D-03  0.00D+00 EMaxC= 1.00D+00 BMatC= 2.56D-04 BMatP= 2.86D-04
 IDIUse=1 WtCom= 1.00D+00 WtEn= 0.00D+00
 Coeff-Com:  0.454D-02-0.192D-01 0.632D-02 0.125D+00-0.114D+00-0.359D-01
 Coeff-Com: -0.721D-01-0.716D-01 0.352D+00 0.278D+00-0.224D+00-0.102D+01
 Coeff-Com:  0.339D+00 0.921D+00 0.571D+00-0.830D+00-0.325D+01 0.235D+01
 Coeff-Com:  0.169D+01
 Coeff:      0.454D-02-0.192D-01 0.632D-02 0.125D+00-0.114D+00-0.359D-01
 Coeff:     -0.721D-01-0.716D-01 0.352D+00 0.278D+00-0.224D+00-0.102D+01
 Coeff:      0.339D+00 0.921D+00 0.571D+00-0.830D+00-0.325D+01 0.235D+01
 Coeff:      0.169D+01
 Gap=     0.228 Goal=   None    Shift=    0.500
 Gap=     0.148 Goal=   None    Shift=    0.500
 GapD=    0.148 DampG=1.000 DampE=1.000 DampFc=1.0000 IDamp=-1.
 RMSDP=5.37D-05 MaxDP=2.72D-03 DE=-2.61D-04 OVMax= 1.78D-02

 Cycle  20  Pass 1  IDiag  1:
 E= -1640.95723311042     Delta-E=       -0.000211002129 Rises=F Damp=F
 DIIS: error= 1.50D-03 at cycle  20 NSaved=  20.
 NSaved=20 IEnMin=20 EnMin= -1640.95723311042     IErMin=20 ErrMin= 1.50D-03
 ErrMax= 1.50D-03  0.00D+00 EMaxC= 1.00D+00 BMatC= 1.91D-04 BMatP= 2.56D-04
 IDIUse=1 WtCom= 1.00D+00 WtEn= 0.00D+00
 Coeff-Com: -0.469D-02 0.208D-02-0.356D-01 0.238D+00-0.275D+00 0.663D-01
 Coeff-Com: -0.316D-01 0.149D-01-0.515D+00 0.792D+00 0.149D+00-0.119D-01
 Coeff-Com: -0.419D+00-0.160D+01 0.187D+01 0.121D+01-0.672D+00-0.148D+01
 Coeff-Com: -0.356D+01 0.526D+01
 Coeff:     -0.469D-02 0.208D-02-0.356D-01 0.238D+00-0.275D+00 0.663D-01
 Coeff:     -0.316D-01 0.149D-01-0.515D+00 0.792D+00 0.149D+00-0.119D-01
 Coeff:     -0.419D+00-0.160D+01 0.187D+01 0.121D+01-0.672D+00-0.148D+01
 Coeff:     -0.356D+01 0.526D+01
 Gap=     0.227 Goal=   None    Shift=    0.500
 Gap=     0.148 Goal=   None    Shift=    0.500
 GapD=    0.148 DampG=1.000 DampE=1.000 DampFc=1.0000 IDamp=-1.
 RMSDP=6.03D-05 MaxDP=4.05D-03 DE=-2.11D-04 OVMax= 1.76D-02

 Cycle  21  Pass 1  IDiag  1:
 E= -1640.95740240435     Delta-E=       -0.000169293925 Rises=F Damp=F
 DIIS: error= 1.30D-03 at cycle  21 NSaved=  20.
 NSaved=20 IEnMin=20 EnMin= -1640.95740240435     IErMin=20 ErrMin= 1.30D-03
 ErrMax= 1.30D-03  0.00D+00 EMaxC= 1.00D+00 BMatC= 1.81D-04 BMatP= 1.91D-04
 IDIUse=1 WtCom= 1.00D+00 WtEn= 0.00D+00
 Coeff-Com: -0.583D-02-0.517D-01 0.288D+00-0.316D+00 0.107D+00-0.733D-01
 Coeff-Com:  0.246D-01-0.697D+00 0.994D+00 0.180D+00 0.294D+00-0.585D+00
 Coeff-Com: -0.227D+01 0.166D+01 0.183D+01 0.683D+00-0.207D+01-0.475D+01
 Coeff-Com:  0.465D+01 0.111D+01
 Coeff:     -0.583D-02-0.517D-01 0.288D+00-0.316D+00 0.107D+00-0.733D-01
 Coeff:      0.246D-01-0.697D+00 0.994D+00 0.180D+00 0.294D+00-0.585D+00
 Coeff:     -0.227D+01 0.166D+01 0.183D+01 0.683D+00-0.207D+01-0.475D+01
 Coeff:      0.465D+01 0.111D+01
 Gap=     0.227 Goal=   None    Shift=    0.500
 Gap=     0.148 Goal=   None    Shift=    0.500
 GapD=    0.148 DampG=1.000 DampE=1.000 DampFc=1.0000 IDamp=-1.
 RMSDP=4.42D-05 MaxDP=2.60D-03 DE=-1.69D-04 OVMax= 1.44D-02

 Cycle  22  Pass 1  IDiag  1:
 E= -1640.95752907583     Delta-E=       -0.000126671489 Rises=F Damp=F
 DIIS: error= 1.11D-03 at cycle  22 NSaved=  20.
 NSaved=20 IEnMin=20 EnMin= -1640.95752907583     IErMin=20 ErrMin= 1.11D-03
 ErrMax= 1.11D-03  0.00D+00 EMaxC= 1.00D+00 BMatC= 1.43D-04 BMatP= 1.81D-04
 IDIUse=1 WtCom= 1.00D+00 WtEn= 0.00D+00
 Coeff-Com: -0.455D-01 0.198D+00-0.229D+00 0.176D+00-0.175D+00-0.122D+00
 Coeff-Com: -0.131D+00 0.648D+00 0.134D+00 0.522D-01-0.472D+00-0.127D+01
 Coeff-Com:  0.215D+00 0.127D+01 0.131D+01-0.511D+00-0.264D+01 0.921D+00
 Coeff-Com: -0.178D+01 0.345D+01
 Coeff:     -0.455D-01 0.198D+00-0.229D+00 0.176D+00-0.175D+00-0.122D+00
 Coeff:     -0.131D+00 0.648D+00 0.134D+00 0.522D-01-0.472D+00-0.127D+01
 Coeff:      0.215D+00 0.127D+01 0.131D+01-0.511D+00-0.264D+01 0.921D+00
 Coeff:     -0.178D+01 0.345D+01
 Gap=     0.226 Goal=   None    Shift=    0.500
 Gap=     0.148 Goal=   None    Shift=    0.500
 GapD=    0.148 DampG=1.000 DampE=1.000 DampFc=1.0000 IDamp=-1.
 RMSDP=4.13D-05 MaxDP=2.72D-03 DE=-1.27D-04 OVMax= 1.34D-02

 Cycle  23  Pass 1  IDiag  1:
 E= -1640.95763139257     Delta-E=       -0.000102316735 Rises=F Damp=F
 DIIS: error= 9.48D-04 at cycle  23 NSaved=  20.
 NSaved=20 IEnMin=20 EnMin= -1640.95763139257     IErMin=20 ErrMin= 9.48D-04
 ErrMax= 9.48D-04  0.00D+00 EMaxC= 1.00D+00 BMatC= 1.12D-04 BMatP= 1.43D-04
 IDIUse=1 WtCom= 1.00D+00 WtEn= 0.00D+00
 Coeff-Com:  0.929D-01-0.197D+00 0.188D+00-0.920D-01-0.229D+00 0.106D+00
 Coeff-Com:  0.408D+00 0.117D+00-0.328D+00-0.132D+00-0.330D+00-0.227D+00
 Coeff-Com:  0.428D+00 0.399D+00 0.802D+00-0.502D+00-0.579D+00-0.324D+01
 Coeff-Com:  0.287D+01 0.145D+01
 Coeff:      0.929D-01-0.197D+00 0.188D+00-0.920D-01-0.229D+00 0.106D+00
 Coeff:      0.408D+00 0.117D+00-0.328D+00-0.132D+00-0.330D+00-0.227D+00
 Coeff:      0.428D+00 0.399D+00 0.802D+00-0.502D+00-0.579D+00-0.324D+01
 Coeff:      0.287D+01 0.145D+01
 Gap=     0.226 Goal=   None    Shift=    0.500
 Gap=     0.149 Goal=   None    Shift=    0.500
 RMSDP=3.39D-05 MaxDP=2.07D-03 DE=-1.02D-04 OVMax= 1.14D-02

 Cycle  24  Pass 1  IDiag  1:
 E= -1640.95770719607     Delta-E=       -0.000075803501 Rises=F Damp=F
 DIIS: error= 7.88D-04 at cycle  24 NSaved=  20.
 NSaved=20 IEnMin=20 EnMin= -1640.95770719607     IErMin=20 ErrMin= 7.88D-04
 ErrMax= 7.88D-04  0.00D+00 EMaxC= 1.00D+00 BMatC= 8.01D-05 BMatP= 1.12D-04
 IDIUse=1 WtCom= 1.00D+00 WtEn= 0.00D+00
 Coeff-Com:  0.837D-02-0.241D-01 0.870D-02-0.158D+00 0.142D+00 0.143D+00
 Coeff-Com:  0.915D-01-0.499D+00 0.290D+00 0.831D-01-0.391D-02-0.201D+00
 Coeff-Com: -0.879D+00 0.130D+01 0.580D+00 0.798D-01-0.249D+01 0.782D+00
 Coeff-Com: -0.139D+01 0.314D+01
 Coeff:      0.837D-02-0.241D-01 0.870D-02-0.158D+00 0.142D+00 0.143D+00
 Coeff:      0.915D-01-0.499D+00 0.290D+00 0.831D-01-0.391D-02-0.201D+00
 Coeff:     -0.879D+00 0.130D+01 0.580D+00 0.798D-01-0.249D+01 0.782D+00
 Coeff:     -0.139D+01 0.314D+01
 Gap=     0.226 Goal=   None    Shift=    0.500
 Gap=     0.149 Goal=   None    Shift=    0.500
 RMSDP=3.57D-05 MaxDP=2.41D-03 DE=-7.58D-05 OVMax= 1.05D-02

 Cycle  25  Pass 1  IDiag  1:
 E= -1640.95775691685     Delta-E=       -0.000049720784 Rises=F Damp=F
 DIIS: error= 6.83D-04 at cycle  25 NSaved=  20.
 NSaved=20 IEnMin=20 EnMin= -1640.95775691685     IErMin=20 ErrMin= 6.83D-04
 ErrMax= 6.83D-04  0.00D+00 EMaxC= 1.00D+00 BMatC= 7.96D-05 BMatP= 8.01D-05
 IDIUse=1 WtCom= 1.00D+00 WtEn= 0.00D+00
 Coeff-Com: -0.462D-02 0.291D-02-0.500D-01-0.444D-01 0.225D+00-0.155D-01
 Coeff-Com: -0.325D+00 0.278D+00-0.159D+00 0.312D+00-0.705D-01-0.801D+00
 Coeff-Com:  0.715D+00-0.353D+00 0.117D+01-0.861D+00 0.821D-01-0.289D+01
 Coeff-Com:  0.223D+01 0.156D+01
 Coeff:     -0.462D-02 0.291D-02-0.500D-01-0.444D-01 0.225D+00-0.155D-01
 Coeff:     -0.325D+00 0.278D+00-0.159D+00 0.312D+00-0.705D-01-0.801D+00
 Coeff:      0.715D+00-0.353D+00 0.117D+01-0.861D+00 0.821D-01-0.289D+01
 Coeff:      0.223D+01 0.156D+01
 Gap=     0.226 Goal=   None    Shift=    0.500
 Gap=     0.149 Goal=   None    Shift=    0.500
 RMSDP=2.51D-05 MaxDP=1.33D-03 DE=-4.97D-05 OVMax= 8.53D-03

 Cycle  26  Pass 1  IDiag  1:
 E= -1640.95779831751     Delta-E=       -0.000041400657 Rises=F Damp=F
 DIIS: error= 5.60D-04 at cycle  26 NSaved=  20.
 NSaved=20 IEnMin=20 EnMin= -1640.95779831751     IErMin=20 ErrMin= 5.60D-04
 ErrMax= 5.60D-04  0.00D+00 EMaxC= 1.00D+00 BMatC= 5.47D-05 BMatP= 7.96D-05
 IDIUse=1 WtCom= 1.00D+00 WtEn= 0.00D+00
 Coeff-Com: -0.525D-02-0.461D-01-0.729D-01 0.195D+00 0.690D-01-0.111D+00
 Coeff-Com:  0.174D-01-0.411D+00 0.389D+00 0.237D+00-0.122D+00-0.770D-01
 Coeff-Com: -0.118D+01 0.145D+01 0.284D+00 0.607D-01-0.203D+01 0.938D+00
 Coeff-Com: -0.175D+01 0.318D+01
 Coeff:     -0.525D-02-0.461D-01-0.729D-01 0.195D+00 0.690D-01-0.111D+00
 Coeff:      0.174D-01-0.411D+00 0.389D+00 0.237D+00-0.122D+00-0.770D-01
 Coeff:     -0.118D+01 0.145D+01 0.284D+00 0.607D-01-0.203D+01 0.938D+00
 Coeff:     -0.175D+01 0.318D+01
 Gap=     0.226 Goal=   None    Shift=    0.500
 Gap=     0.149 Goal=   None    Shift=    0.500
 RMSDP=2.25D-05 MaxDP=1.22D-03 DE=-4.14D-05 OVMax= 7.44D-03

 Cycle  27  Pass 1  IDiag  1:
 E= -1640.95782683436     Delta-E=       -0.000028516848 Rises=F Damp=F
 DIIS: error= 4.60D-04 at cycle  27 NSaved=  20.
 NSaved=20 IEnMin=20 EnMin= -1640.95782683436     IErMin=20 ErrMin= 4.60D-04
 ErrMax= 4.60D-04  0.00D+00 EMaxC= 1.00D+00 BMatC= 4.04D-05 BMatP= 5.47D-05
 IDIUse=1 WtCom= 1.00D+00 WtEn= 0.00D+00
 Coeff-Com: -0.151D+00 0.987D-01 0.940D-01 0.196D+00-0.798D-01-0.171D+00
 Coeff-Com: -0.372D+00-0.128D-01 0.410D+00 0.489D+00-0.966D-01-0.789D+00
 Coeff-Com:  0.232D+00-0.540D+00 0.102D+01 0.423D+00 0.231D+00-0.427D+01
 Coeff-Com:  0.204D+01 0.224D+01
 Coeff:     -0.151D+00 0.987D-01 0.940D-01 0.196D+00-0.798D-01-0.171D+00
 Coeff:     -0.372D+00-0.128D-01 0.410D+00 0.489D+00-0.966D-01-0.789D+00
 Coeff:      0.232D+00-0.540D+00 0.102D+01 0.423D+00 0.231D+00-0.427D+01
 Coeff:      0.204D+01 0.224D+01
 Gap=     0.226 Goal=   None    Shift=    0.500
 Gap=     0.149 Goal=   None    Shift=    0.500
 RMSDP=2.00D-05 MaxDP=1.20D-03 DE=-2.85D-05 OVMax= 6.53D-03

 Cycle  28  Pass 1  IDiag  1:
 E= -1640.95784609574     Delta-E=       -0.000019261382 Rises=F Damp=F
 DIIS: error= 3.77D-04 at cycle  28 NSaved=  20.
 NSaved=20 IEnMin=20 EnMin= -1640.95784609574     IErMin=20 ErrMin= 3.77D-04
 ErrMax= 3.77D-04  0.00D+00 EMaxC= 1.00D+00 BMatC= 3.26D-05 BMatP= 4.04D-05
 IDIUse=1 WtCom= 1.00D+00 WtEn= 0.00D+00
 Coeff-Com: -0.171D+00 0.215D+00 0.347D-01 0.187D-02 0.244D-01-0.377D+00
 Coeff-Com:  0.120D+00 0.317D+00-0.537D-01 0.558D-01-0.318D+00 0.280D+00
 Coeff-Com: -0.820D+00 0.843D+00 0.245D+00 0.498D+00-0.206D+01-0.223D+00
 Coeff-Com:  0.231D+00 0.216D+01
 Coeff:     -0.171D+00 0.215D+00 0.347D-01 0.187D-02 0.244D-01-0.377D+00
 Coeff:      0.120D+00 0.317D+00-0.537D-01 0.558D-01-0.318D+00 0.280D+00
 Coeff:     -0.820D+00 0.843D+00 0.245D+00 0.498D+00-0.206D+01-0.223D+00
 Coeff:      0.231D+00 0.216D+01
 Gap=     0.226 Goal=   None    Shift=    0.500
 Gap=     0.149 Goal=   None    Shift=    0.500
 RMSDP=1.41D-05 MaxDP=7.67D-04 DE=-1.93D-05 OVMax= 4.76D-03

 Cycle  29  Pass 1  IDiag  1:
 E= -1640.95786081448     Delta-E=       -0.000014718735 Rises=F Damp=F
 DIIS: error= 2.96D-04 at cycle  29 NSaved=  20.
 NSaved=20 IEnMin=20 EnMin= -1640.95786081448     IErMin=20 ErrMin= 2.96D-04
 ErrMax= 2.96D-04  0.00D+00 EMaxC= 1.00D+00 BMatC= 1.86D-05 BMatP= 3.26D-05
 IDIUse=1 WtCom= 1.00D+00 WtEn= 0.00D+00
 Coeff-Com:  0.157D-01 0.488D-01-0.189D+00 0.154D+00 0.625D-01-0.779D-01
 Coeff-Com: -0.135D+00-0.451D+00 0.646D+00 0.803D+00-0.506D+00-0.133D+01
 Coeff-Com:  0.463D+00 0.308D+00 0.825D+00 0.980D+00-0.212D+01-0.131D+01
 Coeff-Com: -0.901D-01 0.291D+01
 Coeff:      0.157D-01 0.488D-01-0.189D+00 0.154D+00 0.625D-01-0.779D-01
 Coeff:     -0.135D+00-0.451D+00 0.646D+00 0.803D+00-0.506D+00-0.133D+01
 Coeff:      0.463D+00 0.308D+00 0.825D+00 0.980D+00-0.212D+01-0.131D+01
 Coeff:     -0.901D-01 0.291D+01
 Gap=     0.226 Goal=   None    Shift=    0.500
 Gap=     0.149 Goal=   None    Shift=    0.500
 RMSDP=1.19D-05 MaxDP=6.07D-04 DE=-1.47D-05 OVMax= 4.06D-03

 Cycle  30  Pass 1  IDiag  1:
 E= -1640.95787027913     Delta-E=       -0.000009464656 Rises=F Damp=F
 DIIS: error= 2.35D-04 at cycle  30 NSaved=  20.
 NSaved=20 IEnMin=20 EnMin= -1640.95787027913     IErMin=20 ErrMin= 2.35D-04
 ErrMax= 2.35D-04  0.00D+00 EMaxC= 1.00D+00 BMatC= 1.20D-05 BMatP= 1.86D-05
 IDIUse=1 WtCom= 1.00D+00 WtEn= 0.00D+00
 Coeff-Com:  0.129D-01-0.118D+00 0.160D+00 0.773D-01-0.139D+00-0.160D+00
 Coeff-Com: -0.205D+00 0.464D+00 0.393D+00-0.264D+00-0.631D+00 0.130D+00
 Coeff-Com: -0.318D+00 0.635D+00 0.149D+01-0.116D+01-0.112D+01-0.145D+01
 Coeff-Com:  0.150D+01 0.170D+01
 Coeff:      0.129D-01-0.118D+00 0.160D+00 0.773D-01-0.139D+00-0.160D+00
 Coeff:     -0.205D+00 0.464D+00 0.393D+00-0.264D+00-0.631D+00 0.130D+00
 Coeff:     -0.318D+00 0.635D+00 0.149D+01-0.116D+01-0.112D+01-0.145D+01
 Coeff:      0.150D+01 0.170D+01
 Gap=     0.226 Goal=   None    Shift=    0.500
 Gap=     0.149 Goal=   None    Shift=    0.500
 RMSDP=9.91D-06 MaxDP=5.65D-04 DE=-9.46D-06 OVMax= 3.31D-03

 Cycle  31  Pass 1  IDiag  1:
 E= -1640.95787610543     Delta-E=       -0.000005826299 Rises=F Damp=F
 DIIS: error= 1.88D-04 at cycle  31 NSaved=  20.
 NSaved=20 IEnMin=20 EnMin= -1640.95787610543     IErMin=20 ErrMin= 1.88D-04
 ErrMax= 1.88D-04  0.00D+00 EMaxC= 1.00D+00 BMatC= 8.94D-06 BMatP= 1.20D-05
 IDIUse=1 WtCom= 1.00D+00 WtEn= 0.00D+00
 Coeff-Com: -0.418D-01 0.838D-01-0.206D-01-0.535D-02-0.537D-01-0.866D-02
 Coeff-Com:  0.606D-01-0.292D+00 0.364D+00 0.295D+00-0.273D+00-0.872D+00
 Coeff-Com:  0.408D+00 0.511D+00 0.749D+00-0.225D+00-0.177D+01-0.318D+00
 Coeff-Com:  0.259D+00 0.215D+01
 Coeff:     -0.418D-01 0.838D-01-0.206D-01-0.535D-02-0.537D-01-0.866D-02
 Coeff:      0.606D-01-0.292D+00 0.364D+00 0.295D+00-0.273D+00-0.872D+00
 Coeff:      0.408D+00 0.511D+00 0.749D+00-0.225D+00-0.177D+01-0.318D+00
 Coeff:      0.259D+00 0.215D+01
 Gap=     0.226 Goal=   None    Shift=    0.500
 Gap=     0.149 Goal=   None    Shift=    0.500
 RMSDP=8.17D-06 MaxDP=4.35D-04 DE=-5.83D-06 OVMax= 2.79D-03

 Cycle  32  Pass 1  IDiag  1:
 E= -1640.95788038713     Delta-E=       -0.000004281699 Rises=F Damp=F
 DIIS: error= 1.49D-04 at cycle  32 NSaved=  20.
 NSaved=20 IEnMin=20 EnMin= -1640.95788038713     IErMin=20 ErrMin= 1.49D-04
 ErrMax= 1.49D-04  0.00D+00 EMaxC= 1.00D+00 BMatC= 6.20D-06 BMatP= 8.94D-06
 IDIUse=1 WtCom= 1.00D+00 WtEn= 0.00D+00
 Coeff-Com:  0.390D-01-0.788D-01-0.198D-01 0.732D-01 0.915D-01-0.223D-01
 Coeff-Com: -0.353D+00 0.283D+00 0.805D-01 0.126D-01-0.315D+00 0.220D+00
 Coeff-Com: -0.731D+00 0.103D+01 0.383D+00-0.734D+00-0.574D+00-0.466D+00
 Coeff-Com:  0.173D-01 0.206D+01
 Coeff:      0.390D-01-0.788D-01-0.198D-01 0.732D-01 0.915D-01-0.223D-01
 Coeff:     -0.353D+00 0.283D+00 0.805D-01 0.126D-01-0.315D+00 0.220D+00
 Coeff:     -0.731D+00 0.103D+01 0.383D+00-0.734D+00-0.574D+00-0.466D+00
 Coeff:      0.173D-01 0.206D+01
 Gap=     0.226 Goal=   None    Shift=    0.500
 Gap=     0.149 Goal=   None    Shift=    0.500
 RMSDP=6.58D-06 MaxDP=3.24D-04 DE=-4.28D-06 OVMax= 2.29D-03

 >>>>>>>>>> Convergence criterion not met.
 SCF Done:  E(ULC-wHPBE) =  -1640.95788039     A.U. after   33 cycles
            NFock= 32  Conv=0.66D-05     -V/T= 2.0041
 <Sx>= 0.0000 <Sy>= 0.0000 <Sz>= 0.5000 <S**2>= 0.7867 S= 0.5182
 <L.S>= 0.000000000000E+00
 KE= 1.634228961550D+03 PE=-7.855378633937D+03 EE= 2.557706948331D+03
 Annihilation of the first spin contaminant:
 S**2 before annihilation     0.7867,   after     0.7505
 Leave Link  502 at Tue Jan 26 20:34:59 2021, MaxMem=  4026531840 cpu:           12475.8 elap:            1561.2
 (Enter /opt/ohpc/pub/libs/gaussian/g16-A.03/sandybridge/g16/l508.exe)
 Integral symmetry usage will be decided dynamically.
 Tight linear equation convergence will be used.
 ULC-wHPBE wavefunction.
 Quadratic Convergence SCF Method.
 Line search only if initial step raises energy.
 FoFJK:  IHMeth= 1 ICntrl=       0 DoSepK=T KAlg= 0 I1Cent=           0 FoldK=F
 IRaf=         1 NMat=       1 IRICut=       1 DoRegI=T DoRafI=F ISym2E= 1 IDoP0=0 IntGTp=1.
 FoFCou: FMM=F IPFlag=           0 FMFlag=      100000 FMFlg1=           0
         NFxFlg=           0 DoJE=T BraDBF=F KetDBF=F FulRan=T
         wScrn=  0.000000 ICntrl=       500 IOpCl=  0 I1Cent=           0 NGrid=           0
         NMat0=    1 NMatS0=      1 NMatT0=    0 NMatD0=    1 NMtDS0=    0 NMtDT0=    0
 Petite list used in FoFCou.
 Iteration   1 EE= -1640.95788340121                                    Grad=1.383D-03 Max rot=    0.0236 deg.
 QCNR:  CnvC1=1.38D-08 CnvC2=1.38D-07
 LinEq1:  Iter=  0 NonCon=     1 RMS=1.37D-05 Max=2.76D-03 NDo=     1
 AX will form     1 AO Fock derivatives at one time.
 LinEq1:  Iter=  1 NonCon=     1 RMS=1.10D-05 Max=1.06D-03 NDo=     1
 LinEq1:  Iter=  2 NonCon=     1 RMS=6.10D-06 Max=3.10D-04 NDo=     1
 LinEq1:  Iter=  3 NonCon=     1 RMS=3.43D-06 Max=2.78D-04 NDo=     1
 LinEq1:  Iter=  4 NonCon=     1 RMS=2.13D-06 Max=1.20D-04 NDo=     1
 LinEq1:  Iter=  5 NonCon=     1 RMS=1.56D-06 Max=1.15D-04 NDo=     1
 LinEq1:  Iter=  6 NonCon=     1 RMS=9.66D-07 Max=1.01D-04 NDo=     1
 LinEq1:  Iter=  7 NonCon=     1 RMS=6.39D-07 Max=4.57D-05 NDo=     1
 LinEq1:  Iter=  8 NonCon=     1 RMS=3.92D-07 Max=2.96D-05 NDo=     1
 LinEq1:  Iter=  9 NonCon=     1 RMS=2.88D-07 Max=2.18D-05 NDo=     1
 LinEq1:  Iter= 10 NonCon=     1 RMS=1.91D-07 Max=1.52D-05 NDo=     1
 LinEq1:  Iter= 11 NonCon=     1 RMS=1.22D-07 Max=1.16D-05 NDo=     1
 LinEq1:  Iter= 12 NonCon=     1 RMS=7.51D-08 Max=5.86D-06 NDo=     1
 LinEq1:  Iter= 13 NonCon=     1 RMS=5.04D-08 Max=4.71D-06 NDo=     1
 LinEq1:  Iter= 14 NonCon=     1 RMS=2.63D-08 Max=2.52D-06 NDo=     1
 LinEq1:  Iter= 15 NonCon=     1 RMS=1.71D-08 Max=1.12D-06 NDo=     1
 LinEq1:  Iter= 16 NonCon=     1 RMS=1.02D-08 Max=6.90D-07 NDo=     1
 LinEq1:  Iter= 17 NonCon=     1 RMS=6.36D-09 Max=3.64D-07 NDo=     1
 LinEq1:  Iter= 18 NonCon=     1 RMS=3.62D-09 Max=3.29D-07 NDo=     1
 LinEq1:  Iter= 19 NonCon=     1 RMS=2.30D-09 Max=2.17D-07 NDo=     1
 LinEq1:  Iter= 20 NonCon=     0 RMS=1.18D-09 Max=8.90D-08 NDo=     1
 Linear equations converged to 1.383D-08 1.383D-07 after    20 iterations.
 Angle between quadratic step and gradient=  67.06 degrees.
     ILin= 1 X=0.000D+00 Y=-1.640957883401D+03 DE= 0.00D+00 F= -1.00D-05
     ILin= 2 X=1.000D+00 Y=-1.640957888463D+03 DE=-5.06D-06
 Iteration   2 EE= -1640.95788846300     Delta-E=       -0.000005061795 Grad=2.609D-05 Max rot=    0.0005 deg.
 Rotation gradient small -- convergence achieved.
 SCF Done:  E(ULC-wHPBE) =  -1640.95788846     a.u. after    2 cycles
            Convg  =    0.2609D-04                    22 Fock formations.
              S**2 =  0.7870                  -V/T =  2.0041
 <Sx>= 0.0000 <Sy>= 0.0000 <Sz>= 0.5000 <S**2>= 0.7870 S= 0.5183
 <L.S>= 0.000000000000E+00
 Annihilation of the first spin contaminant:
 S**2 before annihilation     0.7870,   after     0.7505
 Leave Link  508 at Tue Jan 26 20:50:47 2021, MaxMem=  4026531840 cpu:            7564.5 elap:             948.1
 (Enter /opt/ohpc/pub/libs/gaussian/g16-A.03/sandybridge/g16/l601.exe)
 Copying SCF densities to generalized density rwf, IOpCl= 1 IROHF=0.

 **********************************************************************

            Population analysis using the SCF density.

 **********************************************************************

 Orbital symmetries:
 Alpha Orbitals:
       Occupied  (A) (A) (A) (A) (A) (A) (A) (A) (A) (A) (A) (A)
                 (A) (A) (A) (A) (A) (A) (A) (A) (A) (A) (A) (A)
                 (A) (A) (A) (A) (A) (A) (A) (A) (A) (A) (A) (A)
                 (A) (A) (A) (A) (A) (A) (A) (A) (A) (A) (A) (A)
                 (A) (A) (A) (A) (A) (A) (A) (A) (A) (A) (A) (A)
                 (A) (A) (A) (A) (A) (A) (A) (A) (A) (A) (A) (A)
                 (A) (A) (A) (A) (A) (A) (A) (A) (A) (A) (A) (A)
                 (A) (A) (A) (A) (A) (A)
       Virtual   (A) (A) (A) (A) (A) (A) (A) (A) (A) (A) (A) (A)
                 (A) (A) (A) (A) (A) (A) (A) (A) (A) (A) (A) (A)
                 (A) (A) (A) (A) (A) (A) (A) (A) (A) (A) (A) (A)
                 (A) (A) (A) (A) (A) (A) (A) (A) (A) (A) (A) (A)
                 (A) (A) (A) (A) (A) (A) (A) (A) (A) (A) (A) (A)
                 (A) (A) (A) (A) (A) (A) (A) (A) (A) (A) (A) (A)
                 (A) (A) (A) (A) (A) (A) (A) (A) (A) (A) (A) (A)
                 (A) (A) (A) (A) (A) (A) (A) (A) (A) (A) (A) (A)
                 (A) (A) (A) (A) (A) (A) (A) (A) (A) (A) (A) (A)
                 (A) (A) (A) (A) (A) (A) (A) (A) (A) (A) (A) (A)
                 (A) (A) (A) (A) (A) (A) (A) (A) (A) (A) (A) (A)
                 (A) (A) (A) (A) (A) (A) (A) (A) (A) (A) (A) (A)
                 (A) (A) (A) (A) (A) (A) (A) (A) (A) (A) (A) (A)
                 (A) (A) (A) (A) (A) (A) (A) (A) (A) (A) (A) (A)
                 (A) (A) (A) (A) (A) (A) (A) (A) (A) (A) (A) (A)
                 (A) (A) (A) (A) (A) (A) (A) (A) (A) (A) (A) (A)
                 (A) (A) (A) (A) (A) (A) (A) (A) (A) (A) (A) (A)
                 (A) (A) (A) (A) (A) (A) (A) (A) (A) (A) (A) (A)
                 (A) (A) (A) (A) (A) (A) (A) (A) (A) (A) (A) (A)
                 (A) (A) (A) (A) (A) (A) (A) (A) (A) (A) (A) (A)
                 (A) (A) (A) (A) (A) (A) (A) (A) (A) (A) (A) (A)
                 (A) (A) (A) (A) (A) (A) (A) (A) (A) (A) (A) (A)
                 (A) (A) (A) (A) (A) (A) (A) (A) (A) (A) (A) (A)
                 (A) (A) (A) (A) (A) (A) (A) (A) (A) (A) (A) (A)
                 (A) (A) (A) (A) (A) (A) (A) (A) (A) (A) (A) (A)
                 (A) (A) (A) (A) (A) (A) (A) (A) (A) (A) (A) (A)
                 (A) (A) (A) (A) (A) (A) (A) (A) (A) (A) (A) (A)
                 (A) (A) (A) (A) (A) (A) (A) (A) (A) (A) (A) (A)
                 (A) (A) (A) (A) (A) (A) (A) (A) (A) (A) (A) (A)
                 (A) (A) (A) (A) (A) (A) (A) (A) (A) (A) (A) (A)
                 (A) (A) (A) (A) (A) (A) (A) (A) (A) (A) (A) (A)
                 (A) (A) (A) (A) (A) (A) (A) (A) (A) (A) (A) (A)
                 (A) (A) (A) (A) (A) (A) (A) (A) (A) (A) (A) (A)
                 (A) (A) (A) (A) (A) (A) (A) (A) (A) (A) (A) (A)
                 (A) (A) (A) (A) (A) (A) (A) (A) (A) (A) (A) (A)
                 (A) (A) (A) (A) (A) (A) (A) (A) (A) (A) (A) (A)
                 (A) (A) (A) (A) (A) (A) (A) (A) (A) (A) (A) (A)
                 (A) (A) (A) (A) (A) (A) (A) (A) (A) (A) (A) (A)
                 (A) (A) (A) (A) (A) (A) (A) (A) (A) (A) (A) (A)
                 (A) (A) (A) (A) (A) (A) (A) (A) (A) (A) (A)
 Beta  Orbitals:
       Occupied  (A) (A) (A) (A) (A) (A) (A) (A) (A) (A) (A) (A)
                 (A) (A) (A) (A) (A) (A) (A) (A) (A) (A) (A) (A)
                 (A) (A) (A) (A) (A) (A) (A) (A) (A) (A) (A) (A)
                 (A) (A) (A) (A) (A) (A) (A) (A) (A) (A) (A) (A)
                 (A) (A) (A) (A) (A) (A) (A) (A) (A) (A) (A) (A)
                 (A) (A) (A) (A) (A) (A) (A) (A) (A) (A) (A) (A)
                 (A) (A) (A) (A) (A) (A) (A) (A) (A) (A) (A) (A)
                 (A) (A) (A) (A) (A)
[...]
    40  H(1)              -0.00010      -0.44135      -0.15748      -0.14722
    41  C(13)              0.00008       0.08600       0.03069       0.02869
    42  H(1)              -0.00008      -0.35134      -0.12537      -0.11719
    43  H(1)              -0.00008      -0.34698      -0.12381      -0.11574
    44  H(1)              -0.00000      -0.00518      -0.00185      -0.00173
 --------------------------------------------------------
       Center         ----  Spin Dipole Couplings  ----
                      3XX-RR        3YY-RR        3ZZ-RR
 --------------------------------------------------------
     1   Atom       -0.007103      0.007315     -0.000212
     2   Atom        0.027035     -0.023998     -0.003037
     3   Atom        0.053307     -0.045730     -0.007577
     4   Atom       -0.003503      0.001360      0.002143
     5   Atom       -0.120760      0.150253     -0.029493
     6   Atom        0.596506     -0.238011     -0.358496
     7   Atom        0.022949     -0.019283     -0.003666
     8   Atom        0.007141     -0.005394     -0.001747
     9   Atom       -0.007508      0.004193      0.003315
    10   Atom       -0.000760     -0.001219      0.001979
    11   Atom        0.060354     -0.009973     -0.050381
    12   Atom        0.040017     -0.024865     -0.015152
    13   Atom        0.015998      0.009008     -0.025006
    14   Atom       -0.001032      0.003021     -0.001989
    15   Atom       -0.002113      0.005271     -0.003158
    16   Atom        0.004345     -0.002133     -0.002212
    17   Atom        0.011461     -0.010957     -0.000504
    18   Atom        0.000033     -0.000081      0.000047
    19   Atom       -0.001244      0.001555     -0.000311
    20   Atom        0.002314     -0.003715      0.001401
    21   Atom        0.006864     -0.003504     -0.003360
    22   Atom        0.001375      0.001153     -0.002528
    23   Atom        0.314364     -0.129173     -0.185191
    24   Atom       -0.004310     -0.002753      0.007063
    25   Atom        0.001885      0.001199     -0.003084
    26   Atom        0.001980      0.001398     -0.003377
    27   Atom        0.006134      0.004922     -0.011056
    28   Atom        0.005693      0.004919     -0.010611
    29   Atom        0.001354     -0.000768     -0.000586
    30   Atom        0.000813     -0.000482     -0.000330
    31   Atom        0.001770     -0.000979     -0.000791
    32   Atom        0.000712     -0.000414     -0.000297
    33   Atom        0.000264     -0.000095     -0.000169
    34   Atom        0.000316     -0.000157     -0.000159
    35   Atom        0.000288     -0.000136     -0.000152
    36   Atom        0.000330     -0.000180     -0.000150
    37   Atom        0.000282      0.000351     -0.000633
    38   Atom        0.000149      0.000274     -0.000423
    39   Atom        0.000177      0.000584     -0.000761
    40   Atom        0.000096      0.000196     -0.000292
    41   Atom        0.000205     -0.000024     -0.000181
    42   Atom        0.000202     -0.000025     -0.000177
    43   Atom        0.000188     -0.000028     -0.000160
    44   Atom        0.000235     -0.000076     -0.000159
 --------------------------------------------------------
                        XY            XZ            YZ
 --------------------------------------------------------
     1   Atom       -0.006036     -0.013549     -0.004025
     2   Atom        0.026547      0.044451      0.017783
     3   Atom        0.015746     -0.057815     -0.009406
     4   Atom        0.002445     -0.000836     -0.000084
     5   Atom       -0.077203     -0.056336      0.074919
     6   Atom       -0.442514      0.039004     -0.074808
     7   Atom        0.026813      0.036236      0.018812
     8   Atom        0.003118      0.002622      0.000252
     9   Atom        0.003232      0.006759     -0.004203
    10   Atom       -0.016775     -0.014527     -0.011394
    11   Atom       -0.008700      0.031674      0.026981
    12   Atom       -0.024385      0.004059     -0.016279
    13   Atom       -0.014372      0.007134      0.015835
    14   Atom       -0.001522     -0.000464      0.002786
    15   Atom        0.009268      0.006236      0.009252
    16   Atom        0.003517      0.004287      0.002183
    17   Atom        0.007627      0.014668      0.004944
    18   Atom        0.000002     -0.001560     -0.000211
    19   Atom        0.001602     -0.000385     -0.000425
    20   Atom       -0.000065     -0.003441      0.001916
    21   Atom        0.000266      0.005078     -0.000590
    22   Atom       -0.001271     -0.000063     -0.000586
    23   Atom        0.674087      0.599144      0.431956
    24   Atom        0.000831     -0.001294     -0.000348
    25   Atom        0.000222     -0.000923      0.000821
    26   Atom       -0.000571      0.002561     -0.000597
    27   Atom       -0.000109      0.001577     -0.001468
    28   Atom       -0.000577      0.000446     -0.001065
    29   Atom        0.000040      0.000033      0.000085
    30   Atom        0.000191      0.000202     -0.000012
    31   Atom        0.000480     -0.000151     -0.000011
    32   Atom        0.000116     -0.000068      0.000041
    33   Atom       -0.000069     -0.000026     -0.000009
    34   Atom       -0.000062      0.000042     -0.000022
    35   Atom       -0.000064      0.000038      0.000007
    36   Atom       -0.000111      0.000041      0.000004
    37   Atom       -0.001121      0.000230     -0.000107
    38   Atom       -0.000715     -0.000028     -0.000010
    39   Atom       -0.001295      0.000370     -0.000371
    40   Atom       -0.000587      0.000210     -0.000153
    41   Atom       -0.000199      0.000075     -0.000076
    42   Atom       -0.000244      0.000019     -0.000029
    43   Atom       -0.000218      0.000052     -0.000010
    44   Atom       -0.000228      0.000039     -0.000012
 --------------------------------------------------------


 ---------------------------------------------------------------------------------
              Anisotropic Spin Dipole Couplings in Principal Axis System
 ---------------------------------------------------------------------------------

       Atom             a.u.   MegaHertz   Gauss  10(-4) cm-1        Axes

              Baa    -0.0196    -2.628    -0.938    -0.877  0.7651  0.2598  0.5891
     1 C(13)  Bbb     0.0091     1.215     0.434     0.405  0.0373  0.8955 -0.4434
              Bcc     0.0105     1.413     0.504     0.471 -0.6428  0.3612  0.6755
 
              Baa    -0.0359    -4.813    -1.718    -1.606 -0.5988  0.6604  0.4530
     2 C(13)  Bbb    -0.0339    -4.553    -1.625    -1.519 -0.2167 -0.6782  0.7022
              Bcc     0.0698     9.366     3.342     3.124  0.7710  0.3223  0.5492
 
              Baa    -0.0482    -1.976    -0.705    -0.659 -0.1216  0.9910  0.0563
     3 S(33)  Bbb    -0.0425    -1.741    -0.621    -0.581  0.5150  0.0145  0.8571
              Bcc     0.0907     3.717     1.326     1.240  0.8485  0.1333 -0.5121
 
              Baa    -0.0046    -0.617    -0.220    -0.206  0.9202 -0.3759  0.1094
     4 C(13)  Bbb     0.0019     0.255     0.091     0.085  0.1628  0.6215  0.7663
              Bcc     0.0027     0.363     0.130     0.121  0.3560  0.6873 -0.6332
 
              Baa    -0.1536   -20.605    -7.353    -6.873  0.9314  0.1556  0.3290
     5 C(13)  Bbb    -0.0500    -6.712    -2.395    -2.239 -0.2392 -0.4197  0.8756
              Bcc     0.2036    27.318     9.748     9.112 -0.2743  0.8942  0.3537
 
              Baa    -0.4584   -61.507   -21.947   -20.516  0.3234  0.8136  0.4832
     6 C(13)  Bbb    -0.3328   -44.664   -15.937   -14.898 -0.2386 -0.4240  0.8737
              Bcc     0.7912   106.171    37.884    35.415  0.9157 -0.3978  0.0570
 
              Baa    -0.0326    -4.369    -1.559    -1.457 -0.2965  0.9266 -0.2315
     7 C(13)  Bbb    -0.0290    -3.886    -1.387    -1.296 -0.5787  0.0185  0.8153
              Bcc     0.0615     8.256     2.946     2.754  0.7597  0.3757  0.5307
 
              Baa    -0.0062    -0.826    -0.295    -0.276 -0.2441  0.9656  0.0899
     8 C(13)  Bbb    -0.0024    -0.319    -0.114    -0.106 -0.2183 -0.1450  0.9650
              Bcc     0.0085     1.146     0.409     0.382  0.9449  0.2159  0.2462
 
              Baa    -0.0122    -6.484    -2.314    -2.163  0.8483 -0.2828 -0.4476
     9 H(1)   Bbb     0.0037     1.989     0.710     0.663  0.4892  0.7419  0.4585
              Bcc     0.0084     4.495     1.604     1.499  0.2024 -0.6079  0.7678
 
              Baa    -0.0287    -3.855    -1.376    -1.286  0.6215  0.5916  0.5135
    10 C(13)  Bbb     0.0119     1.595     0.569     0.532 -0.0050 -0.6525  0.7578
              Bcc     0.0168     2.260     0.807     0.754  0.7834 -0.4736 -0.4026
 
              Baa    -0.0718    -9.631    -3.437    -3.213 -0.2378 -0.4166  0.8775
    11 C(13)  Bbb     0.0030     0.399     0.142     0.133 -0.0873  0.9089  0.4078
              Bcc     0.0688     9.233     3.295     3.080  0.9674 -0.0204  0.2525
 
              Baa    -0.0410    -5.506    -1.965    -1.837  0.2280  0.8399  0.4925
    12 C(13)  Bbb    -0.0084    -1.132    -0.404    -0.377 -0.2862 -0.4257  0.8584
              Bcc     0.0495     6.638     2.368     2.214  0.9306 -0.3367  0.1433
 
              Baa    -0.0342    -4.589    -1.637    -1.531 -0.2410 -0.4037  0.8826
    13 C(13)  Bbb     0.0065     0.872     0.311     0.291  0.6183  0.6371  0.4602
              Bcc     0.0277     3.717     1.326     1.240  0.7481 -0.6566 -0.0960
 
              Baa    -0.0033    -1.735    -0.619    -0.579 -0.1031 -0.4246  0.8995
    14 H(1)   Bbb    -0.0014    -0.772    -0.275    -0.257  0.9585  0.1993  0.2040
              Bcc     0.0047     2.507     0.894     0.836 -0.2659  0.8832  0.3864
 
              Baa    -0.0092    -4.891    -1.745    -1.631 -0.2370 -0.4117  0.8799
    15 H(1)   Bbb    -0.0084    -4.480    -1.599    -1.494  0.8367 -0.5468 -0.0305
              Bcc     0.0176     9.371     3.344     3.126  0.4937  0.7291  0.4741
 
              Baa    -0.0045    -2.411    -0.860    -0.804 -0.2528 -0.4231  0.8701
    16 H(1)   Bbb    -0.0036    -1.922    -0.686    -0.641 -0.5032  0.8256  0.2553
              Bcc     0.0081     4.333     1.546     1.445  0.8264  0.3732  0.4217
 
              Baa    -0.0133    -1.791    -0.639    -0.597 -0.2375  0.9662 -0.1007
    17 C(13)  Bbb    -0.0104    -1.390    -0.496    -0.464 -0.5460 -0.0470  0.8365
              Bcc     0.0237     3.181     1.135     1.061  0.8034  0.2536  0.5387
 
              Baa    -0.0015    -0.818    -0.292    -0.273  0.7016  0.1012  0.7053
    18 H(1)   Bbb    -0.0001    -0.042    -0.015    -0.014 -0.1346  0.9909 -0.0083
              Bcc     0.0016     0.861     0.307     0.287 -0.6997 -0.0891  0.7088
 
              Baa    -0.0020    -1.062    -0.379    -0.354  0.9108 -0.3986  0.1077
    19 H(1)   Bbb    -0.0004    -0.215    -0.077    -0.072 -0.0166  0.2253  0.9742
              Bcc     0.0024     1.277     0.456     0.426  0.4125  0.8890 -0.1986
 
              Baa    -0.0046    -2.430    -0.867    -0.810 -0.1914  0.8967 -0.3992
    20 H(1)   Bbb    -0.0010    -0.516    -0.184    -0.172  0.6613  0.4183  0.6226
              Bcc     0.0055     2.945     1.051     0.982  0.7252 -0.1448 -0.6731
 
              Baa    -0.0056    -3.014    -1.075    -1.005 -0.3652  0.2889  0.8850
    21 H(1)   Bbb    -0.0033    -1.765    -0.630    -0.589  0.1086  0.9574 -0.2677
              Bcc     0.0090     4.779     1.705     1.594  0.9246  0.0017  0.3810
 
              Baa    -0.0026    -1.407    -0.502    -0.469  0.0711  0.1757  0.9819
    22 H(1)   Bbb     0.0001     0.039     0.014     0.013  0.6832  0.7086 -0.1763
              Bcc     0.0026     1.368     0.488     0.456  0.7268 -0.6834  0.0697
 
              Baa    -0.6171   -25.299    -9.027    -8.439 -0.5980  0.8010  0.0284
    23 S(33)  Bbb    -0.5799   -23.774    -8.483    -7.930 -0.3629 -0.3021  0.8815
              Bcc     1.1969    49.074    17.511    16.369  0.7147  0.5168  0.4713
 
              Baa    -0.0048    -0.640    -0.228    -0.213  0.9259 -0.3668  0.0905
    24 C(13)  Bbb    -0.0025    -0.330    -0.118    -0.110  0.3601  0.9292  0.0829
              Bcc     0.0072     0.970     0.346     0.324 -0.1145 -0.0441  0.9924
 
              Baa    -0.0034    -0.457    -0.163    -0.152  0.1764 -0.1810  0.9675
    25 C(13)  Bbb     0.0013     0.181     0.065     0.060 -0.0680  0.9784  0.1954
              Bcc     0.0021     0.276     0.099     0.092  0.9820  0.1002 -0.1603
 
              Baa    -0.0044    -0.594    -0.212    -0.198 -0.3661  0.0593  0.9287
    26 C(13)  Bbb     0.0011     0.150     0.054     0.050  0.3645  0.9274  0.0844
              Bcc     0.0033     0.444     0.158     0.148  0.8562 -0.3694  0.3611
 
              Baa    -0.0113    -0.437    -0.156    -0.146 -0.0890  0.0890  0.9920
    27 N(14)  Bbb     0.0050     0.193     0.069     0.064  0.1932  0.9786 -0.0705
              Bcc     0.0063     0.244     0.087     0.081  0.9771 -0.1854  0.1043
 
              Baa    -0.0107    -0.412    -0.147    -0.138 -0.0248  0.0671  0.9974
    28 N(14)  Bbb     0.0046     0.179     0.064     0.060  0.4969  0.8666 -0.0460
              Bcc     0.0060     0.233     0.083     0.078  0.8675 -0.4945  0.0548
 
              Baa    -0.0008    -0.108    -0.038    -0.036 -0.0117  0.9310 -0.3648
    29 C(13)  Bbb    -0.0006    -0.074    -0.027    -0.025 -0.0237  0.3645  0.9309
              Bcc     0.0014     0.182     0.065     0.061  0.9997  0.0195  0.0178
 
              Baa    -0.0005    -0.278    -0.099    -0.093 -0.1739  0.9537  0.2455
    30 H(1)   Bbb    -0.0004    -0.188    -0.067    -0.063 -0.1219 -0.2683  0.9556
              Bcc     0.0009     0.466     0.166     0.155  0.9772  0.1362  0.1629
 
              Baa    -0.0011    -0.566    -0.202    -0.189 -0.1699  0.9838 -0.0563
    31 H(1)   Bbb    -0.0008    -0.426    -0.152    -0.142  0.0466  0.0651  0.9968
              Bcc     0.0019     0.993     0.354     0.331  0.9844  0.1668 -0.0569
 
              Baa    -0.0004    -0.236    -0.084    -0.079 -0.1130  0.9410 -0.3190
    32 H(1)   Bbb    -0.0003    -0.152    -0.054    -0.051  0.0268  0.3239  0.9457
              Bcc     0.0007     0.388     0.138     0.129  0.9932  0.0983 -0.0618
 
              Baa    -0.0002    -0.023    -0.008    -0.008  0.0882  0.1911  0.9776
    33 C(13)  Bbb    -0.0001    -0.014    -0.005    -0.005  0.1665  0.9648 -0.2037
              Bcc     0.0003     0.037     0.013     0.012  0.9821 -0.1807 -0.0533
 
              Baa    -0.0002    -0.096    -0.034    -0.032  0.0338  0.7326  0.6798
    34 H(1)   Bbb    -0.0001    -0.079    -0.028    -0.026 -0.1551 -0.6681  0.7277
              Bcc     0.0003     0.175     0.062     0.058  0.9873 -0.1301  0.0911
 
              Baa    -0.0002    -0.087    -0.031    -0.029 -0.1483 -0.5498  0.8220
    35 H(1)   Bbb    -0.0001    -0.073    -0.026    -0.024  0.0734  0.8228  0.5636
              Bcc     0.0003     0.161     0.057     0.054  0.9862 -0.1439  0.0817
 
              Baa    -0.0002    -0.110    -0.039    -0.037  0.2142  0.9521 -0.2182
    36 H(1)   Bbb    -0.0002    -0.080    -0.029    -0.027 -0.0292  0.2295  0.9729
              Bcc     0.0004     0.190     0.068     0.063  0.9763 -0.2020  0.0770
 
              Baa    -0.0008    -0.114    -0.041    -0.038  0.6784  0.5961 -0.4293
    37 C(13)  Bbb    -0.0006    -0.083    -0.030    -0.028  0.2380  0.3746  0.8961
              Bcc     0.0015     0.197     0.070     0.066 -0.6950  0.7101 -0.1122
 
              Baa    -0.0005    -0.274    -0.098    -0.092  0.7071  0.6445  0.2909
    38 H(1)   Bbb    -0.0004    -0.221    -0.079    -0.074 -0.2088 -0.2027  0.9567
              Bcc     0.0009     0.496     0.177     0.165 -0.6756  0.7372  0.0087
 
              Baa    -0.0009    -0.506    -0.181    -0.169  0.7391  0.5211 -0.4268
    39 H(1)   Bbb    -0.0008    -0.453    -0.162    -0.151  0.2128  0.4206  0.8820
              Bcc     0.0018     0.959     0.342     0.320 -0.6391  0.7427 -0.2000
 
              Baa    -0.0005    -0.248    -0.089    -0.083  0.7305  0.5571 -0.3948
    40 H(1)   Bbb    -0.0003    -0.176    -0.063    -0.059  0.1534  0.4295  0.8899
              Bcc     0.0008     0.424     0.151     0.141 -0.6654  0.7107 -0.2283
 
              Baa    -0.0002    -0.028    -0.010    -0.009  0.0269  0.4003  0.9160
    41 C(13)  Bbb    -0.0001    -0.017    -0.006    -0.006  0.5375  0.7668 -0.3509
              Bcc     0.0003     0.046     0.016     0.015  0.8429 -0.5017  0.1946
 
              Baa    -0.0002    -0.103    -0.037    -0.034  0.3568  0.6329  0.6872
    42 H(1)   Bbb    -0.0002    -0.088    -0.032    -0.029 -0.4061 -0.5573  0.7242
              Bcc     0.0004     0.192     0.068     0.064  0.8413 -0.5374  0.0582
 
              Baa    -0.0002    -0.098    -0.035    -0.033 -0.4218 -0.5444  0.7251
    43 H(1)   Bbb    -0.0001    -0.077    -0.028    -0.026  0.3226  0.6572  0.6811
              Bcc     0.0003     0.175     0.062     0.058  0.8474 -0.5212  0.1016
 
              Baa    -0.0002    -0.106    -0.038    -0.035  0.4702  0.8601 -0.1980
    44 H(1)   Bbb    -0.0002    -0.086    -0.031    -0.029  0.0255  0.2110  0.9771
              Bcc     0.0004     0.191     0.068     0.064  0.8822 -0.4645  0.0773
 

 ---------------------------------------------------------------------------------

 No NMR shielding tensors so no spin-rotation constants.
 Leave Link  601 at Tue Jan 26 20:50:48 2021, MaxMem=  4026531840 cpu:               7.5 elap:               1.1
 (Enter /opt/ohpc/pub/libs/gaussian/g16-A.03/sandybridge/g16/l9999.exe)

 Test job not archived.
 1\1\GINC-GNODE020\SP\ULC-wHPBE\TZVP\C19H21N2S2(2+,2)\RDU230\26-Jan-202
 1\0\\#P LC-wHPBE/TZVP iop(3/107=0171200000, 3/108=0171200000) scf=(con
 ver=6,fermi,ndamp=35,noincfock,novaracc,vshift=500,xqc)\\H21 C19 S2 N2
 \\2,2\C,0,5.141333,0.341453,-1.428653\C,0,4.24633,0.793113,-0.45792\S,
 0,3.527427,2.438238,-0.612926\C,0,3.85258,-0.085202,0.570411\C,0,0.863
 708,-0.787434,0.770822\C,0,1.152588,-1.949541,0.292605\C,0,5.641454,-0
 .963707,-1.38032\C,0,4.337968,-1.397272,0.611701\H,0,2.805747,-0.53668
 6,2.620663\C,0,-0.32759,-0.104924,0.757243\C,0,0.161049,-2.709273,-0.3
 36618\C,0,-1.110551,-2.125038,-0.416532\C,0,-1.366563,-0.836811,0.1161
 44\H,0,-0.506361,0.876389,1.203135\H,0,0.333628,-3.701573,-0.760587\H,
 0,-1.915541,-2.656529,-0.930176\C,0,5.242141,-1.827604,-0.363151\H,0,5
 .450891,1.02542,-2.21936\H,0,4.15948,2.9901,0.460876\H,0,6.34791,-1.29
 8886,-2.140548\H,0,4.022912,-2.077842,1.402557\H,0,5.625918,-2.84765,-
 0.32369\S,0,2.641644,0.489998,1.741439\C,0,-2.680648,-0.257498,0.00376
 4\C,0,-4.05427,-0.413992,-0.132503\C,0,-3.489875,0.870167,-0.052158\N,
 0,-5.09974,-1.211802,-0.243141\N,0,-3.607387,2.185094,-0.049886\C,0,-4
 .95887,-2.66296,-0.086881\H,0,-5.24939,-3.175063,-1.01565\H,0,-3.92190
 6,-2.911213,0.159186\H,0,-5.607057,-3.011636,0.730112\C,0,-6.456302,-0
 .708508,-0.463149\H,0,-6.932296,-1.289768,-1.265044\H,0,-7.06234,-0.80
 4638,0.450448\H,0,-6.424137,0.340187,-0.774131\C,0,-2.422516,3.047015,
 -0.104701\H,0,-2.374233,3.683098,0.791036\H,0,-1.518165,2.434104,-0.16
 8534\H,0,-2.472812,3.689712,-0.995626\C,0,-4.905946,2.85982,-0.071613\
 H,0,-4.903422,3.671788,0.668659\H,0,-5.109136,3.28812,-1.064906\H,0,-5
 .70105,2.156915,0.195603\\Version=EM64L-G16RevA.03\State=2-A\HF=-1640.
 9578885\S2=0.786965\S2-1=0.\S2A=0.750515\RMSD=8.904e-08\Dipole=-2.4916
 077,-0.4613154,0.5905097\Quadrupole=75.1371566,-22.7472995,-52.3898571
 ,-6.600909,4.6384627,3.6812636\PG=C01 [X(C19H21N2S2)]\\@


 RESEARCH IS WHAT I AM DOING WHEN I DON'T KNOW WHAT I AM DOING.
     -- WERNER VON BRAUN
 Job cpu time:       0 days  5 hours 35 minutes 10.9 seconds.
 Elapsed time:       0 days  0 hours 41 minutes 58.5 seconds.
 File lengths (MBytes):  RWF=    472 Int=      0 D2E=      0 Chk=     28 Scr=      8
 Normal termination of Gaussian 16 at Tue Jan 26 20:50:49 2021.
