 Entering Gaussian System, Link 0=g16
 Input=mol_ta_cp_half_tune_n2.gjf
 Output=mol_ta_cp_half_tune_n2.log
 Initial command:
 /opt/ohpc/pub/libs/gaussian/g16-A.03/sandybridge/g16/l1.exe "/mnt/gpfs2_4m/scratch/rdu230/ondemand/projects/init_structures/gaussian/wtuning/mol_ta_cp_half/tuning_mol_ta_cp_half_ocycle0/Gau-123104.inp" -scrdir="/mnt/gpfs2_4m/scratch/rdu230/ondemand/projects/init_structures/gaussian/wtuning/mol_ta_cp_half/tuning_mol_ta_cp_half_ocycle0/"
 Entering Link 1 = /opt/ohpc/pub/libs/gaussian/g16-A.03/sandybridge/g16/l1.exe PID=    123105.
  
 Copyright (c) 1988,1990,1992,1993,1995,1998,2003,2009,2016,
            Gaussian, Inc.  All Rights Reserved.
  
 This is part of the Gaussian(R) 16 program.  It is based on
 the Gaussian(R) 09 system (copyright 2009, Gaussian, Inc.),
 the Gaussian(R) 03 system (copyright 2003, Gaussian, Inc.),
 the Gaussian(R) 98 system (copyright 1998, Gaussian, Inc.),
 the Gaussian(R) 94 system (copyright 1995, Gaussian, Inc.),
 the Gaussian 92(TM) system (copyright 1992, Gaussian, Inc.),
 the Gaussian 90(TM) system (copyright 1990, Gaussian, Inc.),
 the Gaussian 88(TM) system (copyright 1988, Gaussian, Inc.),
 the Gaussian 86(TM) system (copyright 1986, Carnegie Mellon
 University), and the Gaussian 82(TM) system (copyright 1983,
 Carnegie Mellon University). Gaussian is a federally registered
 trademark of Gaussian, Inc.
  
 This software contains proprietary and confidential information,
 including trade secrets, belonging to Gaussian, Inc.
  
 This software is provided under written license and may be
 used, copied, transmitted, or stored only in accord with that
 written license.
  
 The following legend is applicable only to US Government
 contracts under FAR:
  
                    RESTRICTED RIGHTS LEGEND
  
 Use, reproduction and disclosure by the US Government is
 subject to restrictions as set forth in subparagraphs (a)
 and (c) of the Commercial Computer Software - Restricted
 Rights clause in FAR 52.227-19.
  
 Gaussian, Inc.
 340 Quinnipiac St., Bldg. 40, Wallingford CT 06492
  
  
 ---------------------------------------------------------------
 Warning -- This program may not be used in any manner that
 competes with the business of Gaussian, Inc. or will provide
 assistance to any competitor of Gaussian, Inc.  The licensee
 of this program is prohibited from giving any competitor of
 Gaussian, Inc. access to this program.  By using this program,
 the user acknowledges that Gaussian, Inc. is engaged in the
 business of creating and licensing software in the field of
 computational chemistry and represents and warrants to the
 licensee that it is not a competitor of Gaussian, Inc. and that
 it will not use this program in any manner prohibited above.
 ---------------------------------------------------------------
  

 Cite this work as:
 Gaussian 16, Revision A.03,
 M. J. Frisch, G. W. Trucks, H. B. Schlegel, G. E. Scuseria, 
 M. A. Robb, J. R. Cheeseman, G. Scalmani, V. Barone, 
 G. A. Petersson, H. Nakatsuji, X. Li, M. Caricato, A. V. Marenich, 
 J. Bloino, B. G. Janesko, R. Gomperts, B. Mennucci, H. P. Hratchian, 
 J. V. Ortiz, A. F. Izmaylov, J. L. Sonnenberg, D. Williams-Young, 
 F. Ding, F. Lipparini, F. Egidi, J. Goings, B. Peng, A. Petrone, 
 T. Henderson, D. Ranasinghe, V. G. Zakrzewski, J. Gao, N. Rega, 
 G. Zheng, W. Liang, M. Hada, M. Ehara, K. Toyota, R. Fukuda, 
 J. Hasegawa, M. Ishida, T. Nakajima, Y. Honda, O. Kitao, H. Nakai, 
 T. Vreven, K. Throssell, J. A. Montgomery, Jr., J. E. Peralta, 
 F. Ogliaro, M. J. Bearpark, J. J. Heyd, E. N. Brothers, K. N. Kudin, 
 V. N. Staroverov, T. A. Keith, R. Kobayashi, J. Normand, 
 K. Raghavachari, A. P. Rendell, J. C. Burant, S. S. Iyengar, 
 J. Tomasi, M. Cossi, J. M. Millam, M. Klene, C. Adamo, R. Cammi, 
 J. W. Ochterski, R. L. Martin, K. Morokuma, O. Farkas, 
 J. B. Foresman, and D. J. Fox, Gaussian, Inc., Wallingford CT, 2016.
 
 ******************************************
 Gaussian 16:  EM64L-G16RevA.03 25-Dec-2016
                26-Jan-2021 
 ******************************************
 %mem=30GB
 %nproc=8
 Will use up to    8 processors via shared memory.
 ----------------------------------------------------------------------
 #P LC-wHPBE/TZVP iop(3/107=0156200000, 3/108=0156200000) scf=(conver=6
 ,fermi,ndamp=35,noincfock,novaracc,vshift=500,xqc)
 ----------------------------------------------------------------------
 1/38=1,172=1/1;
 2/12=2,17=6,18=5,40=1/2;
 3/5=19,7=101,11=2,25=1,30=1,74=-71,107=156200000,108=156200000/1,2,3;
 4//1;
 5/5=100002,6=6,8=3,10=500,13=1,18=-1,22=13,38=1,93=35/2,8;
 6/7=2,8=2,9=2,10=2,28=1/1;
 99/5=1,9=1/99;
 Leave Link    1 at Tue Jan 26 16:18:23 2021, MaxMem=  4026531840 cpu:               1.6 elap:               0.2
 (Enter /opt/ohpc/pub/libs/gaussian/g16-A.03/sandybridge/g16/l101.exe)
 -------------
 H21 C19 S2 N2
 -------------
 Symbolic Z-matrix:
 Charge =  1 Multiplicity = 1
 C                     5.14133   0.34145  -1.42865 
 C                     4.24633   0.79311  -0.45792 
 S                     3.52743   2.43824  -0.61293 
 C                     3.85258  -0.0852    0.57041 
 C                     0.86371  -0.78743   0.77082 
 C                     1.15259  -1.94954   0.29261 
 C                     5.64145  -0.96371  -1.38032 
 C                     4.33797  -1.39727   0.6117 
 H                     2.80575  -0.53669   2.62066 
 C                    -0.32759  -0.10492   0.75724 
 C                     0.16105  -2.70927  -0.33662 
 C                    -1.11055  -2.12504  -0.41653 
 C                    -1.36656  -0.83681   0.11614 
 H                    -0.50636   0.87639   1.20314 
 H                     0.33363  -3.70157  -0.76059 
 H                    -1.91554  -2.65653  -0.93018 
 C                     5.24214  -1.8276   -0.36315 
 H                     5.45089   1.02542  -2.21936 
 H                     4.15948   2.9901    0.46088 
 H                     6.34791  -1.29889  -2.14055 
 H                     4.02291  -2.07784   1.40256 
 H                     5.62592  -2.84765  -0.32369 
 S                     2.64164   0.49      1.74144 
 C                    -2.68065  -0.2575    0.00376 
 C                    -4.05427  -0.41399  -0.1325 
 C                    -3.48988   0.87017  -0.05216 
 N                    -5.09974  -1.2118   -0.24314 
 N                    -3.60739   2.18509  -0.04989 
 C                    -4.95887  -2.66296  -0.08688 
 H                    -5.24939  -3.17506  -1.01565 
 H                    -3.92191  -2.91121   0.15919 
 H                    -5.60706  -3.01164   0.73011 
 C                    -6.4563   -0.70851  -0.46315 
 H                    -6.9323   -1.28977  -1.26504 
 H                    -7.06234  -0.80464   0.45045 
 H                    -6.42414   0.34019  -0.77413 
 C                    -2.42252   3.04702  -0.1047 
 H                    -2.37423   3.6831    0.79104 
 H                    -1.51817   2.4341   -0.16853 
 H                    -2.47281   3.68971  -0.99563 
 C                    -4.90595   2.85982  -0.07161 
 H                    -4.90342   3.67179   0.66866 
 H                    -5.10914   3.28812  -1.06491 
 H                    -5.70105   2.15692   0.1956 
 
 ITRead=  0  0  0  0  0  0  0  0  0  0  0  0  0  0  0  0  0  0  0  0
 ITRead=  0  0  0  0  0  0  0  0  0  0  0  0  0  0  0  0  0  0  0  0
 ITRead=  0  0  0  0
 MicOpt= -1 -1 -1 -1 -1 -1 -1 -1 -1 -1 -1 -1 -1 -1 -1 -1 -1 -1 -1 -1
 MicOpt= -1 -1 -1 -1 -1 -1 -1 -1 -1 -1 -1 -1 -1 -1 -1 -1 -1 -1 -1 -1
 MicOpt= -1 -1 -1 -1
 NAtoms=     44 NQM=       44 NQMF=       0 NMMI=      0 NMMIF=      0
                NMic=       0 NMicF=      0.
                    Isotopes and Nuclear Properties:
 (Nuclear quadrupole moments (NQMom) in fm**2, nuclear magnetic moments (NMagM)
  in nuclear magnetons)

  Atom         1           2           3           4           5           6           7           8           9          10
 IAtWgt=          12          12          32          12          12          12          12          12           1          12
 AtmWgt=  12.0000000  12.0000000  31.9720718  12.0000000  12.0000000  12.0000000  12.0000000  12.0000000   1.0078250  12.0000000
 NucSpn=           0           0           0           0           0           0           0           0           1           0
 AtZEff=  -0.0000000  -0.0000000  -0.0000000  -0.0000000  -0.0000000  -0.0000000  -0.0000000  -0.0000000  -0.0000000  -0.0000000
 NQMom=    0.0000000   0.0000000   0.0000000   0.0000000   0.0000000   0.0000000   0.0000000   0.0000000   0.0000000   0.0000000
 NMagM=    0.0000000   0.0000000   0.0000000   0.0000000   0.0000000   0.0000000   0.0000000   0.0000000   2.7928460   0.0000000
 AtZNuc=   6.0000000   6.0000000  16.0000000   6.0000000   6.0000000   6.0000000   6.0000000   6.0000000   1.0000000   6.0000000

  Atom        11          12          13          14          15          16          17          18          19          20
 IAtWgt=          12          12          12           1           1           1          12           1           1           1
 AtmWgt=  12.0000000  12.0000000  12.0000000   1.0078250   1.0078250   1.0078250  12.0000000   1.0078250   1.0078250   1.0078250
 NucSpn=           0           0           0           1           1           1           0           1           1           1
 AtZEff=  -0.0000000  -0.0000000  -0.0000000  -0.0000000  -0.0000000  -0.0000000  -0.0000000  -0.0000000  -0.0000000  -0.0000000
 NQMom=    0.0000000   0.0000000   0.0000000   0.0000000   0.0000000   0.0000000   0.0000000   0.0000000   0.0000000   0.0000000
 NMagM=    0.0000000   0.0000000   0.0000000   2.7928460   2.7928460   2.7928460   0.0000000   2.7928460   2.7928460   2.7928460
 AtZNuc=   6.0000000   6.0000000   6.0000000   1.0000000   1.0000000   1.0000000   6.0000000   1.0000000   1.0000000   1.0000000

  Atom        21          22          23          24          25          26          27          28          29          30
 IAtWgt=           1           1          32          12          12          12          14          14          12           1
 AtmWgt=   1.0078250   1.0078250  31.9720718  12.0000000  12.0000000  12.0000000  14.0030740  14.0030740  12.0000000   1.0078250
 NucSpn=           1           1           0           0           0           0           2           2           0           1
 AtZEff=  -0.0000000  -0.0000000  -0.0000000  -0.0000000  -0.0000000  -0.0000000  -0.0000000  -0.0000000  -0.0000000  -0.0000000
 NQMom=    0.0000000   0.0000000   0.0000000   0.0000000   0.0000000   0.0000000   2.0440000   2.0440000   0.0000000   0.0000000
 NMagM=    2.7928460   2.7928460   0.0000000   0.0000000   0.0000000   0.0000000   0.4037610   0.4037610   0.0000000   2.7928460
 AtZNuc=   1.0000000   1.0000000  16.0000000   6.0000000   6.0000000   6.0000000   7.0000000   7.0000000   6.0000000   1.0000000

  Atom        31          32          33          34          35          36          37          38          39          40
 IAtWgt=           1           1          12           1           1           1          12           1           1           1
 AtmWgt=   1.0078250   1.0078250  12.0000000   1.0078250   1.0078250   1.0078250  12.0000000   1.0078250   1.0078250   1.0078250
 NucSpn=           1           1           0           1           1           1           0           1           1           1
 AtZEff=  -0.0000000  -0.0000000  -0.0000000  -0.0000000  -0.0000000  -0.0000000  -0.0000000  -0.0000000  -0.0000000  -0.0000000
 NQMom=    0.0000000   0.0000000   0.0000000   0.0000000   0.0000000   0.0000000   0.0000000   0.0000000   0.0000000   0.0000000
 NMagM=    2.7928460   2.7928460   0.0000000   2.7928460   2.7928460   2.7928460   0.0000000   2.7928460   2.7928460   2.7928460
 AtZNuc=   1.0000000   1.0000000   6.0000000   1.0000000   1.0000000   1.0000000   6.0000000   1.0000000   1.0000000   1.0000000

  Atom        41          42          43          44
 IAtWgt=          12           1           1           1
 AtmWgt=  12.0000000   1.0078250   1.0078250   1.0078250
 NucSpn=           0           1           1           1
 AtZEff=  -0.0000000  -0.0000000  -0.0000000  -0.0000000
 NQMom=    0.0000000   0.0000000   0.0000000   0.0000000
 NMagM=    0.0000000   2.7928460   2.7928460   2.7928460
 AtZNuc=   6.0000000   1.0000000   1.0000000   1.0000000
 Leave Link  101 at Tue Jan 26 16:18:23 2021, MaxMem=  4026531840 cpu:               0.8 elap:               0.1
 (Enter /opt/ohpc/pub/libs/gaussian/g16-A.03/sandybridge/g16/l202.exe)
                          Input orientation:                          
 ---------------------------------------------------------------------
 Center     Atomic      Atomic             Coordinates (Angstroms)
 Number     Number       Type             X           Y           Z
 ---------------------------------------------------------------------
      1          6           0        5.141333    0.341453   -1.428653
      2          6           0        4.246330    0.793113   -0.457920
      3         16           0        3.527427    2.438238   -0.612926
      4          6           0        3.852580   -0.085202    0.570411
      5          6           0        0.863708   -0.787434    0.770822
      6          6           0        1.152588   -1.949541    0.292605
      7          6           0        5.641454   -0.963707   -1.380320
      8          6           0        4.337968   -1.397272    0.611701
      9          1           0        2.805747   -0.536686    2.620663
     10          6           0       -0.327590   -0.104924    0.757243
     11          6           0        0.161049   -2.709273   -0.336618
     12          6           0       -1.110551   -2.125038   -0.416532
     13          6           0       -1.366563   -0.836811    0.116144
     14          1           0       -0.506361    0.876389    1.203135
     15          1           0        0.333628   -3.701573   -0.760587
     16          1           0       -1.915541   -2.656529   -0.930176
     17          6           0        5.242141   -1.827604   -0.363151
     18          1           0        5.450891    1.025420   -2.219360
     19          1           0        4.159480    2.990100    0.460876
     20          1           0        6.347910   -1.298886   -2.140548
     21          1           0        4.022912   -2.077842    1.402557
     22          1           0        5.625918   -2.847650   -0.323690
     23         16           0        2.641644    0.489998    1.741439
     24          6           0       -2.680648   -0.257498    0.003764
     25          6           0       -4.054270   -0.413992   -0.132503
     26          6           0       -3.489875    0.870167   -0.052158
     27          7           0       -5.099740   -1.211802   -0.243141
     28          7           0       -3.607387    2.185094   -0.049886
     29          6           0       -4.958870   -2.662960   -0.086881
     30          1           0       -5.249390   -3.175063   -1.015650
     31          1           0       -3.921906   -2.911213    0.159186
     32          1           0       -5.607057   -3.011636    0.730112
     33          6           0       -6.456302   -0.708508   -0.463149
     34          1           0       -6.932296   -1.289768   -1.265044
     35          1           0       -7.062340   -0.804638    0.450448
     36          1           0       -6.424137    0.340187   -0.774131
     37          6           0       -2.422516    3.047015   -0.104701
     38          1           0       -2.374233    3.683098    0.791036
     39          1           0       -1.518165    2.434104   -0.168534
     40          1           0       -2.472812    3.689712   -0.995626
     41          6           0       -4.905946    2.859820   -0.071613
     42          1           0       -4.903422    3.671788    0.668659
     43          1           0       -5.109136    3.288120   -1.064906
     44          1           0       -5.701050    2.156915    0.195603
 ---------------------------------------------------------------------
                    Distance matrix (angstroms):
                    1          2          3          4          5
     1  C    0.000000
     2  C    1.395475   0.000000
     3  S    2.768864   1.802022   0.000000
     4  C    2.416439   1.408524   2.806022   0.000000
     5  C    4.940663   3.930657   4.406259   3.076792   0.000000
     6  C    4.911361   4.201985   5.070745   3.292855   1.289432
     7  C    1.398535   2.425615   4.078141   2.788762   5.242646
     8  C    2.798500   2.439318   4.107046   1.399584   3.530964
     9  H    4.756369   3.649838   4.452762   2.345897   2.693752
    10  C    5.906481   4.817036   4.817281   4.184390   1.373024
    11  C    5.941607   5.382466   6.156762   4.619075   2.326718
    12  C    6.796618   6.100286   6.509447   5.455974   2.663962
    13  C    6.791717   5.872884   5.933686   5.292516   2.324898
    14  H    6.253712   5.035287   4.691364   4.508366   2.198247
    15  H    6.317151   5.966829   6.922387   5.218498   3.334427
    16  H    7.683479   7.077550   7.462118   6.491125   3.756479
    17  C    2.418732   2.805134   4.604350   2.416275   4.640962
    18  H    1.090346   2.146533   2.876873   3.401603   5.768004
    19  H    3.398483   2.382956   1.362752   3.092518   5.022743
    20  H    2.157159   3.409448   4.924921   3.879304   6.230099
    21  H    3.888393   3.428363   4.970177   2.166124   3.470564
    22  H    3.409713   3.895695   5.694553   3.402244   5.302932
    23  S    4.039801   2.739357   3.181711   1.780036   2.394783
    24  C    7.974581   7.021393   6.796138   6.560019   3.664924
    25  C    9.317179   8.394222   8.114687   7.944839   5.014176
    26  C    8.756257   7.747222   7.212200   7.430476   4.730605
    27  N   10.425815   9.561111   9.374836   9.059532   6.063903
    28  N    9.046553   7.986550   7.161471   7.822411   5.431406
    29  C   10.622662   9.839605   9.915452   9.204266   6.177027
    30  H   10.977412  10.306609  10.426114   9.742109   6.801634
    31  H    9.759271   8.990157   9.203551   8.282396   5.271303
    32  H   11.464352  10.629053  10.721179   9.903245   6.842480
    33  C   11.685023  10.807462  10.468968  10.379297   7.423709
    34  H   12.184423  11.399628  11.123358  11.006063   8.073089
    35  H   12.400572  11.457048  11.126103  10.939262   7.932539
    36  H   11.583976  10.684755  10.171599  10.373026   7.534659
    37  C    8.141543   7.048287   6.002560   7.045807   5.125311
    38  H    8.519234   7.331013   6.192768   7.281618   5.519993
    39  H    7.093377   6.000500   5.065126   5.978114   4.115096
    40  H    8.329079   7.336640   6.141296   7.530806   5.856410
    41  C   10.446604   9.390669   8.461237   9.262674   6.877577
    42  H   10.788278   9.657842   8.616456   9.528494   7.290740
    43  H   10.671798   9.701455   8.690041   9.714212   7.460221
    44  H   11.112667  10.061681   9.268098   9.820357   7.217764
                    6          7          8          9         10
     6  C    0.000000
     7  C    4.890855   0.000000
     8  C    3.248610   2.419752   0.000000
     9  H    3.185741   4.922545   2.669127   0.000000
    10  C    2.410275   6.398138   4.843426   3.671043   0.000000
    11  C    1.398665   5.845610   4.479655   4.523281   2.866694
    12  C    2.378124   6.918609   5.592251   5.204306   2.464069
    13  C    2.759607   7.167134   5.753379   4.875537   1.423422
    14  H    3.401038   6.917790   5.383944   3.869913   1.092590
    15  H    2.202164   6.004415   4.819514   5.249832   3.959407
    16  H    3.377638   7.757348   6.562735   6.276365   3.446688
    17  C    4.143589   1.392983   1.397516   4.062712   5.936734
    18  H    5.799635   2.167240   3.888823   5.732607   6.597627
    19  H    5.785306   4.606391   4.393591   4.351493   5.459011
    20  H    5.773643   1.090583   3.409461   5.983059   7.374621
    21  H    3.080132   3.406667   1.089903   2.310938   4.820343
    22  H    4.604031   2.160081   2.153455   4.686484   6.643434
    23  S    3.204334   4.567001   2.777699   1.361633   3.184168
    24  C    4.200016   8.465920   7.136501   6.084952   2.475458
    25  C    5.445181   9.791134   8.482354   7.392889   3.843867
    26  C    5.442617   9.407884   8.176620   6.982697   3.406755
    27  N    6.318456  10.804072   9.478158   8.435276   4.999936
    28  N    6.314259   9.860328   8.740693   7.461113   4.080773
    29  C    6.164649  10.813293   9.408569   8.493592   5.357691
    30  H    6.648215  11.119063   9.885659   9.223288   6.065725
    31  H    5.166537   9.880319   8.409656   7.547090   4.599134
    32  H    6.856549  11.626562  10.075898   8.970777   6.026814
    33  C    7.746388  12.135157  10.869497   9.763451   6.278119
    34  H    8.259959  12.578505  11.425961  10.511676   7.008255
    35  H    8.295828  12.836019  11.416840  10.107461   6.777948
    36  H    7.986710  12.150971  10.989186   9.873413   6.301676
    37  C    6.156687   9.096192   8.122134   6.899656   3.881544
    38  H    6.664347   9.516240   8.419974   6.927215   4.305694
    39  H    5.153825   8.017087   7.041484   5.941500   2.953167
    40  H    6.826730   9.361817   8.651453   7.668323   4.698275
    41  C    7.743929  11.295119  10.199985   8.846175   5.517069
    42  H    8.271397  11.699596  10.540489   8.997381   5.933771
    43  H    8.275573  11.565150  10.677625   9.531943   6.139720
    44  H    7.990291  11.869044  10.657733   9.246729   5.857084
                   11         12         13         14         15
    11  C    0.000000
    12  C    1.401672   0.000000
    13  C    2.458598   1.417327   0.000000
    14  H    3.958945   3.463659   2.203758   0.000000
    15  H    1.092791   2.165523   3.444730   5.051685   0.000000
    16  H    2.160398   1.092850   2.169686   4.360999   2.485888
    17  C    5.157086   6.359875   6.699729   6.542943   5.269081
    18  H    6.743521   7.498540   7.443129   6.872011   7.117504
    19  H    7.007589   7.396466   6.730620   5.175789   7.804332
    20  H    6.597015   7.699571   8.051041   7.930515   6.621842
    21  H    4.282221   5.446444   5.678156   5.411244   4.574550
    22  H    5.466636   6.775751   7.289151   7.335156   5.378513
    23  S    4.550495   5.057096   4.524127   3.216987   5.399661
    24  C    3.768594   2.475795   1.440504   2.729783   4.640231
    25  C    4.804050   3.416699   2.732100   4.004581   5.518725
    26  C    5.120796   3.842552   2.729570   3.236843   6.001821
    27  N    5.470563   4.096058   3.769126   5.248941   5.999016
    28  N    6.183701   4.994583   3.765736   3.591536   7.119659
    29  C    5.126215   3.899691   4.034936   5.832321   5.435359
    30  H    5.472741   4.311784   4.671694   6.620694   5.613587
    31  H    4.117903   2.975439   3.291622   5.205930   4.424954
    32  H    5.873703   4.724343   4.805061   6.430987   6.163598
    33  C    6.914362   5.530442   5.124206   6.378887   7.426308
    34  H    7.293320   5.942252   5.752411   7.216425   7.672349
    35  H    7.511621   6.157833   5.705670   6.809791   8.034873
    36  H    7.270165   5.868510   5.268488   6.262361   7.874223
    37  C    6.313750   5.344962   4.030870   3.177059   7.319150
    38  H    6.968620   6.065440   4.679792   3.396526   8.017070
    39  H    5.413163   4.584041   3.286778   2.309047   6.436319
    40  H    6.951153   6.000202   4.790535   4.076305   7.909642
    41  C    7.533888   6.274775   5.121286   4.991526   8.424945
    42  H    8.208373   7.011897   5.756918   5.237754   9.156194
    43  H    8.017105   6.761017   5.693574   5.669744   8.864090
    44  H    7.637228   6.307338   5.268443   5.444232   8.464840
                   16         17         18         19         20
    16  H    0.000000
    17  C    7.227797   0.000000
    18  H    8.335650   3.410108   0.000000
    19  H    8.409835   5.006141   3.565302   0.000000
    20  H    8.461254   2.159029   2.492640   5.472845   0.000000
    21  H    6.406383   2.160292   4.978719   5.156496   4.308826
    22  H    7.568220   1.090567   4.315654   6.070034   2.494176
    23  S    6.148666   4.069787   4.885333   3.192832   5.657414
    24  C    2.685700   8.085199   8.527021   7.585723   9.337956
    25  C    3.199909   9.406102   9.837427   8.910984  10.631116
    26  C    3.960685   9.144550   9.200987   7.954241  10.288254
    27  N    3.563478  10.360894  10.964781  10.192388  11.604156
    28  N    5.203707   9.721832   9.386366   7.825160  10.752531
    29  C    3.158012  10.238885  11.247877  10.742506  11.572447
    30  H    3.375016  10.597812  11.558070  11.345316  11.801814
    31  H    2.297188   9.242662  10.440493  10.011259  10.646948
    32  H    4.063243  10.968238  12.135708  11.466410  12.413518
    33  C    4.963004  11.752274  12.160264  11.279555  12.927106
    34  H    5.210375  12.219640  12.633849  12.013474  13.309037
    35  H    5.641380  12.373708  12.925089  11.846071  13.667200
    36  H    5.415911  11.873090  11.982259  10.979992  12.949086
    37  C    5.785227   9.087116   8.399355   6.606496   9.997595
    38  H    6.585123   9.471491   8.795357   6.578652  10.463753
    39  H    5.162611   7.993858   7.399866   5.739420   8.927440
    40  H    6.370998   9.505856   8.448730   6.826284  10.198142
    41  C    6.333227  11.182156  10.735079   9.081986  12.174753
    42  H    7.178531  11.586216  11.070488   9.090878  12.617120
    43  H    6.749522  11.567715  10.861250   9.398089  12.387959
    44  H    6.226291  11.659418  11.466391   9.899223  12.750592
                   21         22         23         24         25
    21  H    0.000000
    22  H    2.478338   0.000000
    23  S    2.935395   4.930572   0.000000
    24  C    7.085760   8.707190   5.648456   0.000000
    25  C    8.388425   9.983250   7.011713   1.389207   0.000000
    26  C    8.200544   9.848532   6.399769   1.389102   1.405013
    27  N    9.310270  10.849987   8.170906   2.612214   1.319753
    28  N    8.860230  10.519382   6.718079   2.613040   2.638518
    29  C    9.123223  10.589047   8.429218   3.314326   2.424508
    30  H    9.645061  10.902217   9.127027   4.018685   3.135566
    31  H    8.084591   9.560238   7.559891   2.933783   2.517681
    32  H    9.698477  11.283489   9.018054   4.083715   3.146904
    33  C   10.731722  12.270918   9.437650   3.831055   2.442504
    34  H   11.302820  12.689440  10.191508   4.555433   3.214447
    35  H   11.198677  12.874979   9.874717   4.438256   3.088838
    36  H   10.941922  12.472731   9.409512   3.869891   2.568412
    37  C    8.371352   9.978593   5.965927   3.316354   3.826482
    38  H    8.630519  10.387285   6.021476   4.030135   4.523449
    39  H    7.316387   8.885883   4.973083   2.936967   3.813762
    40  H    9.011681  10.429671   6.624753   4.077063   4.481783
    41  C   10.309131  11.981607   8.115992   3.830836   3.383327
    42  H   10.643133  12.423962   8.258491   4.563124   4.249296
    43  H   10.875487  12.387028   8.705151   4.428433   3.960777
    44  H   10.674518  12.394174   8.646893   3.871566   3.070684
                   26         27         28         29         30
    26  C    0.000000
    27  N    2.638699   0.000000
    28  N    1.320169   3.715288   0.000000
    29  C    3.826505   1.466329   5.033041   0.000000
    30  H    4.515318   2.115079   5.688599   1.099665   0.000000
    31  H    3.811844   2.106456   5.110282   1.094291   1.792225
    32  H    4.490301   2.108078   5.622551   1.099636   1.789502
    33  C    3.385383   1.463547   4.081671   2.490735   2.801033
    34  H    4.241070   2.099673   4.960473   2.677337   2.539430
    35  H    3.977448   2.121001   4.596252   2.857738   3.324928
    36  H    3.067901   2.108233   3.444168   3.411482   3.714208
    37  C    2.425012   5.032317   1.466230   6.247978   6.894585
    38  H    3.141371   5.697188   2.114671   6.908223   7.652778
    39  H    2.519342   5.111348   2.107352   6.150218   6.789875
    40  H    3.142353   5.611758   2.108450   6.882060   7.405061
    41  C    2.442203   4.079839   1.463551   5.523055   6.117922
    42  H    3.219747   4.971858   2.099112   6.379886   7.059459
    43  H    3.081260   4.574351   2.121835   6.032783   6.464892
    44  H    2.570292   3.449975   2.108194   4.884857   5.486449
                   31         32         33         34         35
    31  H    0.000000
    32  H    1.782070   0.000000
    33  C    3.415022   2.729375   0.000000
    34  H    3.704047   2.949870   1.098849   0.000000
    35  H    3.792732   2.658364   1.100537   1.787505   0.000000
    36  H    4.207593   3.763653   1.094306   1.776506   1.793745
    37  C    6.149658   6.895322   5.523031   6.363348   6.055691
    38  H    6.802901   7.434671   6.125559   7.052149   6.498778
    39  H    5.870075   6.868965   5.860717   6.662010   6.450617
    40  H    6.856068   7.596692   5.957857   6.689903   6.584381
    41  C    5.858876   5.967270   3.910226   4.769639   4.283787
    42  H    6.675241   6.720642   4.783244   5.698471   4.974629
    43  H    6.429591   6.569394   4.260282   4.931635   4.781419
    44  H    5.371462   5.196966   3.035623   3.940695   3.269381
                   36         37         38         39         40
    36  H    0.000000
    37  C    4.877297   0.000000
    38  H    5.479646   1.099672   0.000000
    39  H    5.368407   1.094342   1.792655   0.000000
    40  H    5.184722   1.099698   1.789392   1.781006   0.000000
    41  C    3.024398   2.490695   2.798485   3.415800   2.731787
    42  H    3.936214   2.672699   2.532173   3.700367   2.945850
    43  H    3.241001   2.863224   3.328697   3.798407   2.667636
    44  H    2.182599   3.410461   3.708300   4.207845   3.766963
                   41         42         43         44
    41  C    0.000000
    42  H    1.098773   0.000000
    43  H    1.100617   1.787391   0.000000
    44  H    1.094381   1.776185   1.794121   0.000000
 Stoichiometry    C19H21N2S2(1+)
 Framework group  C1[X(C19H21N2S2)]
 Deg. of freedom   126
 Full point group                 C1      NOp   1
 Largest Abelian subgroup         C1      NOp   1
 Largest concise Abelian subgroup C1      NOp   1
                         Standard orientation:                         
 ---------------------------------------------------------------------
 Center     Atomic      Atomic             Coordinates (Angstroms)
 Number     Number       Type             X           Y           Z
 ---------------------------------------------------------------------
      1          6           0        5.141333    0.341453   -1.428653
      2          6           0        4.246330    0.793113   -0.457920
      3         16           0        3.527427    2.438238   -0.612926
      4          6           0        3.852580   -0.085202    0.570411
      5          6           0        0.863708   -0.787434    0.770822
      6          6           0        1.152588   -1.949541    0.292605
      7          6           0        5.641454   -0.963707   -1.380320
      8          6           0        4.337968   -1.397272    0.611701
      9          1           0        2.805747   -0.536686    2.620663
     10          6           0       -0.327590   -0.104924    0.757243
     11          6           0        0.161049   -2.709273   -0.336618
     12          6           0       -1.110551   -2.125038   -0.416532
     13          6           0       -1.366563   -0.836811    0.116144
     14          1           0       -0.506361    0.876389    1.203135
     15          1           0        0.333628   -3.701573   -0.760587
     16          1           0       -1.915541   -2.656529   -0.930176
     17          6           0        5.242141   -1.827604   -0.363151
     18          1           0        5.450891    1.025420   -2.219360
     19          1           0        4.159480    2.990100    0.460876
     20          1           0        6.347910   -1.298886   -2.140548
     21          1           0        4.022912   -2.077842    1.402557
     22          1           0        5.625918   -2.847650   -0.323690
     23         16           0        2.641644    0.489998    1.741439
     24          6           0       -2.680648   -0.257498    0.003764
     25          6           0       -4.054270   -0.413992   -0.132503
     26          6           0       -3.489875    0.870167   -0.052158
     27          7           0       -5.099740   -1.211802   -0.243141
     28          7           0       -3.607387    2.185094   -0.049886
     29          6           0       -4.958870   -2.662960   -0.086881
     30          1           0       -5.249390   -3.175063   -1.015650
     31          1           0       -3.921906   -2.911213    0.159186
     32          1           0       -5.607057   -3.011636    0.730112
     33          6           0       -6.456302   -0.708508   -0.463149
     34          1           0       -6.932296   -1.289768   -1.265044
     35          1           0       -7.062340   -0.804638    0.450448
     36          1           0       -6.424137    0.340187   -0.774131
     37          6           0       -2.422516    3.047015   -0.104701
     38          1           0       -2.374233    3.683098    0.791036
     39          1           0       -1.518165    2.434104   -0.168534
     40          1           0       -2.472812    3.689712   -0.995626
     41          6           0       -4.905946    2.859820   -0.071613
     42          1           0       -4.903422    3.671788    0.668659
     43          1           0       -5.109136    3.288120   -1.064906
     44          1           0       -5.701050    2.156915    0.195603
 ---------------------------------------------------------------------
 Rotational constants (GHZ):           0.4060159           0.0982633           0.0849802
 Leave Link  202 at Tue Jan 26 16:18:23 2021, MaxMem=  4026531840 cpu:               0.3 elap:               0.1
 (Enter /opt/ohpc/pub/libs/gaussian/g16-A.03/sandybridge/g16/l301.exe)
 Standard basis: TZVP (5D, 7F)
 Ernie: Thresh=  0.10000D-02 Tol=  0.10000D-05 Strict=F.
 There are   592 symmetry adapted cartesian basis functions of A   symmetry.
 There are   569 symmetry adapted basis functions of A   symmetry.
   569 basis functions,   997 primitive gaussians,   592 cartesian basis functions
    90 alpha electrons       90 beta electrons
       nuclear repulsion energy      2022.4848436690 Hartrees.
 IExCor=33909 DFT=T Ex+Corr=LC-wHPBE ExCW=0 ScaHFX=  1.000000
 ScaDFX=  1.000000  1.000000  1.000000  1.000000 ScalE2=  1.000000  1.000000
 IRadAn=      5 IRanWt=     -1 IRanGd=            0 ICorTp=0 IEmpDi=  4
 HFx  wShort=  0.000000 wLong=  0.156200 cFull=  0.000000 cShort=  0.000000 cLong=  1.000000
 DFx  wShort=  0.000000 wLong=  0.156200 cFull=  0.000000 cShort=  1.000000 cLong=  0.000000
 NAtoms=   44 NActive=   44 NUniq=   44 SFac= 1.00D+00 NAtFMM=   60 NAOKFM=F Big=F
 Integral buffers will be    131072 words long.
 Raffenetti 2 integral format.
 Two-electron integral symmetry is turned on.
 Leave Link  301 at Tue Jan 26 16:18:23 2021, MaxMem=  4026531840 cpu:               0.4 elap:               0.1
 (Enter /opt/ohpc/pub/libs/gaussian/g16-A.03/sandybridge/g16/l302.exe)
 NPDir=0 NMtPBC=     1 NCelOv=     1 NCel=       1 NClECP=     1 NCelD=      1
         NCelK=      1 NCelE2=     1 NClLst=     1 CellRange=     0.0.
 One-electron integrals computed using PRISM.
 One-electron integral symmetry used in STVInt
 NBasis=   569 RedAO= T EigKep=  9.00D-06  NBF=   569
 NBsUse=   569 1.00D-06 EigRej= -1.00D+00 NBFU=   569
 Precomputing XC quadrature grid using
 IXCGrd= 4 IRadAn=           5 IRanWt=          -1 IRanGd=           0 AccXCQ= 0.00D+00.
 Generated NRdTot=       0 NPtTot=           0 NUsed=           0 NTot=          32
 NSgBfM=   570   570   570   570   570 MxSgAt=    44 MxSgA2=    44.
 Leave Link  302 at Tue Jan 26 16:18:24 2021, MaxMem=  4026531840 cpu:               9.1 elap:               1.2
 (Enter /opt/ohpc/pub/libs/gaussian/g16-A.03/sandybridge/g16/l303.exe)
 DipDrv:  MaxL=1.
 Leave Link  303 at Tue Jan 26 16:18:24 2021, MaxMem=  4026531840 cpu:               1.0 elap:               0.2
 (Enter /opt/ohpc/pub/libs/gaussian/g16-A.03/sandybridge/g16/l401.exe)
 ExpMin= 9.52D-02 ExpMax= 6.07D+04 ExpMxC= 2.07D+03 IAcc=3 IRadAn=         5 AccDes= 0.00D+00
 Harris functional with IExCor=33909 and IRadAn=       5 diagonalized for initial guess.
 HarFok:  IExCor=33909 AccDes= 0.00D+00 IRadAn=         5 IDoV= 1 UseB2=F ITyADJ=14
 ICtDFT=  3500011 ScaDFX=  1.000000  1.000000  1.000000  1.000000
 FoFCou: FMM=F IPFlag=           0 FMFlag=      100000 FMFlg1=           0
         NFxFlg=           0 DoJE=T BraDBF=F KetDBF=T FulRan=T
         wScrn=  0.000000 ICntrl=       500 IOpCl=  0 I1Cent=   200000004 NGrid=           0
         NMat0=    1 NMatS0=      1 NMatT0=    0 NMatD0=    1 NMtDS0=    0 NMtDT0=    0
 Petite list used in FoFCou.
 Harris En= -1626.07939108115    
 JPrj=0 DoOrth=F DoCkMO=F.
 Leave Link  401 at Tue Jan 26 16:18:31 2021, MaxMem=  4026531840 cpu:              51.0 elap:               6.4
 (Enter /opt/ohpc/pub/libs/gaussian/g16-A.03/sandybridge/g16/l502.exe)
 Integral symmetry usage will be decided dynamically.
 Closed shell SCF:
 Using DIIS extrapolation, IDIIS=    10.
 NGot=  4026531840 LenX=  4025820226 LenY=  4025469170
 Requested convergence on RMS density matrix=1.00D-06 within  32 cycles.
 Requested convergence on MAX density matrix=1.00D-04.
 Requested convergence on             energy=1.00D-04.
 Virtual orbitals will be shifted by   0.500 hartree.
 No special actions if energy rises.
 Dynamic level shift is on during FON iterations.

 Cycle   1  Pass 1  IDiag  1:
 FoFJK:  IHMeth= 1 ICntrl=       0 DoSepK=T KAlg= 0 I1Cent=           0 FoldK=F
 IRaf=         1 NMat=       1 IRICut=       1 DoRegI=T DoRafI=F ISym2E= 0 IDoP0=0 IntGTp=1.
 FoFCou: FMM=F IPFlag=           0 FMFlag=      100000 FMFlg1=           0
         NFxFlg=           0 DoJE=T BraDBF=F KetDBF=F FulRan=T
         wScrn=  0.000000 ICntrl=       500 IOpCl=  0 I1Cent=           0 NGrid=           0
         NMat0=    1 NMatS0=      1 NMatT0=    0 NMatD0=    1 NMtDS0=    0 NMtDT0=    0
 Symmetry not used in FoFCou.
 E= -1640.77025115014    
 DIIS: error= 2.94D-02 at cycle   1 NSaved=   1.
 NSaved= 1 IEnMin= 1 EnMin= -1640.77025115014     IErMin= 1 ErrMin= 2.94D-02
 ErrMax= 2.94D-02  0.00D+00 EMaxC= 1.00D+00 BMatC= 4.93D-01 BMatP= 4.93D-01
 IDIUse=1 WtCom= 1.00D+00 WtEn= 0.00D+00
 Coeff-Com:  0.100D+01
 Coeff:      0.100D+01
 Gap=     0.397 Goal=   None    Shift=    0.500
 T= 1484. Gap= 0.498 NK=0 IS=   91 IE=  569 IFin=   90
          NO(<0.9)=   0  NV(>0.1)=   0     90.00e < EF      0.00e >EF  Err=0.0D+00
 GapD=    0.397 DampG=1.000 DampE=0.500 DampFc=0.5000 IDamp=-1.
 Damping current iteration by 5.00D-01
 RMSDP=4.07D-03 MaxDP=2.54D-01              OVMax= 1.67D-01

 Cycle   2  Pass 1  IDiag  1:
 E= -1641.10617266216     Delta-E=       -0.335921512019 Rises=F Damp=T
 DIIS: error= 1.19D-02 at cycle   2 NSaved=   2.
 NSaved= 2 IEnMin= 2 EnMin= -1641.10617266216     IErMin= 2 ErrMin= 1.19D-02
 ErrMax= 1.19D-02  0.00D+00 EMaxC= 1.00D+00 BMatC= 6.63D-02 BMatP= 4.93D-01
 IDIUse=1 WtCom= 1.00D+00 WtEn= 0.00D+00
 Coeff-Com: -0.451D+00 0.145D+01
 Coeff:     -0.451D+00 0.145D+01
 Gap=     0.295 Goal=   None    Shift=    0.500
 T= 1352. Gap= 0.722 NK=0 IS=   91 IE=  569 IFin=   90
          NO(<0.9)=   0  NV(>0.1)=   0     90.00e < EF      0.00e >EF  Err=0.0D+00
 GapD=    0.295 DampG=1.000 DampE=0.500 DampFc=0.5000 IDamp=-1.
 Damping current iteration by 5.00D-01
 RMSDP=1.65D-03 MaxDP=1.04D-01 DE=-3.36D-01 OVMax= 2.44D-02

 Cycle   3  Pass 1  IDiag  1:
 E= -1641.20699718799     Delta-E=       -0.100824525833 Rises=F Damp=T
 DIIS: error= 4.84D-03 at cycle   3 NSaved=   3.
 NSaved= 3 IEnMin= 3 EnMin= -1641.20699718799     IErMin= 3 ErrMin= 4.84D-03
 ErrMax= 4.84D-03  0.00D+00 EMaxC= 1.00D+00 BMatC= 1.06D-02 BMatP= 6.63D-02
 IDIUse=1 WtCom= 1.00D+00 WtEn= 0.00D+00
 Coeff-Com:  0.161D+00-0.110D+01 0.193D+01
 Coeff:      0.161D+00-0.110D+01 0.193D+01
 Gap=     0.220 Goal=   None    Shift=    0.500
 T= 1096. Gap= 0.719 NK=0 IS=   91 IE=  569 IFin=   90
          NO(<0.9)=   0  NV(>0.1)=   0     90.00e < EF      0.00e >EF  Err=0.0D+00
 GapD=    0.220 DampG=1.000 DampE=1.000 DampFc=1.0000 IDamp=-1.
 RMSDP=8.41D-04 MaxDP=4.92D-02 DE=-1.01D-01 OVMax= 1.40D-02

 Cycle   4  Pass 1  IDiag  1:
 E= -1641.28815526401     Delta-E=       -0.081158076015 Rises=F Damp=F
 DIIS: error= 1.48D-03 at cycle   4 NSaved=   4.
 NSaved= 4 IEnMin= 4 EnMin= -1641.28815526401     IErMin= 4 ErrMin= 1.48D-03
 ErrMax= 1.48D-03  0.00D+00 EMaxC= 1.00D+00 BMatC= 1.43D-03 BMatP= 1.06D-02
 IDIUse=1 WtCom= 1.00D+00 WtEn= 0.00D+00
 Coeff-Com:  0.808D-01-0.901D-01-0.593D-01 0.107D+01
 Coeff:      0.808D-01-0.901D-01-0.593D-01 0.107D+01
 Gap=     0.224 Goal=   None    Shift=    0.500
 T=  539. Gap= 0.724 NK=0 IS=   91 IE=  569 IFin=   90
          NO(<0.9)=   0  NV(>0.1)=   0     90.00e < EF      0.00e >EF  Err=0.0D+00
 GapD=    0.224 DampG=1.000 DampE=1.000 DampFc=1.0000 IDamp=-1.
 RMSDP=4.08D-04 MaxDP=3.11D-02 DE=-8.12D-02 OVMax= 8.14D-03

 Cycle   5  Pass 1  IDiag  1:
 E= -1641.29005709472     Delta-E=       -0.001901830708 Rises=F Damp=F
 DIIS: error= 1.35D-03 at cycle   5 NSaved=   5.
 NSaved= 5 IEnMin= 5 EnMin= -1641.29005709472     IErMin= 5 ErrMin= 1.35D-03
 ErrMax= 1.35D-03  0.00D+00 EMaxC= 1.00D+00 BMatC= 2.20D-04 BMatP= 1.43D-03
 IDIUse=1 WtCom= 1.00D+00 WtEn= 0.00D+00
 Coeff-Com: -0.121D-01 0.191D+00-0.353D+00 0.390D-02 0.117D+01
 Coeff:     -0.121D-01 0.191D+00-0.353D+00 0.390D-02 0.117D+01
 Gap=     0.224 Goal=   None    Shift=    0.500
 T=   18. Gap= 0.724 NK=0 IS=   91 IE=  569 IFin=   90
          NO(<0.9)=   0  NV(>0.1)=   0     90.00e < EF      0.00e >EF  Err=0.0D+00
 GapD=    0.224 DampG=1.000 DampE=1.000 DampFc=1.0000 IDamp=-1.
 RMSDP=2.27D-04 MaxDP=1.50D-02 DE=-1.90D-03 OVMax= 7.46D-03

 Cycle   6  Pass 1  IDiag  1:
 E= -1641.29058961418     Delta-E=       -0.000532519465 Rises=F Damp=F
 DIIS: error= 1.05D-03 at cycle   6 NSaved=   6.
 NSaved= 6 IEnMin= 6 EnMin= -1641.29058961418     IErMin= 6 ErrMin= 1.05D-03
 ErrMax= 1.05D-03  0.00D+00 EMaxC= 1.00D+00 BMatC= 6.18D-05 BMatP= 2.20D-04
 IDIUse=1 WtCom= 1.00D+00 WtEn= 0.00D+00
 Coeff-Com: -0.157D-01 0.219D-01-0.634D-02-0.284D+00-0.216D+00 0.150D+01
 Coeff:     -0.157D-01 0.219D-01-0.634D-02-0.284D+00-0.216D+00 0.150D+01
 Gap=     0.224 Goal=   None    Shift=    0.500
 GapD=    0.224 DampG=1.000 DampE=1.000 DampFc=1.0000 IDamp=-1.
 RMSDP=1.35D-04 MaxDP=8.62D-03 DE=-5.33D-04 OVMax= 6.05D-03

 Cycle   7  Pass 1  IDiag  1:
 E= -1641.29082519054     Delta-E=       -0.000235576358 Rises=F Damp=F
 DIIS: error= 7.77D-04 at cycle   7 NSaved=   7.
 NSaved= 7 IEnMin= 7 EnMin= -1641.29082519054     IErMin= 7 ErrMin= 7.77D-04
 ErrMax= 7.77D-04  0.00D+00 EMaxC= 1.00D+00 BMatC= 2.56D-05 BMatP= 6.18D-05
 IDIUse=1 WtCom= 1.00D+00 WtEn= 0.00D+00
 Coeff-Com: -0.223D-02-0.469D-01 0.899D-01-0.136D+00-0.403D+00 0.208D+00
 Coeff-Com:  0.129D+01
 Coeff:     -0.223D-02-0.469D-01 0.899D-01-0.136D+00-0.403D+00 0.208D+00
 Coeff:      0.129D+01
 Gap=     0.225 Goal=   None    Shift=    0.500
 RMSDP=7.22D-05 MaxDP=4.04D-03 DE=-2.36D-04 OVMax= 4.30D-03

 Cycle   8  Pass 1  IDiag  1:
 E= -1641.29093864014     Delta-E=       -0.000113449601 Rises=F Damp=F
 DIIS: error= 5.46D-04 at cycle   8 NSaved=   8.
 NSaved= 8 IEnMin= 8 EnMin= -1641.29093864014     IErMin= 8 ErrMin= 5.46D-04
 ErrMax= 5.46D-04  0.00D+00 EMaxC= 1.00D+00 BMatC= 1.07D-05 BMatP= 2.56D-05
 IDIUse=1 WtCom= 1.00D+00 WtEn= 0.00D+00
 Coeff-Com:  0.641D-02-0.348D-01 0.463D-01 0.976D-01-0.153D+00-0.734D+00
 Coeff-Com:  0.608D-01 0.171D+01
 Coeff:      0.641D-02-0.348D-01 0.463D-01 0.976D-01-0.153D+00-0.734D+00
 Coeff:      0.608D-01 0.171D+01
 Gap=     0.225 Goal=   None    Shift=    0.500
 RMSDP=4.52D-05 MaxDP=2.23D-03 DE=-1.13D-04 OVMax= 3.54D-03

 Cycle   9  Pass 1  IDiag  1:
 E= -1641.29099572366     Delta-E=       -0.000057083520 Rises=F Damp=F
 DIIS: error= 4.03D-04 at cycle   9 NSaved=   9.
 NSaved= 9 IEnMin= 9 EnMin= -1641.29099572366     IErMin= 9 ErrMin= 4.03D-04
 ErrMax= 4.03D-04  0.00D+00 EMaxC= 1.00D+00 BMatC= 5.21D-06 BMatP= 1.07D-05
 IDIUse=1 WtCom= 1.00D+00 WtEn= 0.00D+00
 Coeff-Com:  0.381D-02-0.219D-02-0.648D-02 0.133D+00 0.291D-02-0.593D+00
 Coeff-Com: -0.358D+00 0.574D+00 0.125D+01
 Coeff:      0.381D-02-0.219D-02-0.648D-02 0.133D+00 0.291D-02-0.593D+00
 Coeff:     -0.358D+00 0.574D+00 0.125D+01
 Gap=     0.225 Goal=   None    Shift=    0.500
 RMSDP=2.55D-05 MaxDP=1.06D-03 DE=-5.71D-05 OVMax= 2.51D-03

 Cycle  10  Pass 1  IDiag  1:
 E= -1641.29102265624     Delta-E=       -0.000026932581 Rises=F Damp=F
 DIIS: error= 2.67D-04 at cycle  10 NSaved=  10.
 NSaved=10 IEnMin=10 EnMin= -1641.29102265624     IErMin=10 ErrMin= 2.67D-04
 ErrMax= 2.67D-04  0.00D+00 EMaxC= 1.00D+00 BMatC= 2.36D-06 BMatP= 5.21D-06
 IDIUse=1 WtCom= 1.00D+00 WtEn= 0.00D+00
 Coeff-Com: -0.131D-02 0.135D-01-0.221D-01 0.281D-01 0.326D-01 0.867D-01
 Coeff-Com: -0.190D+00-0.491D+00-0.804D+00 0.235D+01
 Coeff:     -0.131D-02 0.135D-01-0.221D-01 0.281D-01 0.326D-01 0.867D-01
 Coeff:     -0.190D+00-0.491D+00-0.804D+00 0.235D+01
 Gap=     0.225 Goal=   None    Shift=    0.500
 RMSDP=1.60D-05 MaxDP=7.70D-04 DE=-2.69D-05 OVMax= 1.83D-03

 Cycle  11  Pass 1  IDiag  1:
 E= -1641.29103509720     Delta-E=       -0.000012440956 Rises=F Damp=F
 DIIS: error= 1.84D-04 at cycle  11 NSaved=  11.
 NSaved=11 IEnMin=11 EnMin= -1641.29103509720     IErMin=11 ErrMin= 1.84D-04
 ErrMax= 1.84D-04  0.00D+00 EMaxC= 1.00D+00 BMatC= 1.26D-06 BMatP= 2.36D-06
 IDIUse=1 WtCom= 1.00D+00 WtEn= 0.00D+00
 Coeff-Com: -0.166D-02 0.633D-02-0.758D-02-0.136D-01 0.130D-02 0.230D+00
 Coeff-Com: -0.125D-01-0.453D+00-0.112D+01 0.106D+01 0.131D+01
 Coeff:     -0.166D-02 0.633D-02-0.758D-02-0.136D-01 0.130D-02 0.230D+00
 Coeff:     -0.125D-01-0.453D+00-0.112D+01 0.106D+01 0.131D+01
 Gap=     0.225 Goal=   None    Shift=    0.500
 RMSDP=9.60D-06 MaxDP=4.19D-04 DE=-1.24D-05 OVMax= 1.25D-03

 Cycle  12  Pass 1  IDiag  1:
 E= -1641.29104079037     Delta-E=       -0.000005693173 Rises=F Damp=F
 DIIS: error= 1.21D-04 at cycle  12 NSaved=  12.
 NSaved=12 IEnMin=12 EnMin= -1641.29104079037     IErMin=12 ErrMin= 1.21D-04
 ErrMax= 1.21D-04  0.00D+00 EMaxC= 1.00D+00 BMatC= 5.91D-07 BMatP= 1.26D-06
 IDIUse=1 WtCom= 1.00D+00 WtEn= 0.00D+00
 Coeff-Com: -0.103D-03-0.314D-02 0.612D-02-0.609D-02-0.185D-01 0.247D-01
 Coeff-Com:  0.684D-01 0.964D-01-0.216D+00-0.557D+00-0.826D+00 0.243D+01
 Coeff:     -0.103D-03-0.314D-02 0.612D-02-0.609D-02-0.185D-01 0.247D-01
 Coeff:      0.684D-01 0.964D-01-0.216D+00-0.557D+00-0.826D+00 0.243D+01
 Gap=     0.225 Goal=   None    Shift=    0.500
 RMSDP=6.19D-06 MaxDP=2.47D-04 DE=-5.69D-06 OVMax= 8.44D-04

 Cycle  13  Pass 1  IDiag  1:
 E= -1641.29104325012     Delta-E=       -0.000002459746 Rises=F Damp=F
 DIIS: error= 8.10D-05 at cycle  13 NSaved=  13.
 NSaved=13 IEnMin=13 EnMin= -1641.29104325012     IErMin=13 ErrMin= 8.10D-05
 ErrMax= 8.10D-05  0.00D+00 EMaxC= 1.00D+00 BMatC= 3.51D-07 BMatP= 5.91D-07
 IDIUse=1 WtCom= 1.00D+00 WtEn= 0.00D+00
 Coeff-Com:  0.224D-03-0.311D-02 0.529D-02 0.369D-02-0.182D-01-0.484D-01
 Coeff-Com:  0.633D-01 0.216D+00 0.116D+00-0.722D+00-0.121D+01 0.149D+01
 Coeff-Com:  0.111D+01
 Coeff:      0.224D-03-0.311D-02 0.529D-02 0.369D-02-0.182D-01-0.484D-01
 Coeff:      0.633D-01 0.216D+00 0.116D+00-0.722D+00-0.121D+01 0.149D+01
 Coeff:      0.111D+01
 Gap=     0.225 Goal=   None    Shift=    0.500
 RMSDP=3.77D-06 MaxDP=1.39D-04 DE=-2.46D-06 OVMax= 5.79D-04

 Cycle  14  Pass 1  IDiag  1:
 E= -1641.29104438639     Delta-E=       -0.000001136272 Rises=F Damp=F
 DIIS: error= 5.29D-05 at cycle  14 NSaved=  14.
 NSaved=14 IEnMin=14 EnMin= -1641.29104438639     IErMin=14 ErrMin= 5.29D-05
 ErrMax= 5.29D-05  0.00D+00 EMaxC= 1.00D+00 BMatC= 1.76D-07 BMatP= 3.51D-07
 IDIUse=1 WtCom= 1.00D+00 WtEn= 0.00D+00
 Coeff-Com:  0.139D-03-0.449D-03 0.490D-03 0.770D-02-0.110D-01-0.361D-01
 Coeff-Com:  0.234D-01 0.975D-01 0.104D+00-0.158D+00-0.499D+00 0.541D-01
 Coeff-Com: -0.766D+00 0.218D+01
 Coeff:      0.139D-03-0.449D-03 0.490D-03 0.770D-02-0.110D-01-0.361D-01
 Coeff:      0.234D-01 0.975D-01 0.104D+00-0.158D+00-0.499D+00 0.541D-01
 Coeff:     -0.766D+00 0.218D+01
 Gap=     0.225 Goal=   None    Shift=    0.500
 RMSDP=2.50D-06 MaxDP=1.01D-04 DE=-1.14D-06 OVMax= 3.96D-04

 Cycle  15  Pass 1  IDiag  1:
 E= -1641.29104489743     Delta-E=       -0.000000511042 Rises=F Damp=F
 DIIS: error= 3.44D-05 at cycle  15 NSaved=  15.
 NSaved=15 IEnMin=15 EnMin= -1641.29104489743     IErMin=15 ErrMin= 3.44D-05
 ErrMax= 3.44D-05  0.00D+00 EMaxC= 1.00D+00 BMatC= 8.42D-08 BMatP= 1.76D-07
 IDIUse=1 WtCom= 1.00D+00 WtEn= 0.00D+00
 Coeff-Com: -0.293D-05 0.603D-03-0.118D-02 0.343D-02-0.347D-02 0.109D-02
 Coeff-Com:  0.111D-03-0.167D-01-0.138D-01 0.178D+00 0.383D-01-0.318D+00
 Coeff-Com: -0.111D+01 0.500D+00 0.174D+01
 Coeff:     -0.293D-05 0.603D-03-0.118D-02 0.343D-02-0.347D-02 0.109D-02
 Coeff:      0.111D-03-0.167D-01-0.138D-01 0.178D+00 0.383D-01-0.318D+00
 Coeff:     -0.111D+01 0.500D+00 0.174D+01
 Gap=     0.225 Goal=   None    Shift=    0.500
 RMSDP=1.69D-06 MaxDP=7.76D-05 DE=-5.11D-07 OVMax= 2.64D-04

 Cycle  16  Pass 1  IDiag  1:
 E= -1641.29104512165     Delta-E=       -0.000000224220 Rises=F Damp=F
 DIIS: error= 2.23D-05 at cycle  16 NSaved=  16.
 NSaved=16 IEnMin=16 EnMin= -1641.29104512165     IErMin=16 ErrMin= 2.23D-05
 ErrMax= 2.23D-05  0.00D+00 EMaxC= 1.00D+00 BMatC= 3.95D-08 BMatP= 8.42D-08
 IDIUse=1 WtCom= 1.00D+00 WtEn= 0.00D+00
 Coeff-Com: -0.402D-04 0.475D-03-0.840D-03-0.559D-04 0.129D-02 0.114D-01
 Coeff-Com: -0.623D-02-0.394D-01-0.347D-01 0.167D+00 0.133D+00-0.169D+00
 Coeff-Com: -0.508D+00-0.662D+00 0.583D+00 0.152D+01
 Coeff:     -0.402D-04 0.475D-03-0.840D-03-0.559D-04 0.129D-02 0.114D-01
 Coeff:     -0.623D-02-0.394D-01-0.347D-01 0.167D+00 0.133D+00-0.169D+00
 Coeff:     -0.508D+00-0.662D+00 0.583D+00 0.152D+01
 Gap=     0.225 Goal=   None    Shift=    0.500
 RMSDP=1.10D-06 MaxDP=4.53D-05 DE=-2.24D-07 OVMax= 1.78D-04

 Cycle  17  Pass 1  IDiag  1:
 E= -1641.29104522093     Delta-E=       -0.000000099280 Rises=F Damp=F
 DIIS: error= 1.43D-05 at cycle  17 NSaved=  17.
 NSaved=17 IEnMin=17 EnMin= -1641.29104522093     IErMin=17 ErrMin= 1.43D-05
 ErrMax= 1.43D-05  0.00D+00 EMaxC= 1.00D+00 BMatC= 1.84D-08 BMatP= 3.95D-08
 IDIUse=1 WtCom= 1.00D+00 WtEn= 0.00D+00
 Coeff-Com: -0.132D-04-0.124D-03 0.274D-03-0.965D-03 0.947D-03 0.363D-02
 Coeff-Com:  0.351D-03-0.967D-02-0.467D-02 0.611D-02 0.138D-02 0.971D-01
 Coeff-Com:  0.152D+00-0.588D+00-0.355D+00-0.556D+00 0.225D+01
 Coeff:     -0.132D-04-0.124D-03 0.274D-03-0.965D-03 0.947D-03 0.363D-02
 Coeff:      0.351D-03-0.967D-02-0.467D-02 0.611D-02 0.138D-02 0.971D-01
 Coeff:      0.152D+00-0.588D+00-0.355D+00-0.556D+00 0.225D+01
 Gap=     0.225 Goal=   None    Shift=    0.500
 RMSDP=7.29D-07 MaxDP=3.42D-05 DE=-9.93D-08 OVMax= 1.19D-04

 SCF Done:  E(RLC-wHPBE) =  -1641.29104522     A.U. after   17 cycles
            NFock= 17  Conv=0.73D-06     -V/T= 2.0041
 KE= 1.634619537970D+03 PE=-7.878614970160D+03 EE= 2.580219543300D+03
 Leave Link  502 at Tue Jan 26 16:30:14 2021, MaxMem=  4026531840 cpu:            5615.7 elap:             702.9
 (Enter /opt/ohpc/pub/libs/gaussian/g16-A.03/sandybridge/g16/l508.exe)
 QCSCF skips out because SCF is already converged.
 Leave Link  508 at Tue Jan 26 16:30:14 2021, MaxMem=  4026531840 cpu:               0.1 elap:               0.0
 (Enter /opt/ohpc/pub/libs/gaussian/g16-A.03/sandybridge/g16/l601.exe)
 Copying SCF densities to generalized density rwf, IOpCl= 0 IROHF=0.

 **********************************************************************

            Population analysis using the SCF density.

 **********************************************************************

 Orbital symmetries:
       Occupied  (A) (A) (A) (A) (A) (A) (A) (A) (A) (A) (A) (A)
                 (A) (A) (A) (A) (A) (A) (A) (A) (A) (A) (A) (A)
                 (A) (A) (A) (A) (A) (A) (A) (A) (A) (A) (A) (A)
                 (A) (A) (A) (A) (A) (A) (A) (A) (A) (A) (A) (A)
                 (A) (A) (A) (A) (A) (A) (A) (A) (A) (A) (A) (A)
                 (A) (A) (A) (A) (A) (A) (A) (A) (A) (A) (A) (A)
                 (A) (A) (A) (A) (A) (A) (A) (A) (A) (A) (A) (A)
                 (A) (A) (A) (A) (A) (A)
       Virtual   (A) (A) (A) (A) (A) (A) (A) (A) (A) (A) (A) (A)
                 (A) (A) (A) (A) (A) (A) (A) (A) (A) (A) (A) (A)
                 (A) (A) (A) (A) (A) (A) (A) (A) (A) (A) (A) (A)
                 (A) (A) (A) (A) (A) (A) (A) (A) (A) (A) (A) (A)
                 (A) (A) (A) (A) (A) (A) (A) (A) (A) (A) (A) (A)
                 (A) (A) (A) (A) (A) (A) (A) (A) (A) (A) (A) (A)
                 (A) (A) (A) (A) (A) (A) (A) (A) (A) (A) (A) (A)
                 (A) (A) (A) (A) (A) (A) (A) (A) (A) (A) (A) (A)
                 (A) (A) (A) (A) (A) (A) (A) (A) (A) (A) (A) (A)
                 (A) (A) (A) (A) (A) (A) (A) (A) (A) (A) (A) (A)
                 (A) (A) (A) (A) (A) (A) (A) (A) (A) (A) (A) (A)
                 (A) (A) (A) (A) (A) (A) (A) (A) (A) (A) (A) (A)
                 (A) (A) (A) (A) (A) (A) (A) (A) (A) (A) (A) (A)
                 (A) (A) (A) (A) (A) (A) (A) (A) (A) (A) (A) (A)
                 (A) (A) (A) (A) (A) (A) (A) (A) (A) (A) (A) (A)
                 (A) (A) (A) (A) (A) (A) (A) (A) (A) (A) (A) (A)
                 (A) (A) (A) (A) (A) (A) (A) (A) (A) (A) (A) (A)
                 (A) (A) (A) (A) (A) (A) (A) (A) (A) (A) (A) (A)
                 (A) (A) (A) (A) (A) (A) (A) (A) (A) (A) (A) (A)
                 (A) (A) (A) (A) (A) (A) (A) (A) (A) (A) (A) (A)
                 (A) (A) (A) (A) (A) (A) (A) (A) (A) (A) (A) (A)
                 (A) (A) (A) (A) (A) (A) (A) (A) (A) (A) (A) (A)
                 (A) (A) (A) (A) (A) (A) (A) (A) (A) (A) (A) (A)
                 (A) (A) (A) (A) (A) (A) (A) (A) (A) (A) (A) (A)
                 (A) (A) (A) (A) (A) (A) (A) (A) (A) (A) (A) (A)
                 (A) (A) (A) (A) (A) (A) (A) (A) (A) (A) (A) (A)
                 (A) (A) (A) (A) (A) (A) (A) (A) (A) (A) (A) (A)
                 (A) (A) (A) (A) (A) (A) (A) (A) (A) (A) (A) (A)
                 (A) (A) (A) (A) (A) (A) (A) (A) (A) (A) (A) (A)
                 (A) (A) (A) (A) (A) (A) (A) (A) (A) (A) (A) (A)
                 (A) (A) (A) (A) (A) (A) (A) (A) (A) (A) (A) (A)
                 (A) (A) (A) (A) (A) (A) (A) (A) (A) (A) (A) (A)
                 (A) (A) (A) (A) (A) (A) (A) (A) (A) (A) (A) (A)
                 (A) (A) (A) (A) (A) (A) (A) (A) (A) (A) (A) (A)
                 (A) (A) (A) (A) (A) (A) (A) (A) (A) (A) (A) (A)
                 (A) (A) (A) (A) (A) (A) (A) (A) (A) (A) (A) (A)
                 (A) (A) (A) (A) (A) (A) (A) (A) (A) (A) (A) (A)
                 (A) (A) (A) (A) (A) (A) (A) (A) (A) (A) (A) (A)
                 (A) (A) (A) (A) (A) (A) (A) (A) (A) (A) (A) (A)
                 (A) (A) (A) (A) (A) (A) (A) (A) (A) (A) (A)
 The electronic state is 1-A.
 Alpha  occ. eigenvalues --  -88.31225 -88.26509 -14.26832 -14.26826 -10.19210
 Alpha  occ. eigenvalues --  -10.19177 -10.15629 -10.13903 -10.13878 -10.13412
 Alpha  occ. eigenvalues --  -10.13369 -10.11553 -10.11291 -10.10620 -10.10557
 Alpha  occ. eigenvalues --  -10.09206 -10.09129 -10.08803 -10.07551 -10.06850
 Alpha  occ. eigenvalues --  -10.06634 -10.06423 -10.05209  -7.90224  -7.85692
 Alpha  occ. eigenvalues --   -5.92344  -5.91917  -5.91507  -5.87927  -5.87505
 Alpha  occ. eigenvalues --   -5.86682  -1.13811  -1.11418  -1.05817  -0.98538
 Alpha  occ. eigenvalues --   -0.98032  -0.91435  -0.89285  -0.89044  -0.88489
 Alpha  occ. eigenvalues --   -0.88332  -0.87104  -0.86980  -0.85728  -0.83431
 Alpha  occ. eigenvalues --   -0.81057  -0.76491  -0.73653  -0.72820  -0.71517
 Alpha  occ. eigenvalues --   -0.71243  -0.70366  -0.68358  -0.66042  -0.65920
 Alpha  occ. eigenvalues --   -0.65482  -0.64211  -0.63678  -0.61113  -0.60309
 Alpha  occ. eigenvalues --   -0.59833  -0.59037  -0.58778  -0.58307  -0.58113
 Alpha  occ. eigenvalues --   -0.57312  -0.57209  -0.57033  -0.56558  -0.56340
 Alpha  occ. eigenvalues --   -0.55395  -0.55054  -0.54944  -0.54103  -0.52801
 Alpha  occ. eigenvalues --   -0.52411  -0.52016  -0.51515  -0.49332  -0.47821
 Alpha  occ. eigenvalues --   -0.47375  -0.46872  -0.46225  -0.43875  -0.41561
 Alpha  occ. eigenvalues --   -0.40474  -0.39415  -0.38524  -0.37615  -0.34770
 Alpha virt. eigenvalues --   -0.12236  -0.10829  -0.07662  -0.06433  -0.06193
 Alpha virt. eigenvalues --   -0.05925  -0.04876  -0.04733  -0.02201  -0.01975
 Alpha virt. eigenvalues --   -0.01597  -0.00944  -0.00899   0.00335   0.00742
 Alpha virt. eigenvalues --    0.01398   0.02241   0.02342   0.02731   0.03568
 Alpha virt. eigenvalues --    0.03953   0.04048   0.04539   0.04810   0.04986
 Alpha virt. eigenvalues --    0.05178   0.06113   0.06208   0.06713   0.06853
 Alpha virt. eigenvalues --    0.07846   0.08291   0.08404   0.08772   0.09026
 Alpha virt. eigenvalues --    0.09844   0.10343   0.10409   0.11431   0.11740
 Alpha virt. eigenvalues --    0.11951   0.12315   0.12483   0.13049   0.13773
 Alpha virt. eigenvalues --    0.14187   0.15614   0.16041   0.16559   0.16957
 Alpha virt. eigenvalues --    0.17311   0.17463   0.17879   0.18628   0.18890
 Alpha virt. eigenvalues --    0.19406   0.19965   0.20128   0.20508   0.21000
 Alpha virt. eigenvalues --    0.21614   0.21817   0.21986   0.22290   0.22404
 Alpha virt. eigenvalues --    0.22812   0.22986   0.23492   0.23661   0.24186
 Alpha virt. eigenvalues --    0.24454   0.24733   0.24826   0.25818   0.26094
 Alpha virt. eigenvalues --    0.26399   0.27135   0.27934   0.28167   0.29005
 Alpha virt. eigenvalues --    0.29176   0.30047   0.30097   0.30445   0.31189
 Alpha virt. eigenvalues --    0.31718   0.31846   0.32304   0.32631   0.33079
 Alpha virt. eigenvalues --    0.33440   0.34541   0.34793   0.35205   0.35442
 Alpha virt. eigenvalues --    0.35725   0.35889   0.36016   0.36778   0.36818
 Alpha virt. eigenvalues --    0.37192   0.37436   0.37828   0.38009   0.38465
 Alpha virt. eigenvalues --    0.38502   0.39150   0.39446   0.39741   0.40036
 Alpha virt. eigenvalues --    0.40444   0.40760   0.41438   0.41727   0.42084
 Alpha virt. eigenvalues --    0.42516   0.43180   0.43693   0.43847   0.44367
 Alpha virt. eigenvalues --    0.44872   0.44945   0.45278   0.45823   0.46158
 Alpha virt. eigenvalues --    0.46986   0.47497   0.47669   0.48045   0.48630
 Alpha virt. eigenvalues --    0.49799   0.50433   0.50703   0.51401   0.51880
 Alpha virt. eigenvalues --    0.52657   0.53679   0.54578   0.55477   0.55621
 Alpha virt. eigenvalues --    0.55909   0.57190   0.57998   0.58803   0.58997
 Alpha virt. eigenvalues --    0.59577   0.61345   0.61643   0.62003   0.62732
 Alpha virt. eigenvalues --    0.63472   0.64233   0.64460   0.65001   0.65460
 Alpha virt. eigenvalues --    0.66317   0.66922   0.67725   0.69906   0.70391
 Alpha virt. eigenvalues --    0.71343   0.72153   0.74540   0.75021   0.75677
 Alpha virt. eigenvalues --    0.76289   0.78794   0.80017   0.81803   0.82203
 Alpha virt. eigenvalues --    0.82828   0.84290   0.86465   0.87271   0.88813
 Alpha virt. eigenvalues --    0.90475   1.00676   1.03718   1.04081   1.08496
 Alpha virt. eigenvalues --    1.10781   1.11759   1.12489   1.12685   1.14162
 Alpha virt. eigenvalues --    1.14559   1.15822   1.16066   1.16534   1.17185
 Alpha virt. eigenvalues --    1.18182   1.18529   1.19321   1.19792   1.20534
 Alpha virt. eigenvalues --    1.21595   1.21982   1.22553   1.22721   1.22953
 Alpha virt. eigenvalues --    1.23289   1.24345   1.24529   1.25221   1.25366
 Alpha virt. eigenvalues --    1.25725   1.26873   1.27048   1.27330   1.27587
 Alpha virt. eigenvalues --    1.28848   1.29176   1.30021   1.30716   1.31721
 Alpha virt. eigenvalues --    1.32362   1.33326   1.34101   1.34146   1.34721
 Alpha virt. eigenvalues --    1.35149   1.36021   1.36469   1.36505   1.36698
 Alpha virt. eigenvalues --    1.37185   1.37749   1.37783   1.38308   1.38566
 Alpha virt. eigenvalues --    1.38930   1.39514   1.39648   1.40899   1.41511
 Alpha virt. eigenvalues --    1.41929   1.42182   1.42715   1.42806   1.43255
 Alpha virt. eigenvalues --    1.43911   1.44359   1.44758   1.44837   1.45347
 Alpha virt. eigenvalues --    1.45626   1.45754   1.46745   1.47122   1.47477
 Alpha virt. eigenvalues --    1.48607   1.48860   1.49280   1.51085   1.51424
 Alpha virt. eigenvalues --    1.51914   1.52373   1.53708   1.54192   1.54462
 Alpha virt. eigenvalues --    1.54963   1.55360   1.56328   1.57726   1.58502
 Alpha virt. eigenvalues --    1.58614   1.59096   1.59600   1.61057   1.61411
 Alpha virt. eigenvalues --    1.62158   1.62765   1.63731   1.64244   1.65137
 Alpha virt. eigenvalues --    1.65418   1.65812   1.65976   1.66062   1.67118
 Alpha virt. eigenvalues --    1.67463   1.67679   1.68157   1.68453   1.68822
 Alpha virt. eigenvalues --    1.69182   1.69957   1.70304   1.70995   1.71168
 Alpha virt. eigenvalues --    1.71712   1.71995   1.73294   1.73523   1.73856
 Alpha virt. eigenvalues --    1.74971   1.75735   1.76032   1.76687   1.78099
 Alpha virt. eigenvalues --    1.79179   1.80204   1.80419   1.81483   1.82494
 Alpha virt. eigenvalues --    1.82815   1.83572   1.84362   1.85363   1.86827
 Alpha virt. eigenvalues --    1.88301   1.89221   1.90005   1.90227   1.90818
 Alpha virt. eigenvalues --    1.91157   1.91363   1.92216   1.94190   1.94572
 Alpha virt. eigenvalues --    1.95250   1.95944   1.97810   1.98813   1.99528
 Alpha virt. eigenvalues --    1.99741   2.02324   2.03958   2.04558   2.06186
 Alpha virt. eigenvalues --    2.06603   2.07957   2.08949   2.09661   2.10108
 Alpha virt. eigenvalues --    2.10866   2.13355   2.15383   2.16337   2.16517
 Alpha virt. eigenvalues --    2.17588   2.17711   2.18261   2.18524   2.19300
 Alpha virt. eigenvalues --    2.20630   2.20843   2.21357   2.21438   2.21981
 Alpha virt. eigenvalues --    2.22509   2.23441   2.24059   2.24531   2.24670
 Alpha virt. eigenvalues --    2.24860   2.25799   2.26113   2.26281   2.26637
 Alpha virt. eigenvalues --    2.26908   2.28350   2.30542   2.31503   2.32317
 Alpha virt. eigenvalues --    2.32962   2.34209   2.37018   2.38818   2.38872
 Alpha virt. eigenvalues --    2.39343   2.40191   2.40307   2.41628   2.43099
 Alpha virt. eigenvalues --    2.43259   2.43593   2.44995   2.45562   2.45945
 Alpha virt. eigenvalues --    2.45965   2.47025   2.47407   2.47863   2.49981
 Alpha virt. eigenvalues --    2.51523   2.52202   2.52498   2.53522   2.54234
 Alpha virt. eigenvalues --    2.54559   2.54988   2.55869   2.56645   2.57868
 Alpha virt. eigenvalues --    2.60084   2.60300   2.60937   2.61248   2.61614
 Alpha virt. eigenvalues --    2.62656   2.63032   2.64516   2.65153   2.67156
 Alpha virt. eigenvalues --    2.69743   2.71057   2.72302   2.72910   2.73197
 Alpha virt. eigenvalues --    2.73945   2.75970   2.81354   2.86242   2.88989
 Alpha virt. eigenvalues --    2.89903   2.93457   2.96055   2.97524   2.98899
 Alpha virt. eigenvalues --    3.00057   3.00954   3.01116   3.02851   3.02894
 Alpha virt. eigenvalues --    3.03626   3.04217   3.04596   3.06721   3.07229
 Alpha virt. eigenvalues --    3.08750   3.11945   3.12775   3.14586   3.16835
 Alpha virt. eigenvalues --    3.17291   3.17471   3.17804   3.18221   3.19687
 Alpha virt. eigenvalues --    3.22172   3.24355   3.24917   3.27095   3.30619
 Alpha virt. eigenvalues --    3.31813   3.32179   3.33762   3.44528   3.49317
 Alpha virt. eigenvalues --    3.49735   3.58812   3.58921   3.66504   3.67321
 Alpha virt. eigenvalues --    3.84722  18.55750  18.87020  21.00023  21.10187
 Alpha virt. eigenvalues --   21.36633  21.44775  21.50282  21.56258  21.60305
 Alpha virt. eigenvalues --   21.62764  21.64414  21.72150  21.78786  21.80194
 Alpha virt. eigenvalues --   21.82018  21.82515  21.82859  21.96682  21.98823
 Alpha virt. eigenvalues --   22.02254  22.02707  31.50854  31.65803
          Condensed to atoms (all electrons):
               1          2          3          4          5          6
     1  C    5.420137   0.081031  -0.113361   0.129861  -0.001621  -0.000197
     2  C    0.081031   6.111043   0.501960  -0.488440  -0.006464   0.015258
     3  S   -0.113361   0.501960  15.548826  -0.222743  -0.007372  -0.000454
     4  C    0.129861  -0.488440  -0.222743   6.653216  -0.022449  -0.055011
     5  C   -0.001621  -0.006464  -0.007372  -0.022449   5.865578   0.309268
     6  C   -0.000197   0.015258  -0.000454  -0.055011   0.309268   5.535841
     7  C    0.255851   0.187276   0.015866  -0.306626  -0.001156   0.001805
     8  C   -0.236009   0.229358   0.034344  -0.207995   0.006595   0.009794
     9  H   -0.000328   0.020164   0.002437  -0.045120  -0.007466  -0.008780
    10  C   -0.000134   0.001923   0.006743  -0.023096  -0.003026  -0.152054
    11  C   -0.000107  -0.002690  -0.000303   0.013838   0.049619   0.398375
    12  C    0.000043   0.001389   0.000231  -0.005317  -0.280061   0.098830
    13  C    0.000021  -0.001958  -0.001160   0.003597   0.166952  -0.113357
    14  H    0.000031   0.000044   0.000735  -0.000335   0.001931   0.008248
    15  H    0.000014  -0.000131  -0.000002   0.000570   0.030184  -0.059723
    16  H    0.000000   0.000003   0.000001  -0.000022   0.000749   0.015569
    17  C    0.144007  -0.229802  -0.006707   0.232596   0.004487  -0.014020
    18  H    0.417493  -0.086200  -0.000977   0.046558  -0.000012  -0.000025
    19  H   -0.004303  -0.028141   0.316234  -0.009569  -0.000020   0.000052
    20  H   -0.075405   0.024908  -0.000290  -0.005313  -0.000006  -0.000002
    21  H   -0.002826   0.023060  -0.000008  -0.090749  -0.001090   0.011419
    22  H    0.019344  -0.004639   0.000001   0.026674  -0.000074  -0.000415
    23  S    0.014261  -0.113418   0.007047   0.349815   0.075537  -0.147693
    24  C    0.000002  -0.000318  -0.000143   0.000400   0.010496   0.015426
    25  C   -0.000000  -0.000003  -0.000006   0.000005  -0.017096  -0.003055
    26  C    0.000000  -0.000010  -0.000024   0.000011   0.023201   0.001973
    27  N   -0.000000  -0.000000  -0.000000   0.000000  -0.000075   0.000018
    28  N    0.000000  -0.000000   0.000003  -0.000000  -0.000126   0.000015
    29  C   -0.000000   0.000000  -0.000000  -0.000000  -0.000137   0.000075
    30  H    0.000000  -0.000000   0.000000   0.000000   0.000006   0.000000
    31  H    0.000000  -0.000000   0.000000   0.000000   0.000149  -0.000078
    32  H   -0.000000  -0.000000   0.000000  -0.000000  -0.000003   0.000000
    33  C   -0.000000  -0.000000  -0.000000  -0.000000  -0.000015  -0.000001
    34  H    0.000000  -0.000000   0.000000   0.000000   0.000000   0.000000
    35  H   -0.000000   0.000000  -0.000000  -0.000000  -0.000000  -0.000000
    36  H    0.000000   0.000000   0.000000   0.000000   0.000000   0.000000
    37  C   -0.000000  -0.000003  -0.000234   0.000013  -0.000360   0.000026
    38  H   -0.000000   0.000000   0.000008  -0.000000  -0.000129  -0.000006
    39  H    0.000003   0.000003   0.000694  -0.000030   0.000075  -0.000052
    40  H    0.000000  -0.000000   0.000012   0.000000   0.000082   0.000003
    41  C    0.000000  -0.000000  -0.000000   0.000000   0.000028   0.000001
    42  H   -0.000000   0.000000  -0.000000  -0.000000  -0.000002  -0.000000
    43  H    0.000000  -0.000000   0.000000   0.000000   0.000001   0.000000
    44  H    0.000000   0.000000   0.000000   0.000000   0.000000   0.000000
               7          8          9         10         11         12
     1  C    0.255851  -0.236009  -0.000328  -0.000134  -0.000107   0.000043
     2  C    0.187276   0.229358   0.020164   0.001923  -0.002690   0.001389
     3  S    0.015866   0.034344   0.002437   0.006743  -0.000303   0.000231
     4  C   -0.306626  -0.207995  -0.045120  -0.023096   0.013838  -0.005317
     5  C   -0.001156   0.006595  -0.007466  -0.003026   0.049619  -0.280061
     6  C    0.001805   0.009794  -0.008780  -0.152054   0.398375   0.098830
     7  C    5.135445   0.136674   0.000273   0.000105  -0.000841   0.000095
     8  C    0.136674   5.574124  -0.004409   0.013903   0.000139   0.001158
     9  H    0.000273  -0.004409   0.587439  -0.001234  -0.000930   0.000306
    10  C    0.000105   0.013903  -0.001234   5.856182  -0.080141  -0.064948
    11  C   -0.000841   0.000139  -0.000930  -0.080141   5.151802   0.196046
    12  C    0.000095   0.001158   0.000306  -0.064948   0.196046   5.673899
    13  C   -0.000049  -0.001750  -0.001206   0.228837   0.078225   0.330521
    14  H   -0.000002   0.000046   0.000151   0.360896  -0.001861   0.006304
    15  H   -0.000056  -0.000228   0.000000   0.000068   0.419000  -0.112056
    16  H    0.000000   0.000003   0.000002   0.011433  -0.021434   0.402598
    17  C    0.322486   0.154884   0.000395  -0.000240  -0.000621  -0.000191
    18  H   -0.068288  -0.007202  -0.000002  -0.000005   0.000006  -0.000002
    19  H   -0.000374   0.002044  -0.000049   0.000062  -0.000002   0.000002
    20  H    0.435501   0.021931   0.000002   0.000001  -0.000001   0.000000
    21  H    0.014600   0.415381   0.001675   0.000910  -0.000745   0.000387
    22  H   -0.064158  -0.067366  -0.000038  -0.000014  -0.000007  -0.000006
    23  S   -0.000509  -0.095060   0.316787   0.033596  -0.003022  -0.008396
    24  C   -0.000003  -0.000086  -0.000120  -0.067167   0.058720  -0.178076
    25  C    0.000000   0.000001  -0.000005   0.062634   0.014578  -0.060759
    26  C   -0.000000  -0.000008   0.000002  -0.075008  -0.001956   0.033114
    27  N    0.000000   0.000000  -0.000000   0.000398   0.000219   0.001066
    28  N    0.000000  -0.000000  -0.000000   0.001606   0.000010   0.000170
    29  C    0.000000   0.000000  -0.000000   0.000162  -0.000392  -0.002290
    30  H   -0.000000  -0.000000  -0.000000  -0.000034  -0.000075   0.000084
    31  H   -0.000000  -0.000000   0.000000  -0.000456   0.000230   0.005861
    32  H    0.000000  -0.000000   0.000000   0.000028   0.000055  -0.000098
    33  C    0.000000   0.000000  -0.000000   0.000091   0.000015  -0.000031
    34  H   -0.000000  -0.000000  -0.000000  -0.000002  -0.000002  -0.000003
    35  H    0.000000   0.000000   0.000000  -0.000000   0.000001  -0.000010
    36  H    0.000000  -0.000000   0.000000   0.000006   0.000000   0.000010
    37  C   -0.000000  -0.000000  -0.000002  -0.001891  -0.000013  -0.000149
    38  H    0.000000   0.000000   0.000000   0.000148   0.000005  -0.000029
    39  H    0.000000  -0.000001   0.000006   0.006292   0.000030  -0.000070
    40  H   -0.000000  -0.000000   0.000000  -0.000146  -0.000003   0.000023
    41  C   -0.000000  -0.000000   0.000000  -0.000011  -0.000003   0.000062
    42  H    0.000000   0.000000   0.000000  -0.000005   0.000000  -0.000001
    43  H   -0.000000  -0.000000  -0.000000  -0.000010  -0.000000  -0.000001
    44  H   -0.000000   0.000000   0.000000   0.000008  -0.000000   0.000007
              13         14         15         16         17         18
     1  C    0.000021   0.000031   0.000014   0.000000   0.144007   0.417493
     2  C   -0.001958   0.000044  -0.000131   0.000003  -0.229802  -0.086200
     3  S   -0.001160   0.000735  -0.000002   0.000001  -0.006707  -0.000977
     4  C    0.003597  -0.000335   0.000570  -0.000022   0.232596   0.046558
     5  C    0.166952   0.001931   0.030184   0.000749   0.004487  -0.000012
     6  C   -0.113357   0.008248  -0.059723   0.015569  -0.014020  -0.000025
     7  C   -0.000049  -0.000002  -0.000056   0.000000   0.322486  -0.068288
     8  C   -0.001750   0.000046  -0.000228   0.000003   0.154884  -0.007202
     9  H   -0.001206   0.000151   0.000000   0.000002   0.000395  -0.000002
    10  C    0.228837   0.360896   0.000068   0.011433  -0.000240  -0.000005
    11  C    0.078225  -0.001861   0.419000  -0.021434  -0.000621   0.000006
    12  C    0.330521   0.006304  -0.112056   0.402598  -0.000191  -0.000002
    13  C    6.673653  -0.088586   0.019415  -0.109079   0.000165   0.000002
    14  H   -0.088586   0.534401   0.000061  -0.000014   0.000010   0.000000
    15  H    0.019415   0.000061   0.576600  -0.003795   0.000157   0.000000
    16  H   -0.109079  -0.000014  -0.003795   0.558536   0.000001  -0.000000
    17  C    0.000165   0.000010   0.000157   0.000001   5.156279   0.018571
    18  H    0.000002   0.000000   0.000000  -0.000000   0.018571   0.548984
    19  H    0.000000  -0.000012  -0.000000  -0.000000  -0.000249  -0.000359
    20  H   -0.000000  -0.000000  -0.000000  -0.000000  -0.067855  -0.008273
    21  H   -0.000268  -0.000010  -0.000150  -0.000000  -0.025853  -0.000041
    22  H    0.000003   0.000000   0.000014   0.000000   0.426211  -0.000128
    23  S    0.002102   0.011732   0.000377   0.000052   0.021620  -0.000397
    24  C   -0.400858   0.013584   0.002343   0.002640   0.000017   0.000000
    25  C   -0.411325   0.005033   0.000304   0.002569  -0.000000   0.000000
    26  C   -0.339031   0.005928   0.000099   0.004712   0.000000   0.000000
    27  N   -0.025384   0.000056   0.000007   0.000241   0.000000   0.000000
    28  N   -0.023171   0.000452   0.000000   0.000037   0.000000   0.000000
    29  C   -0.011661   0.000004  -0.000043  -0.001576  -0.000000  -0.000000
    30  H   -0.000252   0.000000  -0.000000   0.000033   0.000000   0.000000
    31  H   -0.016003  -0.000017   0.000038  -0.000096   0.000000   0.000000
    32  H    0.000640   0.000000   0.000001   0.000301  -0.000000  -0.000000
    33  C   -0.002768   0.000004   0.000000   0.000018  -0.000000   0.000000
    34  H    0.000022   0.000000  -0.000000   0.000010   0.000000   0.000000
    35  H    0.000052  -0.000000   0.000000   0.000000  -0.000000  -0.000000
    36  H   -0.000157  -0.000001  -0.000000  -0.000001  -0.000000  -0.000000
    37  C   -0.013807  -0.001453  -0.000000  -0.000009   0.000000   0.000000
    38  H   -0.000512   0.000177   0.000000   0.000000  -0.000000  -0.000000
    39  H   -0.014747   0.000764  -0.000000  -0.000007   0.000000  -0.000000
    40  H    0.000876   0.000247   0.000000   0.000000   0.000000   0.000000
    41  C   -0.002730   0.000038   0.000000   0.000003   0.000000   0.000000
    42  H   -0.000006   0.000009   0.000000   0.000000  -0.000000  -0.000000
    43  H    0.000102  -0.000001  -0.000000  -0.000000   0.000000   0.000000
    44  H   -0.000180  -0.000000  -0.000000  -0.000000   0.000000   0.000000
              19         20         21         22         23         24
     1  C   -0.004303  -0.075405  -0.002826   0.019344   0.014261   0.000002
     2  C   -0.028141   0.024908   0.023060  -0.004639  -0.113418  -0.000318
     3  S    0.316234  -0.000290  -0.000008   0.000001   0.007047  -0.000143
     4  C   -0.009569  -0.005313  -0.090749   0.026674   0.349815   0.000400
     5  C   -0.000020  -0.000006  -0.001090  -0.000074   0.075537   0.010496
     6  C    0.000052  -0.000002   0.011419  -0.000415  -0.147693   0.015426
     7  C   -0.000374   0.435501   0.014600  -0.064158  -0.000509  -0.000003
     8  C    0.002044   0.021931   0.415381  -0.067366  -0.095060  -0.000086
     9  H   -0.000049   0.000002   0.001675  -0.000038   0.316787  -0.000120
    10  C    0.000062   0.000001   0.000910  -0.000014   0.033596  -0.067167
    11  C   -0.000002  -0.000001  -0.000745  -0.000007  -0.003022   0.058720
    12  C    0.000002   0.000000   0.000387  -0.000006  -0.008396  -0.178076
    13  C    0.000000  -0.000000  -0.000268   0.000003   0.002102  -0.400858
    14  H   -0.000012  -0.000000  -0.000010   0.000000   0.011732   0.013584
    15  H   -0.000000  -0.000000  -0.000150   0.000014   0.000377   0.002343
    16  H   -0.000000  -0.000000  -0.000000   0.000000   0.000052   0.002640
    17  C   -0.000249  -0.067855  -0.025853   0.426211   0.021620   0.000017
    18  H   -0.000359  -0.008273  -0.000041  -0.000128  -0.000397   0.000000
    19  H    0.597618   0.000010   0.000030  -0.000003   0.002984  -0.000001
    20  H    0.000010   0.552795  -0.000241  -0.008789   0.000039  -0.000000
    21  H    0.000030  -0.000241   0.549025  -0.007932  -0.014561  -0.000021
    22  H   -0.000003  -0.008789  -0.007932   0.553430  -0.000310   0.000000
    23  S    0.002984   0.000039  -0.014561  -0.000310  15.424201   0.008529
    24  C   -0.000001  -0.000000  -0.000021   0.000000   0.008529   7.196062
    25  C    0.000000   0.000000   0.000000  -0.000000   0.000187  -0.002961
    26  C    0.000000  -0.000000  -0.000000   0.000000   0.000220   0.075189
    27  N   -0.000000   0.000000  -0.000000   0.000000   0.000000  -0.152536
    28  N   -0.000000   0.000000  -0.000000   0.000000   0.000010  -0.145441
    29  C    0.000000   0.000000   0.000000  -0.000000  -0.000000  -0.002166
    30  H   -0.000000  -0.000000  -0.000000   0.000000   0.000000   0.005595
    31  H   -0.000000  -0.000000  -0.000000   0.000000   0.000001   0.009196
    32  H   -0.000000   0.000000  -0.000000  -0.000000   0.000000  -0.003321
    33  C    0.000000   0.000000   0.000000  -0.000000   0.000000  -0.014056
    34  H    0.000000  -0.000000  -0.000000   0.000000  -0.000000   0.001145
    35  H   -0.000000   0.000000   0.000000  -0.000000  -0.000000  -0.002309
    36  H    0.000000  -0.000000   0.000000   0.000000  -0.000000   0.007130
    37  C    0.000004  -0.000000   0.000000   0.000000  -0.000062  -0.002401
    38  H   -0.000000   0.000000   0.000000  -0.000000   0.000009   0.005217
    39  H   -0.000010   0.000000  -0.000000   0.000000   0.000138   0.007593
    40  H   -0.000000  -0.000000  -0.000000   0.000000   0.000002  -0.003030
    41  C    0.000000  -0.000000  -0.000000   0.000000   0.000000  -0.012581
    42  H    0.000000   0.000000   0.000000  -0.000000  -0.000000   0.000817
    43  H   -0.000000  -0.000000  -0.000000   0.000000   0.000000  -0.001811
    44  H   -0.000000  -0.000000  -0.000000   0.000000  -0.000000   0.006588
              25         26         27         28         29         30
     1  C   -0.000000   0.000000  -0.000000   0.000000  -0.000000   0.000000
     2  C   -0.000003  -0.000010  -0.000000  -0.000000   0.000000  -0.000000
     3  S   -0.000006  -0.000024  -0.000000   0.000003  -0.000000   0.000000
     4  C    0.000005   0.000011   0.000000  -0.000000  -0.000000   0.000000
     5  C   -0.017096   0.023201  -0.000075  -0.000126  -0.000137   0.000006
     6  C   -0.003055   0.001973   0.000018   0.000015   0.000075   0.000000
     7  C    0.000000  -0.000000   0.000000   0.000000   0.000000  -0.000000
     8  C    0.000001  -0.000008   0.000000  -0.000000   0.000000  -0.000000
     9  H   -0.000005   0.000002  -0.000000  -0.000000  -0.000000  -0.000000
    10  C    0.062634  -0.075008   0.000398   0.001606   0.000162  -0.000034
    11  C    0.014578  -0.001956   0.000219   0.000010  -0.000392  -0.000075
    12  C   -0.060759   0.033114   0.001066   0.000170  -0.002290   0.000084
    13  C   -0.411325  -0.339031  -0.025384  -0.023171  -0.011661  -0.000252
    14  H    0.005033   0.005928   0.000056   0.000452   0.000004   0.000000
    15  H    0.000304   0.000099   0.000007   0.000000  -0.000043  -0.000000
    16  H    0.002569   0.004712   0.000241   0.000037  -0.001576   0.000033
    17  C   -0.000000   0.000000   0.000000   0.000000  -0.000000   0.000000
    18  H    0.000000   0.000000   0.000000   0.000000  -0.000000   0.000000
    19  H    0.000000   0.000000  -0.000000  -0.000000   0.000000  -0.000000
    20  H    0.000000  -0.000000   0.000000   0.000000   0.000000  -0.000000
    21  H    0.000000  -0.000000  -0.000000  -0.000000   0.000000  -0.000000
    22  H   -0.000000   0.000000   0.000000   0.000000  -0.000000   0.000000
    23  S    0.000187   0.000220   0.000000   0.000010  -0.000000   0.000000
    24  C   -0.002961   0.075189  -0.152536  -0.145441  -0.002166   0.005595
    25  C    6.211489  -0.210723   0.552937  -0.074430  -0.049434  -0.000712
    26  C   -0.210723   6.106866  -0.078840   0.540887  -0.001249  -0.001189
    27  N    0.552937  -0.078840   6.420823  -0.001046   0.230496  -0.036059
    28  N   -0.074430   0.540887  -0.001046   6.422435  -0.000676   0.000004
    29  C   -0.049434  -0.001249   0.230496  -0.000676   4.945467   0.404917
    30  H   -0.000712  -0.001189  -0.036059   0.000004   0.404917   0.513200
    31  H   -0.017426   0.017720  -0.025983   0.000081   0.390012  -0.017159
    32  H    0.005924  -0.001178  -0.040949  -0.000003   0.406760  -0.032226
    33  C   -0.060445  -0.008847   0.249663   0.000482  -0.062880  -0.009738
    34  H    0.008780  -0.001067  -0.038951  -0.000025  -0.002103   0.006536
    35  H   -0.002666   0.002946  -0.039999  -0.000074  -0.005720  -0.001265
    36  H   -0.013763   0.000971  -0.026853  -0.001907   0.009800  -0.000040
    37  C    0.002923  -0.052640  -0.000628   0.229172   0.000023  -0.000002
    38  H   -0.001257  -0.000287   0.000004  -0.035676  -0.000002  -0.000000
    39  H    0.015281  -0.015158   0.000059  -0.025875   0.000005  -0.000000
    40  H   -0.001361   0.006006  -0.000006  -0.041431  -0.000000   0.000000
    41  C   -0.007766  -0.061987   0.000430   0.249089  -0.000152   0.000005
    42  H   -0.000993   0.008939  -0.000020  -0.038337   0.000001  -0.000000
    43  H    0.002965  -0.002725  -0.000090  -0.040837   0.000007   0.000001
    44  H    0.000394  -0.013745  -0.001815  -0.026262   0.000009   0.000000
              31         32         33         34         35         36
     1  C    0.000000  -0.000000  -0.000000   0.000000  -0.000000   0.000000
     2  C   -0.000000  -0.000000  -0.000000  -0.000000   0.000000   0.000000
     3  S    0.000000   0.000000  -0.000000   0.000000  -0.000000   0.000000
     4  C    0.000000  -0.000000  -0.000000   0.000000  -0.000000   0.000000
     5  C    0.000149  -0.000003  -0.000015   0.000000  -0.000000   0.000000
     6  C   -0.000078   0.000000  -0.000001   0.000000  -0.000000   0.000000
     7  C   -0.000000   0.000000   0.000000  -0.000000   0.000000   0.000000
     8  C   -0.000000  -0.000000   0.000000  -0.000000   0.000000  -0.000000
     9  H    0.000000   0.000000  -0.000000  -0.000000   0.000000   0.000000
    10  C   -0.000456   0.000028   0.000091  -0.000002  -0.000000   0.000006
    11  C    0.000230   0.000055   0.000015  -0.000002   0.000001   0.000000
    12  C    0.005861  -0.000098  -0.000031  -0.000003  -0.000010   0.000010
    13  C   -0.016003   0.000640  -0.002768   0.000022   0.000052  -0.000157
    14  H   -0.000017   0.000000   0.000004   0.000000  -0.000000  -0.000001
    15  H    0.000038   0.000001   0.000000  -0.000000   0.000000  -0.000000
    16  H   -0.000096   0.000301   0.000018   0.000010   0.000000  -0.000001
    17  C    0.000000  -0.000000  -0.000000   0.000000  -0.000000  -0.000000
    18  H    0.000000  -0.000000   0.000000   0.000000  -0.000000  -0.000000
    19  H   -0.000000  -0.000000   0.000000   0.000000  -0.000000   0.000000
    20  H   -0.000000   0.000000   0.000000  -0.000000   0.000000  -0.000000
    21  H   -0.000000  -0.000000   0.000000  -0.000000   0.000000   0.000000
    22  H    0.000000  -0.000000  -0.000000   0.000000  -0.000000   0.000000
    23  S    0.000001   0.000000   0.000000  -0.000000  -0.000000  -0.000000
    24  C    0.009196  -0.003321  -0.014056   0.001145  -0.002309   0.007130
    25  C   -0.017426   0.005924  -0.060445   0.008780  -0.002666  -0.013763
    26  C    0.017720  -0.001178  -0.008847  -0.001067   0.002946   0.000971
    27  N   -0.025983  -0.040949   0.249663  -0.038951  -0.039999  -0.026853
    28  N    0.000081  -0.000003   0.000482  -0.000025  -0.000074  -0.001907
    29  C    0.390012   0.406760  -0.062880  -0.002103  -0.005720   0.009800
    30  H   -0.017159  -0.032226  -0.009738   0.006536  -0.001265  -0.000040
    31  H    0.510072  -0.021080   0.008514   0.000433  -0.000278  -0.000499
    32  H   -0.021080   0.517632   0.000896  -0.003220   0.005589   0.000092
    33  C    0.008514   0.000896   4.947815   0.398207   0.415010   0.391940
    34  H    0.000433  -0.003220   0.398207   0.514257  -0.030618  -0.020010
    35  H   -0.000278   0.005589   0.415010  -0.030618   0.509928  -0.023817
    36  H   -0.000499   0.000092   0.391940  -0.020010  -0.023817   0.535162
    37  C    0.000006  -0.000000  -0.000139   0.000000   0.000007   0.000017
    38  H   -0.000000   0.000000   0.000004  -0.000000   0.000001   0.000000
    39  H   -0.000000   0.000000   0.000022  -0.000000   0.000000   0.000004
    40  H    0.000000  -0.000000  -0.000006   0.000000  -0.000000   0.000001
    41  C    0.000029  -0.000005  -0.003406   0.000192  -0.000113  -0.001958
    42  H   -0.000001   0.000000   0.000198  -0.000007   0.000015   0.000247
    43  H    0.000000  -0.000001  -0.000130   0.000019  -0.000028  -0.000124
    44  H    0.000004   0.000001  -0.002264   0.000243  -0.000089   0.003007
              37         38         39         40         41         42
     1  C   -0.000000  -0.000000   0.000003   0.000000   0.000000  -0.000000
     2  C   -0.000003   0.000000   0.000003  -0.000000  -0.000000   0.000000
     3  S   -0.000234   0.000008   0.000694   0.000012  -0.000000  -0.000000
     4  C    0.000013  -0.000000  -0.000030   0.000000   0.000000  -0.000000
     5  C   -0.000360  -0.000129   0.000075   0.000082   0.000028  -0.000002
     6  C    0.000026  -0.000006  -0.000052   0.000003   0.000001  -0.000000
     7  C   -0.000000   0.000000   0.000000  -0.000000  -0.000000   0.000000
     8  C   -0.000000   0.000000  -0.000001  -0.000000  -0.000000   0.000000
     9  H   -0.000002   0.000000   0.000006   0.000000   0.000000   0.000000
    10  C   -0.001891   0.000148   0.006292  -0.000146  -0.000011  -0.000005
    11  C   -0.000013   0.000005   0.000030  -0.000003  -0.000003   0.000000
    12  C   -0.000149  -0.000029  -0.000070   0.000023   0.000062  -0.000001
    13  C   -0.013807  -0.000512  -0.014747   0.000876  -0.002730  -0.000006
    14  H   -0.001453   0.000177   0.000764   0.000247   0.000038   0.000009
    15  H   -0.000000   0.000000  -0.000000   0.000000   0.000000   0.000000
    16  H   -0.000009   0.000000  -0.000007   0.000000   0.000003   0.000000
    17  C    0.000000  -0.000000   0.000000   0.000000   0.000000  -0.000000
    18  H    0.000000  -0.000000  -0.000000   0.000000   0.000000  -0.000000
    19  H    0.000004  -0.000000  -0.000010  -0.000000   0.000000   0.000000
    20  H   -0.000000   0.000000   0.000000  -0.000000  -0.000000   0.000000
    21  H    0.000000   0.000000  -0.000000  -0.000000  -0.000000   0.000000
    22  H    0.000000  -0.000000   0.000000   0.000000   0.000000  -0.000000
    23  S   -0.000062   0.000009   0.000138   0.000002   0.000000  -0.000000
    24  C   -0.002401   0.005217   0.007593  -0.003030  -0.012581   0.000817
    25  C    0.002923  -0.001257   0.015281  -0.001361  -0.007766  -0.000993
    26  C   -0.052640  -0.000287  -0.015158   0.006006  -0.061987   0.008939
    27  N   -0.000628   0.000004   0.000059  -0.000006   0.000430  -0.000020
    28  N    0.229172  -0.035676  -0.025875  -0.041431   0.249089  -0.038337
    29  C    0.000023  -0.000002   0.000005  -0.000000  -0.000152   0.000001
    30  H   -0.000002  -0.000000  -0.000000   0.000000   0.000005  -0.000000
    31  H    0.000006  -0.000000  -0.000000   0.000000   0.000029  -0.000001
    32  H   -0.000000   0.000000   0.000000  -0.000000  -0.000005   0.000000
    33  C   -0.000139   0.000004   0.000022  -0.000006  -0.003406   0.000198
    34  H    0.000000  -0.000000  -0.000000   0.000000   0.000192  -0.000007
    35  H    0.000007   0.000001   0.000000  -0.000000  -0.000113   0.000015
    36  H    0.000017   0.000000   0.000004   0.000001  -0.001958   0.000247
    37  C    4.953946   0.403680   0.387996   0.406638  -0.062708  -0.002238
    38  H    0.403680   0.515904  -0.017066  -0.032232  -0.009912   0.006577
    39  H    0.387996  -0.017066   0.508240  -0.020632   0.008540   0.000457
    40  H    0.406638  -0.032232  -0.020632   0.516640   0.001015  -0.003221
    41  C   -0.062708  -0.009912   0.008540   0.001015   4.948638   0.397521
    42  H   -0.002238   0.006577   0.000457  -0.003221   0.397521   0.515083
    43  H   -0.005661  -0.001266  -0.000279   0.005542   0.415308  -0.030530
    44  H    0.009722  -0.000021  -0.000488   0.000073   0.392812  -0.019997
              43         44
     1  C    0.000000   0.000000
     2  C   -0.000000   0.000000
     3  S    0.000000   0.000000
     4  C    0.000000   0.000000
     5  C    0.000001   0.000000
     6  C    0.000000   0.000000
     7  C   -0.000000  -0.000000
     8  C   -0.000000   0.000000
     9  H   -0.000000   0.000000
    10  C   -0.000010   0.000008
    11  C   -0.000000  -0.000000
    12  C   -0.000001   0.000007
    13  C    0.000102  -0.000180
    14  H   -0.000001  -0.000000
    15  H   -0.000000  -0.000000
    16  H   -0.000000  -0.000000
    17  C    0.000000   0.000000
    18  H    0.000000   0.000000
    19  H   -0.000000  -0.000000
    20  H   -0.000000  -0.000000
    21  H   -0.000000  -0.000000
    22  H    0.000000   0.000000
    23  S    0.000000  -0.000000
    24  C   -0.001811   0.006588
    25  C    0.002965   0.000394
    26  C   -0.002725  -0.013745
    27  N   -0.000090  -0.001815
    28  N   -0.040837  -0.026262
    29  C    0.000007   0.000009
    30  H    0.000001   0.000000
    31  H    0.000000   0.000004
    32  H   -0.000001   0.000001
    33  C   -0.000130  -0.002264
    34  H    0.000019   0.000243
    35  H   -0.000028  -0.000089
    36  H   -0.000124   0.003007
    37  C   -0.005661   0.009722
    38  H   -0.001266  -0.000021
    39  H   -0.000279  -0.000488
    40  H    0.005542   0.000073
    41  C    0.415308   0.392812
    42  H   -0.030530  -0.019997
    43  H    0.509739  -0.024098
    44  H   -0.024098   0.533893
 Mulliken charges:
               1
     1  C   -0.047807
     2  C   -0.235203
     3  S   -0.081358
     4  C    0.025662
     5  C   -0.196178
     6  C    0.132928
     7  C   -0.063912
     8  C    0.019735
     9  H    0.140052
    10  C   -0.116410
    11  C   -0.265761
    12  C   -0.039711
    13  C    0.074821
    14  H    0.141404
    15  H    0.126931
    16  H    0.136520
    17  C   -0.136349
    18  H    0.140297
    19  H    0.124053
    20  H    0.130989
    21  H    0.128008
    22  H    0.128201
    23  S    0.114182
    24  C   -0.437281
    25  C    0.050184
    26  C    0.036889
    27  N    0.012816
    28  N    0.010866
    29  C   -0.247256
    30  H    0.168371
    31  H    0.156729
    32  H    0.164165
    33  C   -0.248153
    34  H    0.166163
    35  H    0.173438
    36  H    0.140743
    37  C   -0.249774
    38  H    0.166661
    39  H    0.158217
    40  H    0.164910
    41  C   -0.250378
    42  H    0.165493
    43  H    0.173906
    44  H    0.142197
 Sum of Mulliken charges =   1.00000
 Mulliken charges with hydrogens summed into heavy atoms:
               1
     1  C    0.092490
     2  C   -0.235203
     3  S    0.042695
     4  C    0.025662
     5  C   -0.196178
     6  C    0.132928
     7  C    0.067076
     8  C    0.147743
    10  C    0.024994
    11  C   -0.138831
    12  C    0.096809
    13  C    0.074821
    17  C   -0.008148
    23  S    0.254234
    24  C   -0.437281
    25  C    0.050184
    26  C    0.036889
    27  N    0.012816
    28  N    0.010866
    29  C    0.242009
    33  C    0.232191
    37  C    0.240014
    41  C    0.231218
 Electronic spatial extent (au):  <R**2>=          12335.4217
 Charge=              1.0000 electrons
 Dipole moment (field-independent basis, Debye):
    X=            -12.4262    Y=              1.2127    Z=              0.4971  Tot=             12.4952
 Quadrupole moment (field-independent basis, Debye-Ang):
   XX=            -28.2394   YY=           -114.6999   ZZ=           -141.4081
   XY=             -6.8265   XZ=              4.7936   YZ=              3.2261
 Traceless Quadrupole moment (field-independent basis, Debye-Ang):
   XX=             66.5431   YY=            -19.9174   ZZ=            -46.6256
   XY=             -6.8265   XZ=              4.7936   YZ=              3.2261
 Octapole moment (field-independent basis, Debye-Ang**2):
  XXX=           -402.3601  YYY=             37.5166  ZZZ=              9.2925  XYY=            -90.8224
  XXY=            -38.5955  XXZ=            -51.3778  XZZ=             11.7466  YZZ=              1.6084
  YYZ=             -3.0313  XYZ=              1.5568
 Hexadecapole moment (field-independent basis, Debye-Ang**3):
 XXXX=          -9416.7123 YYYY=          -2560.5600 ZZZZ=           -705.9240 XXXY=            -30.3984
 XXXZ=            -97.8524 YYYX=            -91.5329 YYYZ=             61.1759 ZZZX=             20.9391
 ZZZY=            -11.8681 XXYY=          -2025.5305 XXZZ=          -2139.6932 YYZZ=           -599.2925
 XXYZ=             59.5772 YYXZ=             52.5833 ZZXY=            -18.8012
 N-N= 2.022484843669D+03 E-N=-7.878614929461D+03  KE= 1.634619537970D+03
 No NMR shielding tensors so no spin-rotation constants.
 Leave Link  601 at Tue Jan 26 16:30:14 2021, MaxMem=  4026531840 cpu:               3.4 elap:               0.5
 (Enter /opt/ohpc/pub/libs/gaussian/g16-A.03/sandybridge/g16/l9999.exe)

 Test job not archived.
 1\1\GINC-GNODE020\SP\RLC-wHPBE\TZVP\C19H21N2S2(1+)\RDU230\26-Jan-2021\
 0\\#P LC-wHPBE/TZVP iop(3/107=0156200000, 3/108=0156200000) scf=(conve
 r=6,fermi,ndamp=35,noincfock,novaracc,vshift=500,xqc)\\H21 C19 S2 N2\\
 1,1\C,0,5.141333,0.341453,-1.428653\C,0,4.24633,0.793113,-0.45792\S,0,
 3.527427,2.438238,-0.612926\C,0,3.85258,-0.085202,0.570411\C,0,0.86370
 8,-0.787434,0.770822\C,0,1.152588,-1.949541,0.292605\C,0,5.641454,-0.9
 63707,-1.38032\C,0,4.337968,-1.397272,0.611701\H,0,2.805747,-0.536686,
 2.620663\C,0,-0.32759,-0.104924,0.757243\C,0,0.161049,-2.709273,-0.336
 618\C,0,-1.110551,-2.125038,-0.416532\C,0,-1.366563,-0.836811,0.116144
 \H,0,-0.506361,0.876389,1.203135\H,0,0.333628,-3.701573,-0.760587\H,0,
 -1.915541,-2.656529,-0.930176\C,0,5.242141,-1.827604,-0.363151\H,0,5.4
 50891,1.02542,-2.21936\H,0,4.15948,2.9901,0.460876\H,0,6.34791,-1.2988
 86,-2.140548\H,0,4.022912,-2.077842,1.402557\H,0,5.625918,-2.84765,-0.
 32369\S,0,2.641644,0.489998,1.741439\C,0,-2.680648,-0.257498,0.003764\
 C,0,-4.05427,-0.413992,-0.132503\C,0,-3.489875,0.870167,-0.052158\N,0,
 -5.09974,-1.211802,-0.243141\N,0,-3.607387,2.185094,-0.049886\C,0,-4.9
 5887,-2.66296,-0.086881\H,0,-5.24939,-3.175063,-1.01565\H,0,-3.921906,
 -2.911213,0.159186\H,0,-5.607057,-3.011636,0.730112\C,0,-6.456302,-0.7
 08508,-0.463149\H,0,-6.932296,-1.289768,-1.265044\H,0,-7.06234,-0.8046
 38,0.450448\H,0,-6.424137,0.340187,-0.774131\C,0,-2.422516,3.047015,-0
 .104701\H,0,-2.374233,3.683098,0.791036\H,0,-1.518165,2.434104,-0.1685
 34\H,0,-2.472812,3.689712,-0.995626\C,0,-4.905946,2.85982,-0.071613\H,
 0,-4.903422,3.671788,0.668659\H,0,-5.109136,3.28812,-1.064906\H,0,-5.7
 0105,2.156915,0.195603\\Version=EM64L-G16RevA.03\State=1-A\HF=-1641.29
 10452\RMSD=7.288e-07\Dipole=-4.888859,0.4771262,0.1955894\Quadrupole=4
 9.4731334,-14.8081313,-34.6650021,-5.0753003,3.5639047,2.3985576\PG=C0
 1 [X(C19H21N2S2)]\\@


 MOM AND DAD WENT TO ALPHA CENTAURI AND ALL
 I GOT WAS THIS DUMB T-SHIRT.
 Job cpu time:       0 days  1 hours 34 minutes 44.1 seconds.
 Elapsed time:       0 days  0 hours 11 minutes 51.7 seconds.
 File lengths (MBytes):  RWF=    156 Int=      0 D2E=      0 Chk=     24 Scr=      8
 Normal termination of Gaussian 16 at Tue Jan 26 16:30:14 2021.
