 Entering Gaussian System, Link 0=g16
 Input=mol_ta_cp_half_tune_n10.gjf
 Output=mol_ta_cp_half_tune_n10.log
 Initial command:
 /opt/ohpc/pub/libs/gaussian/g16-A.03/sandybridge/g16/l1.exe "/mnt/gpfs2_4m/scratch/rdu230/ondemand/projects/init_structures/gaussian/wtuning/mol_ta_cp_half/tuning_mol_ta_cp_half_ocycle0/Gau-18623.inp" -scrdir="/mnt/gpfs2_4m/scratch/rdu230/ondemand/projects/init_structures/gaussian/wtuning/mol_ta_cp_half/tuning_mol_ta_cp_half_ocycle0/"
 Entering Link 1 = /opt/ohpc/pub/libs/gaussian/g16-A.03/sandybridge/g16/l1.exe PID=     18624.
  
 Copyright (c) 1988,1990,1992,1993,1995,1998,2003,2009,2016,
            Gaussian, Inc.  All Rights Reserved.
  
 This is part of the Gaussian(R) 16 program.  It is based on
 the Gaussian(R) 09 system (copyright 2009, Gaussian, Inc.),
 the Gaussian(R) 03 system (copyright 2003, Gaussian, Inc.),
 the Gaussian(R) 98 system (copyright 1998, Gaussian, Inc.),
 the Gaussian(R) 94 system (copyright 1995, Gaussian, Inc.),
 the Gaussian 92(TM) system (copyright 1992, Gaussian, Inc.),
 the Gaussian 90(TM) system (copyright 1990, Gaussian, Inc.),
 the Gaussian 88(TM) system (copyright 1988, Gaussian, Inc.),
 the Gaussian 86(TM) system (copyright 1986, Carnegie Mellon
 University), and the Gaussian 82(TM) system (copyright 1983,
 Carnegie Mellon University). Gaussian is a federally registered
 trademark of Gaussian, Inc.
  
 This software contains proprietary and confidential information,
 including trade secrets, belonging to Gaussian, Inc.
  
 This software is provided under written license and may be
 used, copied, transmitted, or stored only in accord with that
 written license.
  
 The following legend is applicable only to US Government
 contracts under FAR:
  
                    RESTRICTED RIGHTS LEGEND
  
 Use, reproduction and disclosure by the US Government is
 subject to restrictions as set forth in subparagraphs (a)
 and (c) of the Commercial Computer Software - Restricted
 Rights clause in FAR 52.227-19.
  
 Gaussian, Inc.
 340 Quinnipiac St., Bldg. 40, Wallingford CT 06492
  
  
 ---------------------------------------------------------------
 Warning -- This program may not be used in any manner that
 competes with the business of Gaussian, Inc. or will provide
 assistance to any competitor of Gaussian, Inc.  The licensee
 of this program is prohibited from giving any competitor of
 Gaussian, Inc. access to this program.  By using this program,
 the user acknowledges that Gaussian, Inc. is engaged in the
 business of creating and licensing software in the field of
 computational chemistry and represents and warrants to the
 licensee that it is not a competitor of Gaussian, Inc. and that
 it will not use this program in any manner prohibited above.
 ---------------------------------------------------------------
  

 Cite this work as:
 Gaussian 16, Revision A.03,
 M. J. Frisch, G. W. Trucks, H. B. Schlegel, G. E. Scuseria, 
 M. A. Robb, J. R. Cheeseman, G. Scalmani, V. Barone, 
 G. A. Petersson, H. Nakatsuji, X. Li, M. Caricato, A. V. Marenich, 
 J. Bloino, B. G. Janesko, R. Gomperts, B. Mennucci, H. P. Hratchian, 
 J. V. Ortiz, A. F. Izmaylov, J. L. Sonnenberg, D. Williams-Young, 
 F. Ding, F. Lipparini, F. Egidi, J. Goings, B. Peng, A. Petrone, 
 T. Henderson, D. Ranasinghe, V. G. Zakrzewski, J. Gao, N. Rega, 
 G. Zheng, W. Liang, M. Hada, M. Ehara, K. Toyota, R. Fukuda, 
 J. Hasegawa, M. Ishida, T. Nakajima, Y. Honda, O. Kitao, H. Nakai, 
 T. Vreven, K. Throssell, J. A. Montgomery, Jr., J. E. Peralta, 
 F. Ogliaro, M. J. Bearpark, J. J. Heyd, E. N. Brothers, K. N. Kudin, 
 V. N. Staroverov, T. A. Keith, R. Kobayashi, J. Normand, 
 K. Raghavachari, A. P. Rendell, J. C. Burant, S. S. Iyengar, 
 J. Tomasi, M. Cossi, J. M. Millam, M. Klene, C. Adamo, R. Cammi, 
 J. W. Ochterski, R. L. Martin, K. Morokuma, O. Farkas, 
 J. B. Foresman, and D. J. Fox, Gaussian, Inc., Wallingford CT, 2016.
 
 ******************************************
 Gaussian 16:  EM64L-G16RevA.03 25-Dec-2016
                26-Jan-2021 
 ******************************************
 %mem=30GB
 %nproc=8
 Will use up to    8 processors via shared memory.
 ----------------------------------------------------------------------
 #P LC-wHPBE/TZVP iop(3/107=0172700000, 3/108=0172700000) scf=(conver=6
 ,fermi,ndamp=35,noincfock,novaracc,vshift=500,xqc)
 ----------------------------------------------------------------------
 1/38=1,172=1/1;
 2/12=2,17=6,18=5,40=1/2;
 3/5=19,7=101,11=2,25=1,30=1,74=-71,107=172700000,108=172700000/1,2,3;
 4//1;
 5/5=100002,6=6,8=3,10=500,13=1,18=-1,22=13,38=1,93=35/2,8;
 6/7=2,8=2,9=2,10=2,28=1/1;
 99/5=1,9=1/99;
 Leave Link    1 at Tue Jan 26 23:38:59 2021, MaxMem=  4026531840 cpu:               1.7 elap:               0.2
 (Enter /opt/ohpc/pub/libs/gaussian/g16-A.03/sandybridge/g16/l101.exe)
 -------------
 H21 C19 S2 N2
 -------------
 Symbolic Z-matrix:
 Charge =  1 Multiplicity = 1
 C                     5.14133   0.34145  -1.42865 
 C                     4.24633   0.79311  -0.45792 
 S                     3.52743   2.43824  -0.61293 
 C                     3.85258  -0.0852    0.57041 
 C                     0.86371  -0.78743   0.77082 
 C                     1.15259  -1.94954   0.29261 
 C                     5.64145  -0.96371  -1.38032 
 C                     4.33797  -1.39727   0.6117 
 H                     2.80575  -0.53669   2.62066 
 C                    -0.32759  -0.10492   0.75724 
 C                     0.16105  -2.70927  -0.33662 
 C                    -1.11055  -2.12504  -0.41653 
 C                    -1.36656  -0.83681   0.11614 
 H                    -0.50636   0.87639   1.20314 
 H                     0.33363  -3.70157  -0.76059 
 H                    -1.91554  -2.65653  -0.93018 
 C                     5.24214  -1.8276   -0.36315 
 H                     5.45089   1.02542  -2.21936 
 H                     4.15948   2.9901    0.46088 
 H                     6.34791  -1.29889  -2.14055 
 H                     4.02291  -2.07784   1.40256 
 H                     5.62592  -2.84765  -0.32369 
 S                     2.64164   0.49      1.74144 
 C                    -2.68065  -0.2575    0.00376 
 C                    -4.05427  -0.41399  -0.1325 
 C                    -3.48988   0.87017  -0.05216 
 N                    -5.09974  -1.2118   -0.24314 
 N                    -3.60739   2.18509  -0.04989 
 C                    -4.95887  -2.66296  -0.08688 
 H                    -5.24939  -3.17506  -1.01565 
 H                    -3.92191  -2.91121   0.15919 
 H                    -5.60706  -3.01164   0.73011 
 C                    -6.4563   -0.70851  -0.46315 
 H                    -6.9323   -1.28977  -1.26504 
 H                    -7.06234  -0.80464   0.45045 
 H                    -6.42414   0.34019  -0.77413 
 C                    -2.42252   3.04702  -0.1047 
 H                    -2.37423   3.6831    0.79104 
 H                    -1.51817   2.4341   -0.16853 
 H                    -2.47281   3.68971  -0.99563 
 C                    -4.90595   2.85982  -0.07161 
 H                    -4.90342   3.67179   0.66866 
 H                    -5.10914   3.28812  -1.06491 
 H                    -5.70105   2.15692   0.1956 
 
 ITRead=  0  0  0  0  0  0  0  0  0  0  0  0  0  0  0  0  0  0  0  0
 ITRead=  0  0  0  0  0  0  0  0  0  0  0  0  0  0  0  0  0  0  0  0
 ITRead=  0  0  0  0
 MicOpt= -1 -1 -1 -1 -1 -1 -1 -1 -1 -1 -1 -1 -1 -1 -1 -1 -1 -1 -1 -1
 MicOpt= -1 -1 -1 -1 -1 -1 -1 -1 -1 -1 -1 -1 -1 -1 -1 -1 -1 -1 -1 -1
 MicOpt= -1 -1 -1 -1
 NAtoms=     44 NQM=       44 NQMF=       0 NMMI=      0 NMMIF=      0
                NMic=       0 NMicF=      0.
                    Isotopes and Nuclear Properties:
 (Nuclear quadrupole moments (NQMom) in fm**2, nuclear magnetic moments (NMagM)
  in nuclear magnetons)

  Atom         1           2           3           4           5           6           7           8           9          10
 IAtWgt=          12          12          32          12          12          12          12          12           1          12
 AtmWgt=  12.0000000  12.0000000  31.9720718  12.0000000  12.0000000  12.0000000  12.0000000  12.0000000   1.0078250  12.0000000
 NucSpn=           0           0           0           0           0           0           0           0           1           0
 AtZEff=  -0.0000000  -0.0000000  -0.0000000  -0.0000000  -0.0000000  -0.0000000  -0.0000000  -0.0000000  -0.0000000  -0.0000000
 NQMom=    0.0000000   0.0000000   0.0000000   0.0000000   0.0000000   0.0000000   0.0000000   0.0000000   0.0000000   0.0000000
 NMagM=    0.0000000   0.0000000   0.0000000   0.0000000   0.0000000   0.0000000   0.0000000   0.0000000   2.7928460   0.0000000
 AtZNuc=   6.0000000   6.0000000  16.0000000   6.0000000   6.0000000   6.0000000   6.0000000   6.0000000   1.0000000   6.0000000

  Atom        11          12          13          14          15          16          17          18          19          20
 IAtWgt=          12          12          12           1           1           1          12           1           1           1
 AtmWgt=  12.0000000  12.0000000  12.0000000   1.0078250   1.0078250   1.0078250  12.0000000   1.0078250   1.0078250   1.0078250
 NucSpn=           0           0           0           1           1           1           0           1           1           1
 AtZEff=  -0.0000000  -0.0000000  -0.0000000  -0.0000000  -0.0000000  -0.0000000  -0.0000000  -0.0000000  -0.0000000  -0.0000000
 NQMom=    0.0000000   0.0000000   0.0000000   0.0000000   0.0000000   0.0000000   0.0000000   0.0000000   0.0000000   0.0000000
 NMagM=    0.0000000   0.0000000   0.0000000   2.7928460   2.7928460   2.7928460   0.0000000   2.7928460   2.7928460   2.7928460
 AtZNuc=   6.0000000   6.0000000   6.0000000   1.0000000   1.0000000   1.0000000   6.0000000   1.0000000   1.0000000   1.0000000

  Atom        21          22          23          24          25          26          27          28          29          30
 IAtWgt=           1           1          32          12          12          12          14          14          12           1
 AtmWgt=   1.0078250   1.0078250  31.9720718  12.0000000  12.0000000  12.0000000  14.0030740  14.0030740  12.0000000   1.0078250
 NucSpn=           1           1           0           0           0           0           2           2           0           1
 AtZEff=  -0.0000000  -0.0000000  -0.0000000  -0.0000000  -0.0000000  -0.0000000  -0.0000000  -0.0000000  -0.0000000  -0.0000000
 NQMom=    0.0000000   0.0000000   0.0000000   0.0000000   0.0000000   0.0000000   2.0440000   2.0440000   0.0000000   0.0000000
 NMagM=    2.7928460   2.7928460   0.0000000   0.0000000   0.0000000   0.0000000   0.4037610   0.4037610   0.0000000   2.7928460
 AtZNuc=   1.0000000   1.0000000  16.0000000   6.0000000   6.0000000   6.0000000   7.0000000   7.0000000   6.0000000   1.0000000

  Atom        31          32          33          34          35          36          37          38          39          40
 IAtWgt=           1           1          12           1           1           1          12           1           1           1
 AtmWgt=   1.0078250   1.0078250  12.0000000   1.0078250   1.0078250   1.0078250  12.0000000   1.0078250   1.0078250   1.0078250
 NucSpn=           1           1           0           1           1           1           0           1           1           1
 AtZEff=  -0.0000000  -0.0000000  -0.0000000  -0.0000000  -0.0000000  -0.0000000  -0.0000000  -0.0000000  -0.0000000  -0.0000000
 NQMom=    0.0000000   0.0000000   0.0000000   0.0000000   0.0000000   0.0000000   0.0000000   0.0000000   0.0000000   0.0000000
 NMagM=    2.7928460   2.7928460   0.0000000   2.7928460   2.7928460   2.7928460   0.0000000   2.7928460   2.7928460   2.7928460
 AtZNuc=   1.0000000   1.0000000   6.0000000   1.0000000   1.0000000   1.0000000   6.0000000   1.0000000   1.0000000   1.0000000

  Atom        41          42          43          44
 IAtWgt=          12           1           1           1
 AtmWgt=  12.0000000   1.0078250   1.0078250   1.0078250
 NucSpn=           0           1           1           1
 AtZEff=  -0.0000000  -0.0000000  -0.0000000  -0.0000000
 NQMom=    0.0000000   0.0000000   0.0000000   0.0000000
 NMagM=    0.0000000   2.7928460   2.7928460   2.7928460
 AtZNuc=   6.0000000   1.0000000   1.0000000   1.0000000
 Leave Link  101 at Tue Jan 26 23:38:59 2021, MaxMem=  4026531840 cpu:               0.7 elap:               0.1
 (Enter /opt/ohpc/pub/libs/gaussian/g16-A.03/sandybridge/g16/l202.exe)
                          Input orientation:                          
 ---------------------------------------------------------------------
 Center     Atomic      Atomic             Coordinates (Angstroms)
 Number     Number       Type             X           Y           Z
 ---------------------------------------------------------------------
      1          6           0        5.141333    0.341453   -1.428653
      2          6           0        4.246330    0.793113   -0.457920
      3         16           0        3.527427    2.438238   -0.612926
      4          6           0        3.852580   -0.085202    0.570411
      5          6           0        0.863708   -0.787434    0.770822
      6          6           0        1.152588   -1.949541    0.292605
      7          6           0        5.641454   -0.963707   -1.380320
      8          6           0        4.337968   -1.397272    0.611701
      9          1           0        2.805747   -0.536686    2.620663
     10          6           0       -0.327590   -0.104924    0.757243
     11          6           0        0.161049   -2.709273   -0.336618
     12          6           0       -1.110551   -2.125038   -0.416532
     13          6           0       -1.366563   -0.836811    0.116144
     14          1           0       -0.506361    0.876389    1.203135
     15          1           0        0.333628   -3.701573   -0.760587
     16          1           0       -1.915541   -2.656529   -0.930176
     17          6           0        5.242141   -1.827604   -0.363151
     18          1           0        5.450891    1.025420   -2.219360
     19          1           0        4.159480    2.990100    0.460876
     20          1           0        6.347910   -1.298886   -2.140548
     21          1           0        4.022912   -2.077842    1.402557
     22          1           0        5.625918   -2.847650   -0.323690
     23         16           0        2.641644    0.489998    1.741439
     24          6           0       -2.680648   -0.257498    0.003764
     25          6           0       -4.054270   -0.413992   -0.132503
     26          6           0       -3.489875    0.870167   -0.052158
     27          7           0       -5.099740   -1.211802   -0.243141
     28          7           0       -3.607387    2.185094   -0.049886
     29          6           0       -4.958870   -2.662960   -0.086881
     30          1           0       -5.249390   -3.175063   -1.015650
     31          1           0       -3.921906   -2.911213    0.159186
     32          1           0       -5.607057   -3.011636    0.730112
     33          6           0       -6.456302   -0.708508   -0.463149
     34          1           0       -6.932296   -1.289768   -1.265044
     35          1           0       -7.062340   -0.804638    0.450448
     36          1           0       -6.424137    0.340187   -0.774131
     37          6           0       -2.422516    3.047015   -0.104701
     38          1           0       -2.374233    3.683098    0.791036
     39          1           0       -1.518165    2.434104   -0.168534
     40          1           0       -2.472812    3.689712   -0.995626
     41          6           0       -4.905946    2.859820   -0.071613
     42          1           0       -4.903422    3.671788    0.668659
     43          1           0       -5.109136    3.288120   -1.064906
     44          1           0       -5.701050    2.156915    0.195603
 ---------------------------------------------------------------------
                    Distance matrix (angstroms):
                    1          2          3          4          5
     1  C    0.000000
     2  C    1.395475   0.000000
     3  S    2.768864   1.802022   0.000000
     4  C    2.416439   1.408524   2.806022   0.000000
     5  C    4.940663   3.930657   4.406259   3.076792   0.000000
     6  C    4.911361   4.201985   5.070745   3.292855   1.289432
     7  C    1.398535   2.425615   4.078141   2.788762   5.242646
     8  C    2.798500   2.439318   4.107046   1.399584   3.530964
     9  H    4.756369   3.649838   4.452762   2.345897   2.693752
    10  C    5.906481   4.817036   4.817281   4.184390   1.373024
    11  C    5.941607   5.382466   6.156762   4.619075   2.326718
    12  C    6.796618   6.100286   6.509447   5.455974   2.663962
    13  C    6.791717   5.872884   5.933686   5.292516   2.324898
    14  H    6.253712   5.035287   4.691364   4.508366   2.198247
    15  H    6.317151   5.966829   6.922387   5.218498   3.334427
    16  H    7.683479   7.077550   7.462118   6.491125   3.756479
    17  C    2.418732   2.805134   4.604350   2.416275   4.640962
    18  H    1.090346   2.146533   2.876873   3.401603   5.768004
    19  H    3.398483   2.382956   1.362752   3.092518   5.022743
    20  H    2.157159   3.409448   4.924921   3.879304   6.230099
    21  H    3.888393   3.428363   4.970177   2.166124   3.470564
    22  H    3.409713   3.895695   5.694553   3.402244   5.302932
    23  S    4.039801   2.739357   3.181711   1.780036   2.394783
    24  C    7.974581   7.021393   6.796138   6.560019   3.664924
    25  C    9.317179   8.394222   8.114687   7.944839   5.014176
    26  C    8.756257   7.747222   7.212200   7.430476   4.730605
    27  N   10.425815   9.561111   9.374836   9.059532   6.063903
    28  N    9.046553   7.986550   7.161471   7.822411   5.431406
    29  C   10.622662   9.839605   9.915452   9.204266   6.177027
    30  H   10.977412  10.306609  10.426114   9.742109   6.801634
    31  H    9.759271   8.990157   9.203551   8.282396   5.271303
    32  H   11.464352  10.629053  10.721179   9.903245   6.842480
    33  C   11.685023  10.807462  10.468968  10.379297   7.423709
    34  H   12.184423  11.399628  11.123358  11.006063   8.073089
    35  H   12.400572  11.457048  11.126103  10.939262   7.932539
    36  H   11.583976  10.684755  10.171599  10.373026   7.534659
    37  C    8.141543   7.048287   6.002560   7.045807   5.125311
    38  H    8.519234   7.331013   6.192768   7.281618   5.519993
    39  H    7.093377   6.000500   5.065126   5.978114   4.115096
    40  H    8.329079   7.336640   6.141296   7.530806   5.856410
    41  C   10.446604   9.390669   8.461237   9.262674   6.877577
    42  H   10.788278   9.657842   8.616456   9.528494   7.290740
    43  H   10.671798   9.701455   8.690041   9.714212   7.460221
    44  H   11.112667  10.061681   9.268098   9.820357   7.217764
                    6          7          8          9         10
     6  C    0.000000
     7  C    4.890855   0.000000
     8  C    3.248610   2.419752   0.000000
     9  H    3.185741   4.922545   2.669127   0.000000
    10  C    2.410275   6.398138   4.843426   3.671043   0.000000
    11  C    1.398665   5.845610   4.479655   4.523281   2.866694
    12  C    2.378124   6.918609   5.592251   5.204306   2.464069
    13  C    2.759607   7.167134   5.753379   4.875537   1.423422
    14  H    3.401038   6.917790   5.383944   3.869913   1.092590
    15  H    2.202164   6.004415   4.819514   5.249832   3.959407
    16  H    3.377638   7.757348   6.562735   6.276365   3.446688
    17  C    4.143589   1.392983   1.397516   4.062712   5.936734
    18  H    5.799635   2.167240   3.888823   5.732607   6.597627
    19  H    5.785306   4.606391   4.393591   4.351493   5.459011
    20  H    5.773643   1.090583   3.409461   5.983059   7.374621
    21  H    3.080132   3.406667   1.089903   2.310938   4.820343
    22  H    4.604031   2.160081   2.153455   4.686484   6.643434
    23  S    3.204334   4.567001   2.777699   1.361633   3.184168
    24  C    4.200016   8.465920   7.136501   6.084952   2.475458
    25  C    5.445181   9.791134   8.482354   7.392889   3.843867
    26  C    5.442617   9.407884   8.176620   6.982697   3.406755
    27  N    6.318456  10.804072   9.478158   8.435276   4.999936
    28  N    6.314259   9.860328   8.740693   7.461113   4.080773
    29  C    6.164649  10.813293   9.408569   8.493592   5.357691
    30  H    6.648215  11.119063   9.885659   9.223288   6.065725
    31  H    5.166537   9.880319   8.409656   7.547090   4.599134
    32  H    6.856549  11.626562  10.075898   8.970777   6.026814
    33  C    7.746388  12.135157  10.869497   9.763451   6.278119
    34  H    8.259959  12.578505  11.425961  10.511676   7.008255
    35  H    8.295828  12.836019  11.416840  10.107461   6.777948
    36  H    7.986710  12.150971  10.989186   9.873413   6.301676
    37  C    6.156687   9.096192   8.122134   6.899656   3.881544
    38  H    6.664347   9.516240   8.419974   6.927215   4.305694
    39  H    5.153825   8.017087   7.041484   5.941500   2.953167
    40  H    6.826730   9.361817   8.651453   7.668323   4.698275
    41  C    7.743929  11.295119  10.199985   8.846175   5.517069
    42  H    8.271397  11.699596  10.540489   8.997381   5.933771
    43  H    8.275573  11.565150  10.677625   9.531943   6.139720
    44  H    7.990291  11.869044  10.657733   9.246729   5.857084
                   11         12         13         14         15
    11  C    0.000000
    12  C    1.401672   0.000000
    13  C    2.458598   1.417327   0.000000
    14  H    3.958945   3.463659   2.203758   0.000000
    15  H    1.092791   2.165523   3.444730   5.051685   0.000000
    16  H    2.160398   1.092850   2.169686   4.360999   2.485888
    17  C    5.157086   6.359875   6.699729   6.542943   5.269081
    18  H    6.743521   7.498540   7.443129   6.872011   7.117504
    19  H    7.007589   7.396466   6.730620   5.175789   7.804332
    20  H    6.597015   7.699571   8.051041   7.930515   6.621842
    21  H    4.282221   5.446444   5.678156   5.411244   4.574550
    22  H    5.466636   6.775751   7.289151   7.335156   5.378513
    23  S    4.550495   5.057096   4.524127   3.216987   5.399661
    24  C    3.768594   2.475795   1.440504   2.729783   4.640231
    25  C    4.804050   3.416699   2.732100   4.004581   5.518725
    26  C    5.120796   3.842552   2.729570   3.236843   6.001821
    27  N    5.470563   4.096058   3.769126   5.248941   5.999016
    28  N    6.183701   4.994583   3.765736   3.591536   7.119659
    29  C    5.126215   3.899691   4.034936   5.832321   5.435359
    30  H    5.472741   4.311784   4.671694   6.620694   5.613587
    31  H    4.117903   2.975439   3.291622   5.205930   4.424954
    32  H    5.873703   4.724343   4.805061   6.430987   6.163598
    33  C    6.914362   5.530442   5.124206   6.378887   7.426308
    34  H    7.293320   5.942252   5.752411   7.216425   7.672349
    35  H    7.511621   6.157833   5.705670   6.809791   8.034873
    36  H    7.270165   5.868510   5.268488   6.262361   7.874223
    37  C    6.313750   5.344962   4.030870   3.177059   7.319150
    38  H    6.968620   6.065440   4.679792   3.396526   8.017070
    39  H    5.413163   4.584041   3.286778   2.309047   6.436319
    40  H    6.951153   6.000202   4.790535   4.076305   7.909642
    41  C    7.533888   6.274775   5.121286   4.991526   8.424945
    42  H    8.208373   7.011897   5.756918   5.237754   9.156194
    43  H    8.017105   6.761017   5.693574   5.669744   8.864090
    44  H    7.637228   6.307338   5.268443   5.444232   8.464840
                   16         17         18         19         20
    16  H    0.000000
    17  C    7.227797   0.000000
    18  H    8.335650   3.410108   0.000000
    19  H    8.409835   5.006141   3.565302   0.000000
    20  H    8.461254   2.159029   2.492640   5.472845   0.000000
    21  H    6.406383   2.160292   4.978719   5.156496   4.308826
    22  H    7.568220   1.090567   4.315654   6.070034   2.494176
    23  S    6.148666   4.069787   4.885333   3.192832   5.657414
    24  C    2.685700   8.085199   8.527021   7.585723   9.337956
    25  C    3.199909   9.406102   9.837427   8.910984  10.631116
    26  C    3.960685   9.144550   9.200987   7.954241  10.288254
    27  N    3.563478  10.360894  10.964781  10.192388  11.604156
    28  N    5.203707   9.721832   9.386366   7.825160  10.752531
    29  C    3.158012  10.238885  11.247877  10.742506  11.572447
    30  H    3.375016  10.597812  11.558070  11.345316  11.801814
    31  H    2.297188   9.242662  10.440493  10.011259  10.646948
    32  H    4.063243  10.968238  12.135708  11.466410  12.413518
    33  C    4.963004  11.752274  12.160264  11.279555  12.927106
    34  H    5.210375  12.219640  12.633849  12.013474  13.309037
    35  H    5.641380  12.373708  12.925089  11.846071  13.667200
    36  H    5.415911  11.873090  11.982259  10.979992  12.949086
    37  C    5.785227   9.087116   8.399355   6.606496   9.997595
    38  H    6.585123   9.471491   8.795357   6.578652  10.463753
    39  H    5.162611   7.993858   7.399866   5.739420   8.927440
    40  H    6.370998   9.505856   8.448730   6.826284  10.198142
    41  C    6.333227  11.182156  10.735079   9.081986  12.174753
    42  H    7.178531  11.586216  11.070488   9.090878  12.617120
    43  H    6.749522  11.567715  10.861250   9.398089  12.387959
    44  H    6.226291  11.659418  11.466391   9.899223  12.750592
                   21         22         23         24         25
    21  H    0.000000
    22  H    2.478338   0.000000
    23  S    2.935395   4.930572   0.000000
    24  C    7.085760   8.707190   5.648456   0.000000
    25  C    8.388425   9.983250   7.011713   1.389207   0.000000
    26  C    8.200544   9.848532   6.399769   1.389102   1.405013
    27  N    9.310270  10.849987   8.170906   2.612214   1.319753
    28  N    8.860230  10.519382   6.718079   2.613040   2.638518
    29  C    9.123223  10.589047   8.429218   3.314326   2.424508
    30  H    9.645061  10.902217   9.127027   4.018685   3.135566
    31  H    8.084591   9.560238   7.559891   2.933783   2.517681
    32  H    9.698477  11.283489   9.018054   4.083715   3.146904
    33  C   10.731722  12.270918   9.437650   3.831055   2.442504
    34  H   11.302820  12.689440  10.191508   4.555433   3.214447
    35  H   11.198677  12.874979   9.874717   4.438256   3.088838
    36  H   10.941922  12.472731   9.409512   3.869891   2.568412
    37  C    8.371352   9.978593   5.965927   3.316354   3.826482
    38  H    8.630519  10.387285   6.021476   4.030135   4.523449
    39  H    7.316387   8.885883   4.973083   2.936967   3.813762
    40  H    9.011681  10.429671   6.624753   4.077063   4.481783
    41  C   10.309131  11.981607   8.115992   3.830836   3.383327
    42  H   10.643133  12.423962   8.258491   4.563124   4.249296
    43  H   10.875487  12.387028   8.705151   4.428433   3.960777
    44  H   10.674518  12.394174   8.646893   3.871566   3.070684
                   26         27         28         29         30
    26  C    0.000000
    27  N    2.638699   0.000000
    28  N    1.320169   3.715288   0.000000
    29  C    3.826505   1.466329   5.033041   0.000000
    30  H    4.515318   2.115079   5.688599   1.099665   0.000000
    31  H    3.811844   2.106456   5.110282   1.094291   1.792225
    32  H    4.490301   2.108078   5.622551   1.099636   1.789502
    33  C    3.385383   1.463547   4.081671   2.490735   2.801033
    34  H    4.241070   2.099673   4.960473   2.677337   2.539430
    35  H    3.977448   2.121001   4.596252   2.857738   3.324928
    36  H    3.067901   2.108233   3.444168   3.411482   3.714208
    37  C    2.425012   5.032317   1.466230   6.247978   6.894585
    38  H    3.141371   5.697188   2.114671   6.908223   7.652778
    39  H    2.519342   5.111348   2.107352   6.150218   6.789875
    40  H    3.142353   5.611758   2.108450   6.882060   7.405061
    41  C    2.442203   4.079839   1.463551   5.523055   6.117922
    42  H    3.219747   4.971858   2.099112   6.379886   7.059459
    43  H    3.081260   4.574351   2.121835   6.032783   6.464892
    44  H    2.570292   3.449975   2.108194   4.884857   5.486449
                   31         32         33         34         35
    31  H    0.000000
    32  H    1.782070   0.000000
    33  C    3.415022   2.729375   0.000000
    34  H    3.704047   2.949870   1.098849   0.000000
    35  H    3.792732   2.658364   1.100537   1.787505   0.000000
    36  H    4.207593   3.763653   1.094306   1.776506   1.793745
    37  C    6.149658   6.895322   5.523031   6.363348   6.055691
    38  H    6.802901   7.434671   6.125559   7.052149   6.498778
    39  H    5.870075   6.868965   5.860717   6.662010   6.450617
    40  H    6.856068   7.596692   5.957857   6.689903   6.584381
    41  C    5.858876   5.967270   3.910226   4.769639   4.283787
    42  H    6.675241   6.720642   4.783244   5.698471   4.974629
    43  H    6.429591   6.569394   4.260282   4.931635   4.781419
    44  H    5.371462   5.196966   3.035623   3.940695   3.269381
                   36         37         38         39         40
    36  H    0.000000
    37  C    4.877297   0.000000
    38  H    5.479646   1.099672   0.000000
    39  H    5.368407   1.094342   1.792655   0.000000
    40  H    5.184722   1.099698   1.789392   1.781006   0.000000
    41  C    3.024398   2.490695   2.798485   3.415800   2.731787
    42  H    3.936214   2.672699   2.532173   3.700367   2.945850
    43  H    3.241001   2.863224   3.328697   3.798407   2.667636
    44  H    2.182599   3.410461   3.708300   4.207845   3.766963
                   41         42         43         44
    41  C    0.000000
    42  H    1.098773   0.000000
    43  H    1.100617   1.787391   0.000000
    44  H    1.094381   1.776185   1.794121   0.000000
 Stoichiometry    C19H21N2S2(1+)
 Framework group  C1[X(C19H21N2S2)]
 Deg. of freedom   126
 Full point group                 C1      NOp   1
 Largest Abelian subgroup         C1      NOp   1
 Largest concise Abelian subgroup C1      NOp   1
                         Standard orientation:                         
 ---------------------------------------------------------------------
 Center     Atomic      Atomic             Coordinates (Angstroms)
 Number     Number       Type             X           Y           Z
 ---------------------------------------------------------------------
      1          6           0        5.141333    0.341453   -1.428653
      2          6           0        4.246330    0.793113   -0.457920
      3         16           0        3.527427    2.438238   -0.612926
      4          6           0        3.852580   -0.085202    0.570411
      5          6           0        0.863708   -0.787434    0.770822
      6          6           0        1.152588   -1.949541    0.292605
      7          6           0        5.641454   -0.963707   -1.380320
      8          6           0        4.337968   -1.397272    0.611701
      9          1           0        2.805747   -0.536686    2.620663
     10          6           0       -0.327590   -0.104924    0.757243
     11          6           0        0.161049   -2.709273   -0.336618
     12          6           0       -1.110551   -2.125038   -0.416532
     13          6           0       -1.366563   -0.836811    0.116144
     14          1           0       -0.506361    0.876389    1.203135
     15          1           0        0.333628   -3.701573   -0.760587
     16          1           0       -1.915541   -2.656529   -0.930176
     17          6           0        5.242141   -1.827604   -0.363151
     18          1           0        5.450891    1.025420   -2.219360
     19          1           0        4.159480    2.990100    0.460876
     20          1           0        6.347910   -1.298886   -2.140548
     21          1           0        4.022912   -2.077842    1.402557
     22          1           0        5.625918   -2.847650   -0.323690
     23         16           0        2.641644    0.489998    1.741439
     24          6           0       -2.680648   -0.257498    0.003764
     25          6           0       -4.054270   -0.413992   -0.132503
     26          6           0       -3.489875    0.870167   -0.052158
     27          7           0       -5.099740   -1.211802   -0.243141
     28          7           0       -3.607387    2.185094   -0.049886
     29          6           0       -4.958870   -2.662960   -0.086881
     30          1           0       -5.249390   -3.175063   -1.015650
     31          1           0       -3.921906   -2.911213    0.159186
     32          1           0       -5.607057   -3.011636    0.730112
     33          6           0       -6.456302   -0.708508   -0.463149
     34          1           0       -6.932296   -1.289768   -1.265044
     35          1           0       -7.062340   -0.804638    0.450448
     36          1           0       -6.424137    0.340187   -0.774131
     37          6           0       -2.422516    3.047015   -0.104701
     38          1           0       -2.374233    3.683098    0.791036
     39          1           0       -1.518165    2.434104   -0.168534
     40          1           0       -2.472812    3.689712   -0.995626
     41          6           0       -4.905946    2.859820   -0.071613
     42          1           0       -4.903422    3.671788    0.668659
     43          1           0       -5.109136    3.288120   -1.064906
     44          1           0       -5.701050    2.156915    0.195603
 ---------------------------------------------------------------------
 Rotational constants (GHZ):           0.4060159           0.0982633           0.0849802
 Leave Link  202 at Tue Jan 26 23:38:59 2021, MaxMem=  4026531840 cpu:               0.2 elap:               0.0
 (Enter /opt/ohpc/pub/libs/gaussian/g16-A.03/sandybridge/g16/l301.exe)
 Standard basis: TZVP (5D, 7F)
 Ernie: Thresh=  0.10000D-02 Tol=  0.10000D-05 Strict=F.
 There are   592 symmetry adapted cartesian basis functions of A   symmetry.
 There are   569 symmetry adapted basis functions of A   symmetry.
   569 basis functions,   997 primitive gaussians,   592 cartesian basis functions
    90 alpha electrons       90 beta electrons
       nuclear repulsion energy      2022.4848436690 Hartrees.
 IExCor=33909 DFT=T Ex+Corr=LC-wHPBE ExCW=0 ScaHFX=  1.000000
 ScaDFX=  1.000000  1.000000  1.000000  1.000000 ScalE2=  1.000000  1.000000
 IRadAn=      5 IRanWt=     -1 IRanGd=            0 ICorTp=0 IEmpDi=  4
 HFx  wShort=  0.000000 wLong=  0.172700 cFull=  0.000000 cShort=  0.000000 cLong=  1.000000
 DFx  wShort=  0.000000 wLong=  0.172700 cFull=  0.000000 cShort=  1.000000 cLong=  0.000000
 NAtoms=   44 NActive=   44 NUniq=   44 SFac= 1.00D+00 NAtFMM=   60 NAOKFM=F Big=F
 Integral buffers will be    131072 words long.
 Raffenetti 2 integral format.
 Two-electron integral symmetry is turned on.
 Leave Link  301 at Tue Jan 26 23:38:59 2021, MaxMem=  4026531840 cpu:               0.5 elap:               0.1
 (Enter /opt/ohpc/pub/libs/gaussian/g16-A.03/sandybridge/g16/l302.exe)
 NPDir=0 NMtPBC=     1 NCelOv=     1 NCel=       1 NClECP=     1 NCelD=      1
         NCelK=      1 NCelE2=     1 NClLst=     1 CellRange=     0.0.
 One-electron integrals computed using PRISM.
 One-electron integral symmetry used in STVInt
 NBasis=   569 RedAO= T EigKep=  9.00D-06  NBF=   569
 NBsUse=   569 1.00D-06 EigRej= -1.00D+00 NBFU=   569
 Precomputing XC quadrature grid using
 IXCGrd= 4 IRadAn=           5 IRanWt=          -1 IRanGd=           0 AccXCQ= 0.00D+00.
 Generated NRdTot=       0 NPtTot=           0 NUsed=           0 NTot=          32
 NSgBfM=   570   570   570   570   570 MxSgAt=    44 MxSgA2=    44.
 Leave Link  302 at Tue Jan 26 23:39:00 2021, MaxMem=  4026531840 cpu:               9.1 elap:               1.2
 (Enter /opt/ohpc/pub/libs/gaussian/g16-A.03/sandybridge/g16/l303.exe)
 DipDrv:  MaxL=1.
 Leave Link  303 at Tue Jan 26 23:39:00 2021, MaxMem=  4026531840 cpu:               0.9 elap:               0.1
 (Enter /opt/ohpc/pub/libs/gaussian/g16-A.03/sandybridge/g16/l401.exe)
 ExpMin= 9.52D-02 ExpMax= 6.07D+04 ExpMxC= 2.07D+03 IAcc=3 IRadAn=         5 AccDes= 0.00D+00
 Harris functional with IExCor=33909 and IRadAn=       5 diagonalized for initial guess.
 HarFok:  IExCor=33909 AccDes= 0.00D+00 IRadAn=         5 IDoV= 1 UseB2=F ITyADJ=14
 ICtDFT=  3500011 ScaDFX=  1.000000  1.000000  1.000000  1.000000
 FoFCou: FMM=F IPFlag=           0 FMFlag=      100000 FMFlg1=           0
         NFxFlg=           0 DoJE=T BraDBF=F KetDBF=T FulRan=T
         wScrn=  0.000000 ICntrl=       500 IOpCl=  0 I1Cent=   200000004 NGrid=           0
         NMat0=    1 NMatS0=      1 NMatT0=    0 NMatD0=    1 NMtDS0=    0 NMtDT0=    0
 Petite list used in FoFCou.
 Harris En= -1624.55399586267    
 JPrj=0 DoOrth=F DoCkMO=F.
 Leave Link  401 at Tue Jan 26 23:39:07 2021, MaxMem=  4026531840 cpu:              49.3 elap:               6.2
 (Enter /opt/ohpc/pub/libs/gaussian/g16-A.03/sandybridge/g16/l502.exe)
 Integral symmetry usage will be decided dynamically.
 Closed shell SCF:
 Using DIIS extrapolation, IDIIS=    10.
 NGot=  4026531840 LenX=  4025820226 LenY=  4025469170
 Requested convergence on RMS density matrix=1.00D-06 within  32 cycles.
 Requested convergence on MAX density matrix=1.00D-04.
 Requested convergence on             energy=1.00D-04.
 Virtual orbitals will be shifted by   0.500 hartree.
 No special actions if energy rises.
 Dynamic level shift is on during FON iterations.

 Cycle   1  Pass 1  IDiag  1:
 FoFJK:  IHMeth= 1 ICntrl=       0 DoSepK=T KAlg= 0 I1Cent=           0 FoldK=F
 IRaf=         1 NMat=       1 IRICut=       1 DoRegI=T DoRafI=F ISym2E= 0 IDoP0=0 IntGTp=1.
 FoFCou: FMM=F IPFlag=           0 FMFlag=      100000 FMFlg1=           0
         NFxFlg=           0 DoJE=T BraDBF=F KetDBF=F FulRan=T
         wScrn=  0.000000 ICntrl=       500 IOpCl=  0 I1Cent=           0 NGrid=           0
         NMat0=    1 NMatS0=      1 NMatT0=    0 NMatD0=    1 NMtDS0=    0 NMtDT0=    0
 Symmetry not used in FoFCou.
 E= -1640.79999134854    
 DIIS: error= 2.90D-02 at cycle   1 NSaved=   1.
 NSaved= 1 IEnMin= 1 EnMin= -1640.79999134854     IErMin= 1 ErrMin= 2.90D-02
 ErrMax= 2.90D-02  0.00D+00 EMaxC= 1.00D+00 BMatC= 4.87D-01 BMatP= 4.87D-01
 IDIUse=1 WtCom= 1.00D+00 WtEn= 0.00D+00
 Coeff-Com:  0.100D+01
 Coeff:      0.100D+01
 Gap=     0.407 Goal=   None    Shift=    0.500
 T= 1475. Gap= 0.511 NK=0 IS=   91 IE=  569 IFin=   90
          NO(<0.9)=   0  NV(>0.1)=   0     90.00e < EF      0.00e >EF  Err=0.0D+00
 GapD=    0.407 DampG=2.000 DampE=0.500 DampFc=1.0000 IDamp=-1.
 RMSDP=4.03D-03 MaxDP=2.43D-01              OVMax= 1.64D-01

 Cycle   2  Pass 1  IDiag  1:
 E= -1641.24361281838     Delta-E=       -0.443621469840 Rises=F Damp=F
 DIIS: error= 7.51D-03 at cycle   2 NSaved=   2.
 NSaved= 2 IEnMin= 2 EnMin= -1641.24361281838     IErMin= 2 ErrMin= 7.51D-03
 ErrMax= 7.51D-03  0.00D+00 EMaxC= 1.00D+00 BMatC= 8.14D-02 BMatP= 4.87D-01
 IDIUse=1 WtCom= 1.00D+00 WtEn= 0.00D+00
 Coeff-Com:  0.265D+00 0.735D+00
 Coeff:      0.265D+00 0.735D+00
 Gap=     0.305 Goal=   None    Shift=    0.500
 T= 1305. Gap= 0.731 NK=0 IS=   91 IE=  569 IFin=   90
          NO(<0.9)=   0  NV(>0.1)=   0     90.00e < EF      0.00e >EF  Err=0.0D+00
 GapD=    0.305 DampG=1.000 DampE=1.000 DampFc=1.0000 IDamp=-1.
 RMSDP=1.09D-03 MaxDP=7.94D-02 DE=-4.44D-01 OVMax= 2.39D-02

 Cycle   3  Pass 1  IDiag  1:
 E= -1641.30133516529     Delta-E=       -0.057722346905 Rises=F Damp=F
 DIIS: error= 2.70D-03 at cycle   3 NSaved=   3.
 NSaved= 3 IEnMin= 3 EnMin= -1641.30133516529     IErMin= 3 ErrMin= 2.70D-03
 ErrMax= 2.70D-03  0.00D+00 EMaxC= 1.00D+00 BMatC= 8.61D-03 BMatP= 8.14D-02
 IDIUse=1 WtCom= 1.00D+00 WtEn= 0.00D+00
 Coeff-Com:  0.879D-01-0.784D-01 0.991D+00
 Coeff:      0.879D-01-0.784D-01 0.991D+00
 Gap=     0.229 Goal=   None    Shift=    0.500
 T=  997. Gap= 0.729 NK=0 IS=   91 IE=  569 IFin=   90
          NO(<0.9)=   0  NV(>0.1)=   0     90.00e < EF      0.00e >EF  Err=0.0D+00
 GapD=    0.229 DampG=1.000 DampE=1.000 DampFc=1.0000 IDamp=-1.
 RMSDP=7.23D-04 MaxDP=5.92D-02 DE=-5.77D-02 OVMax= 1.43D-02

 Cycle   4  Pass 1  IDiag  1:
 E= -1641.31002414050     Delta-E=       -0.008688975213 Rises=F Damp=F
 DIIS: error= 1.63D-03 at cycle   4 NSaved=   4.
 NSaved= 4 IEnMin= 4 EnMin= -1641.31002414050     IErMin= 4 ErrMin= 1.63D-03
 ErrMax= 1.63D-03  0.00D+00 EMaxC= 1.00D+00 BMatC= 1.31D-03 BMatP= 8.61D-03
 IDIUse=1 WtCom= 1.00D+00 WtEn= 0.00D+00
 Coeff-Com:  0.152D-01-0.725D-01-0.362D-01 0.109D+01
 Coeff:      0.152D-01-0.725D-01-0.362D-01 0.109D+01
 Gap=     0.233 Goal=   None    Shift=    0.500
 T=  279. Gap= 0.733 NK=0 IS=   91 IE=  569 IFin=   90
          NO(<0.9)=   0  NV(>0.1)=   0     90.00e < EF      0.00e >EF  Err=0.0D+00
 GapD=    0.233 DampG=1.000 DampE=1.000 DampFc=1.0000 IDamp=-1.
 RMSDP=4.05D-04 MaxDP=3.12D-02 DE=-8.69D-03 OVMax= 8.65D-03

 Cycle   5  Pass 1  IDiag  1:
 E= -1641.31185795735     Delta-E=       -0.001833816852 Rises=F Damp=F
 DIIS: error= 1.45D-03 at cycle   5 NSaved=   5.
 NSaved= 5 IEnMin= 5 EnMin= -1641.31185795735     IErMin= 5 ErrMin= 1.45D-03
 ErrMax= 1.45D-03  0.00D+00 EMaxC= 1.00D+00 BMatC= 2.15D-04 BMatP= 1.31D-03
 IDIUse=1 WtCom= 1.00D+00 WtEn= 0.00D+00
 Coeff-Com: -0.632D-02-0.730D-03-0.179D+00 0.474D-01 0.114D+01
 Coeff:     -0.632D-02-0.730D-03-0.179D+00 0.474D-01 0.114D+01
 Gap=     0.234 Goal=   None    Shift=    0.500
 GapD=    0.234 DampG=1.000 DampE=1.000 DampFc=1.0000 IDamp=-1.
 RMSDP=2.27D-04 MaxDP=1.54D-02 DE=-1.83D-03 OVMax= 7.80D-03

 Cycle   6  Pass 1  IDiag  1:
 E= -1641.31241271687     Delta-E=       -0.000554759519 Rises=F Damp=F
 DIIS: error= 1.10D-03 at cycle   6 NSaved=   6.
 NSaved= 6 IEnMin= 6 EnMin= -1641.31241271687     IErMin= 6 ErrMin= 1.10D-03
 ErrMax= 1.10D-03  0.00D+00 EMaxC= 1.00D+00 BMatC= 6.31D-05 BMatP= 2.15D-04
 IDIUse=1 WtCom= 1.00D+00 WtEn= 0.00D+00
 Coeff-Com: -0.653D-02 0.121D-01-0.443D-02-0.295D+00-0.301D+00 0.159D+01
 Coeff:     -0.653D-02 0.121D-01-0.443D-02-0.295D+00-0.301D+00 0.159D+01
 Gap=     0.233 Goal=   None    Shift=    0.500
 GapD=    0.233 DampG=1.000 DampE=1.000 DampFc=1.0000 IDamp=-1.
 RMSDP=1.41D-04 MaxDP=9.34D-03 DE=-5.55D-04 OVMax= 6.59D-03

 Cycle   7  Pass 1  IDiag  1:
 E= -1641.31267006030     Delta-E=       -0.000257343432 Rises=F Damp=F
 DIIS: error= 8.13D-04 at cycle   7 NSaved=   7.
 NSaved= 7 IEnMin= 7 EnMin= -1641.31267006030     IErMin= 7 ErrMin= 8.13D-04
 ErrMax= 8.13D-04  0.00D+00 EMaxC= 1.00D+00 BMatC= 2.69D-05 BMatP= 6.31D-05
 IDIUse=1 WtCom= 1.00D+00 WtEn= 0.00D+00
 Coeff-Com: -0.319D-02 0.310D-02 0.427D-01-0.156D+00-0.443D+00 0.302D+00
 Coeff-Com:  0.125D+01
 Coeff:     -0.319D-02 0.310D-02 0.427D-01-0.156D+00-0.443D+00 0.302D+00
 Coeff:      0.125D+01
 Gap=     0.235 Goal=   None    Shift=    0.500
 RMSDP=7.43D-05 MaxDP=4.16D-03 DE=-2.57D-04 OVMax= 4.63D-03

 Cycle   8  Pass 1  IDiag  1:
 E= -1641.31279289347     Delta-E=       -0.000122833170 Rises=F Damp=F
 DIIS: error= 5.61D-04 at cycle   8 NSaved=   8.
 NSaved= 8 IEnMin= 8 EnMin= -1641.31279289347     IErMin= 8 ErrMin= 5.61D-04
 ErrMax= 5.61D-04  0.00D+00 EMaxC= 1.00D+00 BMatC= 1.11D-05 BMatP= 2.69D-05
 IDIUse=1 WtCom= 1.00D+00 WtEn= 0.00D+00
 Coeff-Com:  0.706D-03-0.439D-02 0.201D-01 0.909D-01-0.114D+00-0.719D+00
 Coeff-Com: -0.385D-01 0.176D+01
 Coeff:      0.706D-03-0.439D-02 0.201D-01 0.909D-01-0.114D+00-0.719D+00
 Coeff:     -0.385D-01 0.176D+01
 Gap=     0.235 Goal=   None    Shift=    0.500
 RMSDP=4.60D-05 MaxDP=2.28D-03 DE=-1.23D-04 OVMax= 3.75D-03

 Cycle   9  Pass 1  IDiag  1:
 E= -1641.31285351034     Delta-E=       -0.000060616866 Rises=F Damp=F
 DIIS: error= 4.07D-04 at cycle   9 NSaved=   9.
 NSaved= 9 IEnMin= 9 EnMin= -1641.31285351034     IErMin= 9 ErrMin= 4.07D-04
 ErrMax= 4.07D-04  0.00D+00 EMaxC= 1.00D+00 BMatC= 5.41D-06 BMatP= 1.11D-05
 IDIUse=1 WtCom= 1.00D+00 WtEn= 0.00D+00
 Coeff-Com:  0.113D-02-0.254D-02-0.719D-02 0.132D+00 0.556D-01-0.581D+00
 Coeff-Com: -0.448D+00 0.506D+00 0.134D+01
 Coeff:      0.113D-02-0.254D-02-0.719D-02 0.132D+00 0.556D-01-0.581D+00
 Coeff:     -0.448D+00 0.506D+00 0.134D+01
 Gap=     0.235 Goal=   None    Shift=    0.500
 RMSDP=2.61D-05 MaxDP=1.18D-03 DE=-6.06D-05 OVMax= 2.64D-03

 Cycle  10  Pass 1  IDiag  1:
 E= -1641.31288170996     Delta-E=       -0.000028199622 Rises=F Damp=F
 DIIS: error= 2.67D-04 at cycle  10 NSaved=  10.
 NSaved=10 IEnMin=10 EnMin= -1641.31288170996     IErMin=10 ErrMin= 2.67D-04
 ErrMax= 2.67D-04  0.00D+00 EMaxC= 1.00D+00 BMatC= 2.44D-06 BMatP= 5.41D-06
 IDIUse=1 WtCom= 1.00D+00 WtEn= 0.00D+00
 Coeff-Com: -0.155D-03 0.970D-03-0.934D-02 0.245D-01 0.217D-01 0.969D-01
 Coeff-Com: -0.164D+00-0.509D+00-0.762D+00 0.230D+01
 Coeff:     -0.155D-03 0.970D-03-0.934D-02 0.245D-01 0.217D-01 0.969D-01
 Coeff:     -0.164D+00-0.509D+00-0.762D+00 0.230D+01
 Gap=     0.235 Goal=   None    Shift=    0.500
 RMSDP=1.63D-05 MaxDP=8.28D-04 DE=-2.82D-05 OVMax= 1.90D-03

 Cycle  11  Pass 1  IDiag  1:
 E= -1641.31289447476     Delta-E=       -0.000012764802 Rises=F Damp=F
 DIIS: error= 1.82D-04 at cycle  11 NSaved=  11.
 NSaved=11 IEnMin=11 EnMin= -1641.31289447476     IErMin=11 ErrMin= 1.82D-04
 ErrMax= 1.82D-04  0.00D+00 EMaxC= 1.00D+00 BMatC= 1.27D-06 BMatP= 2.44D-06
 IDIUse=1 WtCom= 1.00D+00 WtEn= 0.00D+00
 Coeff-Com: -0.440D-03 0.116D-02-0.102D-02-0.171D-01-0.240D-01 0.232D+00
 Coeff-Com:  0.381D-01-0.421D+00-0.111D+01 0.924D+00 0.138D+01
 Coeff:     -0.440D-03 0.116D-02-0.102D-02-0.171D-01-0.240D-01 0.232D+00
 Coeff:      0.381D-01-0.421D+00-0.111D+01 0.924D+00 0.138D+01
 Gap=     0.235 Goal=   None    Shift=    0.500
 RMSDP=9.80D-06 MaxDP=4.39D-04 DE=-1.28D-05 OVMax= 1.28D-03

 Cycle  12  Pass 1  IDiag  1:
 E= -1641.31290018744     Delta-E=       -0.000005712675 Rises=F Damp=F
 DIIS: error= 1.18D-04 at cycle  12 NSaved=  12.
 NSaved=12 IEnMin=12 EnMin= -1641.31290018744     IErMin=12 ErrMin= 1.18D-04
 ErrMax= 1.18D-04  0.00D+00 EMaxC= 1.00D+00 BMatC= 5.93D-07 BMatP= 1.27D-06
 IDIUse=1 WtCom= 1.00D+00 WtEn= 0.00D+00
 Coeff-Com: -0.149D-03 0.172D-03 0.302D-02-0.609D-02-0.216D-01 0.246D-01
 Coeff-Com:  0.721D-01 0.112D+00-0.235D+00-0.593D+00-0.712D+00 0.236D+01
 Coeff:     -0.149D-03 0.172D-03 0.302D-02-0.609D-02-0.216D-01 0.246D-01
 Coeff:      0.721D-01 0.112D+00-0.235D+00-0.593D+00-0.712D+00 0.236D+01
 Gap=     0.235 Goal=   None    Shift=    0.500
 RMSDP=6.26D-06 MaxDP=2.66D-04 DE=-5.71D-06 OVMax= 8.59D-04

 Cycle  13  Pass 1  IDiag  1:
 E= -1641.31290261650     Delta-E=       -0.000002429058 Rises=F Damp=F
 DIIS: error= 7.78D-05 at cycle  13 NSaved=  13.
 NSaved=13 IEnMin=13 EnMin= -1641.31290261650     IErMin=13 ErrMin= 7.78D-05
 ErrMax= 7.78D-05  0.00D+00 EMaxC= 1.00D+00 BMatC= 3.35D-07 BMatP= 5.93D-07
 IDIUse=1 WtCom= 1.00D+00 WtEn= 0.00D+00
 Coeff-Com: -0.139D-04-0.445D-04 0.191D-02 0.397D-02-0.135D-01-0.456D-01
 Coeff-Com:  0.520D-01 0.213D+00 0.907D-01-0.708D+00-0.108D+01 0.137D+01
 Coeff-Com:  0.111D+01
 Coeff:     -0.139D-04-0.445D-04 0.191D-02 0.397D-02-0.135D-01-0.456D-01
 Coeff:      0.520D-01 0.213D+00 0.907D-01-0.708D+00-0.108D+01 0.137D+01
 Coeff:      0.111D+01
 Gap=     0.235 Goal=   None    Shift=    0.500
 RMSDP=3.76D-06 MaxDP=1.42D-04 DE=-2.43D-06 OVMax= 5.80D-04

 Cycle  14  Pass 1  IDiag  1:
 E= -1641.31290370581     Delta-E=       -0.000001089314 Rises=F Damp=F
 DIIS: error= 5.00D-05 at cycle  14 NSaved=  14.
 NSaved=14 IEnMin=14 EnMin= -1641.31290370581     IErMin=14 ErrMin= 5.00D-05
 ErrMax= 5.00D-05  0.00D+00 EMaxC= 1.00D+00 BMatC= 1.60D-07 BMatP= 3.35D-07
 IDIUse=1 WtCom= 1.00D+00 WtEn= 0.00D+00
 Coeff-Com:  0.355D-04-0.685D-04-0.330D-03 0.767D-02-0.586D-02-0.311D-01
 Coeff-Com:  0.102D-01 0.737D-01 0.962D-01-0.902D-01-0.387D+00-0.130D+00
 Coeff-Com: -0.799D+00 0.226D+01
 Coeff:      0.355D-04-0.685D-04-0.330D-03 0.767D-02-0.586D-02-0.311D-01
 Coeff:      0.102D-01 0.737D-01 0.962D-01-0.902D-01-0.387D+00-0.130D+00
 Coeff:     -0.799D+00 0.226D+01
 Gap=     0.235 Goal=   None    Shift=    0.500
 RMSDP=2.46D-06 MaxDP=9.90D-05 DE=-1.09D-06 OVMax= 3.88D-04

 Cycle  15  Pass 1  IDiag  1:
 E= -1641.31290417643     Delta-E=       -0.000000470616 Rises=F Damp=F
 DIIS: error= 3.21D-05 at cycle  15 NSaved=  15.
 NSaved=15 IEnMin=15 EnMin= -1641.31290417643     IErMin=15 ErrMin= 3.21D-05
 ErrMax= 3.21D-05  0.00D+00 EMaxC= 1.00D+00 BMatC= 7.46D-08 BMatP= 1.60D-07
 IDIUse=1 WtCom= 1.00D+00 WtEn= 0.00D+00
 Coeff-Com:  0.201D-05-0.219D-04-0.610D-03 0.294D-02-0.229D-02 0.383D-02
 Coeff-Com: -0.241D-02-0.320D-01-0.106D-01 0.207D+00 0.796D-01-0.400D+00
 Coeff-Com: -0.110D+01 0.530D+00 0.173D+01
 Coeff:      0.201D-05-0.219D-04-0.610D-03 0.294D-02-0.229D-02 0.383D-02
 Coeff:     -0.241D-02-0.320D-01-0.106D-01 0.207D+00 0.796D-01-0.400D+00
 Coeff:     -0.110D+01 0.530D+00 0.173D+01
 Gap=     0.235 Goal=   None    Shift=    0.500
 RMSDP=1.64D-06 MaxDP=7.73D-05 DE=-4.71D-07 OVMax= 2.55D-04

 Cycle  16  Pass 1  IDiag  1:
 E= -1641.31290437697     Delta-E=       -0.000000200540 Rises=F Damp=F
 DIIS: error= 2.05D-05 at cycle  16 NSaved=  16.
 NSaved=16 IEnMin=16 EnMin= -1641.31290437697     IErMin=16 ErrMin= 2.05D-05
 ErrMax= 2.05D-05  0.00D+00 EMaxC= 1.00D+00 BMatC= 3.42D-08 BMatP= 7.46D-08
 IDIUse=1 WtCom= 1.00D+00 WtEn= 0.00D+00
 Coeff-Com: -0.140D-04 0.565D-05-0.248D-03-0.294D-03 0.318D-03 0.107D-01
 Coeff-Com: -0.232D-02-0.395D-01-0.312D-01 0.153D+00 0.121D+00-0.151D+00
 Coeff-Com: -0.482D+00-0.578D+00 0.456D+00 0.154D+01
 Coeff:     -0.140D-04 0.565D-05-0.248D-03-0.294D-03 0.318D-03 0.107D-01
 Coeff:     -0.232D-02-0.395D-01-0.312D-01 0.153D+00 0.121D+00-0.151D+00
 Coeff:     -0.482D+00-0.578D+00 0.456D+00 0.154D+01
 Gap=     0.235 Goal=   None    Shift=    0.500
 RMSDP=1.04D-06 MaxDP=4.44D-05 DE=-2.01D-07 OVMax= 1.69D-04

 Cycle  17  Pass 1  IDiag  1:
 E= -1641.31290446332     Delta-E=       -0.000000086354 Rises=F Damp=F
 DIIS: error= 1.30D-05 at cycle  17 NSaved=  17.
 NSaved=17 IEnMin=17 EnMin= -1641.31290446332     IErMin=17 ErrMin= 1.30D-05
 ErrMax= 1.30D-05  0.00D+00 EMaxC= 1.00D+00 BMatC= 1.56D-08 BMatP= 3.42D-08
 IDIUse=1 WtCom= 1.00D+00 WtEn= 0.00D+00
 Coeff-Com: -0.792D-05 0.205D-04 0.201D-03-0.973D-03 0.966D-04 0.255D-02
 Coeff-Com:  0.383D-02-0.472D-02-0.775D-02-0.151D-01-0.767D-02 0.130D+00
 Coeff-Com:  0.173D+00-0.519D+00-0.485D+00-0.522D+00 0.225D+01
 Coeff:     -0.792D-05 0.205D-04 0.201D-03-0.973D-03 0.966D-04 0.255D-02
 Coeff:      0.383D-02-0.472D-02-0.775D-02-0.151D-01-0.767D-02 0.130D+00
 Coeff:      0.173D+00-0.519D+00-0.485D+00-0.522D+00 0.225D+01
 Gap=     0.235 Goal=   None    Shift=    0.500
 RMSDP=6.80D-07 MaxDP=3.28D-05 DE=-8.64D-08 OVMax= 1.11D-04

 SCF Done:  E(RLC-wHPBE) =  -1641.31290446     A.U. after   17 cycles
            NFock= 17  Conv=0.68D-06     -V/T= 2.0041
 KE= 1.634569139811D+03 PE=-7.878567701399D+03 EE= 2.580200813455D+03
 Leave Link  502 at Tue Jan 26 23:50:27 2021, MaxMem=  4026531840 cpu:            5430.7 elap:             679.6
 (Enter /opt/ohpc/pub/libs/gaussian/g16-A.03/sandybridge/g16/l508.exe)
 QCSCF skips out because SCF is already converged.
 Leave Link  508 at Tue Jan 26 23:50:27 2021, MaxMem=  4026531840 cpu:               0.1 elap:               0.0
 (Enter /opt/ohpc/pub/libs/gaussian/g16-A.03/sandybridge/g16/l601.exe)
 Copying SCF densities to generalized density rwf, IOpCl= 0 IROHF=0.

 **********************************************************************

            Population analysis using the SCF density.

 **********************************************************************

 Orbital symmetries:
       Occupied  (A) (A) (A) (A) (A) (A) (A) (A) (A) (A) (A) (A)
                 (A) (A) (A) (A) (A) (A) (A) (A) (A) (A) (A) (A)
                 (A) (A) (A) (A) (A) (A) (A) (A) (A) (A) (A) (A)
                 (A) (A) (A) (A) (A) (A) (A) (A) (A) (A) (A) (A)
                 (A) (A) (A) (A) (A) (A) (A) (A) (A) (A) (A) (A)
                 (A) (A) (A) (A) (A) (A) (A) (A) (A) (A) (A) (A)
                 (A) (A) (A) (A) (A) (A) (A) (A) (A) (A) (A) (A)
                 (A) (A) (A) (A) (A) (A)
       Virtual   (A) (A) (A) (A) (A) (A) (A) (A) (A) (A) (A) (A)
                 (A) (A) (A) (A) (A) (A) (A) (A) (A) (A) (A) (A)
                 (A) (A) (A) (A) (A) (A) (A) (A) (A) (A) (A) (A)
                 (A) (A) (A) (A) (A) (A) (A) (A) (A) (A) (A) (A)
                 (A) (A) (A) (A) (A) (A) (A) (A) (A) (A) (A) (A)
                 (A) (A) (A) (A) (A) (A) (A) (A) (A) (A) (A) (A)
                 (A) (A) (A) (A) (A) (A) (A) (A) (A) (A) (A) (A)
                 (A) (A) (A) (A) (A) (A) (A) (A) (A) (A) (A) (A)
                 (A) (A) (A) (A) (A) (A) (A) (A) (A) (A) (A) (A)
                 (A) (A) (A) (A) (A) (A) (A) (A) (A) (A) (A) (A)
                 (A) (A) (A) (A) (A) (A) (A) (A) (A) (A) (A) (A)
                 (A) (A) (A) (A) (A) (A) (A) (A) (A) (A) (A) (A)
                 (A) (A) (A) (A) (A) (A) (A) (A) (A) (A) (A) (A)
                 (A) (A) (A) (A) (A) (A) (A) (A) (A) (A) (A) (A)
                 (A) (A) (A) (A) (A) (A) (A) (A) (A) (A) (A) (A)
                 (A) (A) (A) (A) (A) (A) (A) (A) (A) (A) (A) (A)
                 (A) (A) (A) (A) (A) (A) (A) (A) (A) (A) (A) (A)
                 (A) (A) (A) (A) (A) (A) (A) (A) (A) (A) (A) (A)
                 (A) (A) (A) (A) (A) (A) (A) (A) (A) (A) (A) (A)
                 (A) (A) (A) (A) (A) (A) (A) (A) (A) (A) (A) (A)
                 (A) (A) (A) (A) (A) (A) (A) (A) (A) (A) (A) (A)
                 (A) (A) (A) (A) (A) (A) (A) (A) (A) (A) (A) (A)
                 (A) (A) (A) (A) (A) (A) (A) (A) (A) (A) (A) (A)
                 (A) (A) (A) (A) (A) (A) (A) (A) (A) (A) (A) (A)
                 (A) (A) (A) (A) (A) (A) (A) (A) (A) (A) (A) (A)
                 (A) (A) (A) (A) (A) (A) (A) (A) (A) (A) (A) (A)
                 (A) (A) (A) (A) (A) (A) (A) (A) (A) (A) (A) (A)
                 (A) (A) (A) (A) (A) (A) (A) (A) (A) (A) (A) (A)
                 (A) (A) (A) (A) (A) (A) (A) (A) (A) (A) (A) (A)
                 (A) (A) (A) (A) (A) (A) (A) (A) (A) (A) (A) (A)
                 (A) (A) (A) (A) (A) (A) (A) (A) (A) (A) (A) (A)
                 (A) (A) (A) (A) (A) (A) (A) (A) (A) (A) (A) (A)
                 (A) (A) (A) (A) (A) (A) (A) (A) (A) (A) (A) (A)
                 (A) (A) (A) (A) (A) (A) (A) (A) (A) (A) (A) (A)
                 (A) (A) (A) (A) (A) (A) (A) (A) (A) (A) (A) (A)
                 (A) (A) (A) (A) (A) (A) (A) (A) (A) (A) (A) (A)
                 (A) (A) (A) (A) (A) (A) (A) (A) (A) (A) (A) (A)
                 (A) (A) (A) (A) (A) (A) (A) (A) (A) (A) (A) (A)
                 (A) (A) (A) (A) (A) (A) (A) (A) (A) (A) (A) (A)
                 (A) (A) (A) (A) (A) (A) (A) (A) (A) (A) (A)
 The electronic state is 1-A.
 Alpha  occ. eigenvalues --  -88.32102 -88.27388 -14.27757 -14.27751 -10.20240
 Alpha  occ. eigenvalues --  -10.20206 -10.16632 -10.14841 -10.14816 -10.14349
 Alpha  occ. eigenvalues --  -10.14307 -10.12500 -10.12221 -10.11542 -10.11530
 Alpha  occ. eigenvalues --  -10.10210 -10.10077 -10.09745 -10.08466 -10.07763
 Alpha  occ. eigenvalues --  -10.07549 -10.07337 -10.06130  -7.91117  -7.86584
 Alpha  occ. eigenvalues --   -5.93224  -5.92795  -5.92378  -5.88805  -5.88379
 Alpha  occ. eigenvalues --   -5.87554  -1.14825  -1.12402  -1.06816  -0.99535
 Alpha  occ. eigenvalues --   -0.99012  -0.92390  -0.90240  -0.90003  -0.89443
 Alpha  occ. eigenvalues --   -0.89291  -0.88059  -0.87936  -0.86655  -0.84349
 Alpha  occ. eigenvalues --   -0.81965  -0.77401  -0.74551  -0.73689  -0.72369
 Alpha  occ. eigenvalues --   -0.72089  -0.71215  -0.69227  -0.66922  -0.66751
 Alpha  occ. eigenvalues --   -0.66292  -0.65054  -0.64487  -0.61923  -0.61090
 Alpha  occ. eigenvalues --   -0.60642  -0.59825  -0.59605  -0.59090  -0.58877
 Alpha  occ. eigenvalues --   -0.58084  -0.57979  -0.57807  -0.57315  -0.57091
 Alpha  occ. eigenvalues --   -0.56139  -0.55787  -0.55708  -0.54857  -0.53560
 Alpha  occ. eigenvalues --   -0.53210  -0.52743  -0.52243  -0.50044  -0.48494
 Alpha  occ. eigenvalues --   -0.48090  -0.47543  -0.46898  -0.44518  -0.42177
 Alpha  occ. eigenvalues --   -0.41082  -0.39973  -0.39046  -0.38232  -0.35305
 Alpha virt. eigenvalues --   -0.11815  -0.10377  -0.07171  -0.05914  -0.05681
 Alpha virt. eigenvalues --   -0.05408  -0.04393  -0.04178  -0.01680  -0.01474
 Alpha virt. eigenvalues --   -0.01044  -0.00407  -0.00374   0.00868   0.01244
 Alpha virt. eigenvalues --    0.01922   0.02826   0.02886   0.03274   0.04062
 Alpha virt. eigenvalues --    0.04488   0.04539   0.05053   0.05320   0.05500
 Alpha virt. eigenvalues --    0.05672   0.06638   0.06710   0.07237   0.07362
 Alpha virt. eigenvalues --    0.08379   0.08919   0.09003   0.09285   0.09563
 Alpha virt. eigenvalues --    0.10334   0.10874   0.11019   0.11980   0.12278
 Alpha virt. eigenvalues --    0.12536   0.12863   0.13025   0.13623   0.14296
 Alpha virt. eigenvalues --    0.14725   0.16171   0.16599   0.17115   0.17521
 Alpha virt. eigenvalues --    0.17859   0.18015   0.18440   0.19179   0.19444
 Alpha virt. eigenvalues --    0.19977   0.20536   0.20693   0.21101   0.21574
 Alpha virt. eigenvalues --    0.22215   0.22406   0.22549   0.22868   0.23000
 Alpha virt. eigenvalues --    0.23379   0.23553   0.24069   0.24238   0.24803
 Alpha virt. eigenvalues --    0.25050   0.25312   0.25400   0.26421   0.26699
 Alpha virt. eigenvalues --    0.26988   0.27725   0.28515   0.28759   0.29620
 Alpha virt. eigenvalues --    0.29768   0.30637   0.30702   0.31040   0.31783
 Alpha virt. eigenvalues --    0.32302   0.32466   0.32925   0.33266   0.33681
 Alpha virt. eigenvalues --    0.34034   0.35140   0.35393   0.35798   0.36058
 Alpha virt. eigenvalues --    0.36339   0.36460   0.36627   0.37346   0.37412
 Alpha virt. eigenvalues --    0.37779   0.38038   0.38429   0.38587   0.39043
 Alpha virt. eigenvalues --    0.39104   0.39744   0.40015   0.40338   0.40634
 Alpha virt. eigenvalues --    0.41055   0.41368   0.42046   0.42318   0.42682
 Alpha virt. eigenvalues --    0.43122   0.43820   0.44293   0.44443   0.45011
 Alpha virt. eigenvalues --    0.45481   0.45608   0.45893   0.46440   0.46815
 Alpha virt. eigenvalues --    0.47616   0.48120   0.48289   0.48693   0.49295
 Alpha virt. eigenvalues --    0.50428   0.51054   0.51326   0.52009   0.52489
 Alpha virt. eigenvalues --    0.53288   0.54369   0.55244   0.56102   0.56242
 Alpha virt. eigenvalues --    0.56539   0.57819   0.58663   0.59400   0.59657
 Alpha virt. eigenvalues --    0.60225   0.61988   0.62327   0.62674   0.63411
 Alpha virt. eigenvalues --    0.64137   0.64913   0.65173   0.65660   0.66126
 Alpha virt. eigenvalues --    0.66940   0.67620   0.68446   0.70589   0.71070
 Alpha virt. eigenvalues --    0.72033   0.72837   0.75189   0.75679   0.76374
 Alpha virt. eigenvalues --    0.76930   0.79448   0.80688   0.82548   0.82888
 Alpha virt. eigenvalues --    0.83600   0.85029   0.87242   0.87993   0.89531
 Alpha virt. eigenvalues --    0.91259   1.01431   1.04474   1.04836   1.09214
 Alpha virt. eigenvalues --    1.11523   1.12506   1.13234   1.13424   1.14928
 Alpha virt. eigenvalues --    1.15322   1.16562   1.16822   1.17318   1.17940
 Alpha virt. eigenvalues --    1.18974   1.19291   1.20078   1.20578   1.21291
 Alpha virt. eigenvalues --    1.22353   1.22734   1.23308   1.23512   1.23716
 Alpha virt. eigenvalues --    1.24042   1.25097   1.25270   1.25971   1.26105
 Alpha virt. eigenvalues --    1.26473   1.27629   1.27793   1.28075   1.28365
 Alpha virt. eigenvalues --    1.29602   1.29936   1.30775   1.31484   1.32475
 Alpha virt. eigenvalues --    1.33122   1.34101   1.34862   1.34906   1.35466
 Alpha virt. eigenvalues --    1.35915   1.36757   1.37242   1.37255   1.37462
 Alpha virt. eigenvalues --    1.37943   1.38544   1.38562   1.39098   1.39321
 Alpha virt. eigenvalues --    1.39689   1.40285   1.40428   1.41676   1.42284
 Alpha virt. eigenvalues --    1.42715   1.42964   1.43474   1.43592   1.44033
 Alpha virt. eigenvalues --    1.44676   1.45143   1.45524   1.45620   1.46124
 Alpha virt. eigenvalues --    1.46414   1.46531   1.47527   1.47906   1.48264
 Alpha virt. eigenvalues --    1.49372   1.49656   1.50053   1.51858   1.52199
 Alpha virt. eigenvalues --    1.52695   1.53163   1.54499   1.54987   1.55234
 Alpha virt. eigenvalues --    1.55720   1.56123   1.57116   1.58489   1.59268
 Alpha virt. eigenvalues --    1.59374   1.59865   1.60368   1.61817   1.62170
 Alpha virt. eigenvalues --    1.62924   1.63543   1.64519   1.65033   1.65927
 Alpha virt. eigenvalues --    1.66201   1.66613   1.66783   1.66867   1.67910
 Alpha virt. eigenvalues --    1.68256   1.68473   1.68954   1.69254   1.69631
 Alpha virt. eigenvalues --    1.69983   1.70746   1.71109   1.71793   1.71963
 Alpha virt. eigenvalues --    1.72514   1.72801   1.74089   1.74318   1.74642
 Alpha virt. eigenvalues --    1.75751   1.76555   1.76820   1.77490   1.78898
 Alpha virt. eigenvalues --    1.79968   1.80992   1.81228   1.82301   1.83289
 Alpha virt. eigenvalues --    1.83623   1.84362   1.85185   1.86164   1.87671
 Alpha virt. eigenvalues --    1.89106   1.90054   1.90826   1.91035   1.91656
 Alpha virt. eigenvalues --    1.91979   1.92162   1.93022   1.95001   1.95349
 Alpha virt. eigenvalues --    1.96069   1.96765   1.98657   1.99601   2.00313
 Alpha virt. eigenvalues --    2.00523   2.03114   2.04769   2.05367   2.07006
 Alpha virt. eigenvalues --    2.07402   2.08772   2.09752   2.10496   2.10937
 Alpha virt. eigenvalues --    2.11665   2.14199   2.16202   2.17164   2.17338
 Alpha virt. eigenvalues --    2.18400   2.18557   2.19065   2.19328   2.20115
 Alpha virt. eigenvalues --    2.21454   2.21660   2.22187   2.22281   2.22797
 Alpha virt. eigenvalues --    2.23321   2.24279   2.24873   2.25354   2.25519
 Alpha virt. eigenvalues --    2.25693   2.26617   2.26926   2.27119   2.27487
 Alpha virt. eigenvalues --    2.27729   2.29171   2.31359   2.32346   2.33127
 Alpha virt. eigenvalues --    2.33779   2.35010   2.37822   2.39653   2.39713
 Alpha virt. eigenvalues --    2.40180   2.41025   2.41141   2.42477   2.43906
 Alpha virt. eigenvalues --    2.44098   2.44404   2.45819   2.46397   2.46773
 Alpha virt. eigenvalues --    2.46787   2.47846   2.48241   2.48704   2.50807
 Alpha virt. eigenvalues --    2.52363   2.53026   2.53348   2.54348   2.55060
 Alpha virt. eigenvalues --    2.55421   2.55829   2.56694   2.57488   2.58694
 Alpha virt. eigenvalues --    2.60909   2.61125   2.61765   2.62067   2.62451
 Alpha virt. eigenvalues --    2.63486   2.63866   2.65361   2.65975   2.67982
 Alpha virt. eigenvalues --    2.70570   2.71913   2.73130   2.73738   2.74026
 Alpha virt. eigenvalues --    2.74778   2.76793   2.82172   2.87042   2.89778
 Alpha virt. eigenvalues --    2.90722   2.94296   2.96863   2.98332   2.99719
 Alpha virt. eigenvalues --    3.00866   3.01764   3.01956   3.03658   3.03740
 Alpha virt. eigenvalues --    3.04462   3.05022   3.05411   3.07536   3.08068
 Alpha virt. eigenvalues --    3.09606   3.12763   3.13592   3.15408   3.17668
 Alpha virt. eigenvalues --    3.18121   3.18306   3.18663   3.19057   3.20511
 Alpha virt. eigenvalues --    3.22991   3.25180   3.25739   3.27922   3.31449
 Alpha virt. eigenvalues --    3.32641   3.33009   3.34576   3.45392   3.50151
 Alpha virt. eigenvalues --    3.50579   3.59700   3.59764   3.67324   3.68160
 Alpha virt. eigenvalues --    3.85539  18.56703  18.87971  21.00959  21.11085
 Alpha virt. eigenvalues --   21.37474  21.45672  21.51213  21.57160  21.61243
 Alpha virt. eigenvalues --   21.63678  21.65327  21.73050  21.79702  21.81109
 Alpha virt. eigenvalues --   21.82946  21.83435  21.83788  21.97616  21.99691
 Alpha virt. eigenvalues --   22.03088  22.03598  31.51784  31.66732
          Condensed to atoms (all electrons):
               1          2          3          4          5          6
     1  C    5.405851   0.097948  -0.112514   0.113791  -0.001606  -0.000024
     2  C    0.097948   6.084484   0.502223  -0.464221  -0.006350   0.014869
     3  S   -0.112514   0.502223  15.545512  -0.220441  -0.007412  -0.000429
     4  C    0.113791  -0.464221  -0.220441   6.617789  -0.022086  -0.053633
     5  C   -0.001606  -0.006350  -0.007412  -0.022086   5.859966   0.311558
     6  C   -0.000024   0.014869  -0.000429  -0.053633   0.311558   5.524007
     7  C    0.268486   0.175215   0.015494  -0.295489  -0.001100   0.001636
     8  C   -0.226036   0.216723   0.033553  -0.183403   0.005862   0.009013
     9  H   -0.000280   0.020000   0.002347  -0.044121  -0.007135  -0.008804
    10  C   -0.000127   0.002011   0.006666  -0.022877  -0.005671  -0.145182
    11  C   -0.000122  -0.002531  -0.000299   0.013606   0.048591   0.406215
    12  C    0.000050   0.001359   0.000228  -0.005163  -0.277597   0.091441
    13  C    0.000014  -0.001968  -0.001155   0.003585   0.168336  -0.110439
    14  H    0.000029   0.000046   0.000718  -0.000382   0.003058   0.007996
    15  H    0.000012  -0.000127  -0.000002   0.000543   0.029536  -0.058009
    16  H    0.000000   0.000003   0.000001  -0.000022   0.000658   0.014882
    17  C    0.134980  -0.220198  -0.006606   0.221251   0.004396  -0.013821
    18  H    0.416741  -0.083950  -0.001038   0.045415  -0.000012  -0.000023
    19  H   -0.003858  -0.027943   0.317322  -0.009430  -0.000024   0.000048
    20  H   -0.073737   0.024236  -0.000271  -0.005189  -0.000006  -0.000003
    21  H   -0.002673   0.022452   0.000004  -0.088856  -0.001190   0.011258
    22  H    0.018787  -0.004528  -0.000000   0.026006  -0.000073  -0.000406
    23  S    0.013907  -0.113472   0.006235   0.350211   0.077896  -0.147456
    24  C    0.000001  -0.000320  -0.000140   0.000385   0.008884   0.016917
    25  C   -0.000000  -0.000003  -0.000005   0.000005  -0.017019  -0.002868
    26  C    0.000000  -0.000010  -0.000023   0.000011   0.022940   0.001984
    27  N   -0.000000  -0.000000  -0.000000   0.000000  -0.000074   0.000020
    28  N    0.000000  -0.000000   0.000003  -0.000000  -0.000121   0.000016
    29  C   -0.000000   0.000000  -0.000000  -0.000000  -0.000132   0.000072
    30  H    0.000000  -0.000000   0.000000   0.000000   0.000006   0.000000
    31  H    0.000000  -0.000000   0.000000   0.000000   0.000133  -0.000061
    32  H   -0.000000  -0.000000   0.000000  -0.000000  -0.000003  -0.000000
    33  C   -0.000000  -0.000000  -0.000000   0.000000  -0.000015  -0.000001
    34  H    0.000000  -0.000000   0.000000   0.000000   0.000000   0.000000
    35  H   -0.000000   0.000000  -0.000000  -0.000000  -0.000000  -0.000000
    36  H    0.000000   0.000000   0.000000  -0.000000  -0.000000   0.000000
    37  C   -0.000000  -0.000002  -0.000230   0.000012  -0.000330   0.000027
    38  H   -0.000000   0.000000   0.000008  -0.000000  -0.000127  -0.000006
    39  H    0.000003   0.000002   0.000681  -0.000028  -0.000029  -0.000046
    40  H    0.000000  -0.000000   0.000012   0.000000   0.000081   0.000003
    41  C    0.000000  -0.000000  -0.000000   0.000000   0.000027   0.000001
    42  H   -0.000000   0.000000  -0.000000  -0.000000  -0.000002  -0.000000
    43  H    0.000000  -0.000000   0.000000   0.000000   0.000001   0.000000
    44  H    0.000000   0.000000   0.000000   0.000000   0.000000   0.000000
               7          8          9         10         11         12
     1  C    0.268486  -0.226036  -0.000280  -0.000127  -0.000122   0.000050
     2  C    0.175215   0.216723   0.020000   0.002011  -0.002531   0.001359
     3  S    0.015494   0.033553   0.002347   0.006666  -0.000299   0.000228
     4  C   -0.295489  -0.183403  -0.044121  -0.022877   0.013606  -0.005163
     5  C   -0.001100   0.005862  -0.007135  -0.005671   0.048591  -0.277597
     6  C    0.001636   0.009013  -0.008804  -0.145182   0.406215   0.091441
     7  C    5.121285   0.128401   0.000246   0.000109  -0.000814   0.000088
     8  C    0.128401   5.548530  -0.005392   0.013476   0.000314   0.001062
     9  H    0.000246  -0.005392   0.585484  -0.001236  -0.000906   0.000300
    10  C    0.000109   0.013476  -0.001236   5.845187  -0.080054  -0.061464
    11  C   -0.000814   0.000314  -0.000906  -0.080054   5.140937   0.203481
    12  C    0.000088   0.001062   0.000300  -0.061464   0.203481   5.667883
    13  C   -0.000047  -0.001662  -0.001187   0.232210   0.074216   0.334086
    14  H   -0.000002   0.000048   0.000143   0.361037  -0.001788   0.005943
    15  H   -0.000053  -0.000208  -0.000000  -0.000052   0.418919  -0.111255
    16  H    0.000000   0.000003   0.000002   0.010901  -0.020248   0.403286
    17  C    0.333336   0.168191   0.000439  -0.000243  -0.000702  -0.000178
    18  H   -0.066561  -0.007010  -0.000001  -0.000004   0.000005  -0.000002
    19  H   -0.000461   0.001861  -0.000049   0.000061  -0.000001   0.000001
    20  H    0.434824   0.021394   0.000001   0.000001  -0.000001   0.000000
    21  H    0.014036   0.414667   0.001474   0.000884  -0.000704   0.000379
    22  H   -0.062807  -0.066096  -0.000033  -0.000014  -0.000008  -0.000006
    23  S   -0.000573  -0.093434   0.318784   0.033528  -0.003457  -0.008436
    24  C   -0.000003  -0.000080  -0.000119  -0.066501   0.057818  -0.181094
    25  C    0.000000   0.000001  -0.000005   0.061659   0.014609  -0.059817
    26  C   -0.000000  -0.000008   0.000001  -0.073600  -0.001954   0.032339
    27  N    0.000000   0.000000  -0.000000   0.000385   0.000226   0.001045
    28  N    0.000000  -0.000000  -0.000000   0.001578   0.000011   0.000155
    29  C    0.000000   0.000000  -0.000000   0.000162  -0.000362  -0.002425
    30  H   -0.000000  -0.000000  -0.000000  -0.000034  -0.000074   0.000095
    31  H   -0.000000  -0.000000   0.000000  -0.000413   0.000126   0.005695
    32  H    0.000000  -0.000000   0.000000   0.000028   0.000054  -0.000099
    33  C    0.000000   0.000000  -0.000000   0.000090   0.000015  -0.000032
    34  H   -0.000000  -0.000000  -0.000000  -0.000002  -0.000002  -0.000002
    35  H    0.000000   0.000000   0.000000  -0.000000   0.000001  -0.000010
    36  H    0.000000  -0.000000   0.000000   0.000006   0.000000   0.000010
    37  C   -0.000000  -0.000000  -0.000002  -0.002042  -0.000015  -0.000136
    38  H    0.000000   0.000000   0.000000   0.000156   0.000005  -0.000029
    39  H    0.000000  -0.000001   0.000006   0.006137   0.000027  -0.000050
    40  H   -0.000000  -0.000000   0.000000  -0.000146  -0.000003   0.000023
    41  C   -0.000000  -0.000000   0.000000  -0.000012  -0.000003   0.000062
    42  H    0.000000   0.000000   0.000000  -0.000004   0.000000  -0.000001
    43  H   -0.000000  -0.000000  -0.000000  -0.000011  -0.000000  -0.000001
    44  H   -0.000000   0.000000   0.000000   0.000009  -0.000000   0.000007
              13         14         15         16         17         18
     1  C    0.000014   0.000029   0.000012   0.000000   0.134980   0.416741
     2  C   -0.001968   0.000046  -0.000127   0.000003  -0.220198  -0.083950
     3  S   -0.001155   0.000718  -0.000002   0.000001  -0.006606  -0.001038
     4  C    0.003585  -0.000382   0.000543  -0.000022   0.221251   0.045415
     5  C    0.168336   0.003058   0.029536   0.000658   0.004396  -0.000012
     6  C   -0.110439   0.007996  -0.058009   0.014882  -0.013821  -0.000023
     7  C   -0.000047  -0.000002  -0.000053   0.000000   0.333336  -0.066561
     8  C   -0.001662   0.000048  -0.000208   0.000003   0.168191  -0.007010
     9  H   -0.001187   0.000143  -0.000000   0.000002   0.000439  -0.000001
    10  C    0.232210   0.361037  -0.000052   0.010901  -0.000243  -0.000004
    11  C    0.074216  -0.001788   0.418919  -0.020248  -0.000702   0.000005
    12  C    0.334086   0.005943  -0.111255   0.403286  -0.000178  -0.000002
    13  C    6.703258  -0.086831   0.019388  -0.107367   0.000162   0.000002
    14  H   -0.086831   0.530268   0.000055  -0.000025   0.000010   0.000000
    15  H    0.019388   0.000055   0.574225  -0.003843   0.000150   0.000000
    16  H   -0.107367  -0.000025  -0.003843   0.554828   0.000001  -0.000000
    17  C    0.000162   0.000010   0.000150   0.000001   5.142373   0.017976
    18  H    0.000002   0.000000   0.000000  -0.000000   0.017976   0.545753
    19  H    0.000001  -0.000011  -0.000000  -0.000000  -0.000200  -0.000320
    20  H   -0.000000  -0.000000  -0.000000  -0.000000  -0.066535  -0.008045
    21  H   -0.000269  -0.000009  -0.000145  -0.000000  -0.024401  -0.000042
    22  H    0.000003   0.000000   0.000014   0.000000   0.425998  -0.000119
    23  S    0.002649   0.011414   0.000375   0.000048   0.021276  -0.000375
    24  C   -0.419659   0.013907   0.002433   0.002712   0.000016   0.000000
    25  C   -0.421262   0.005141   0.000307   0.002548  -0.000000   0.000000
    26  C   -0.349078   0.005856   0.000100   0.004765   0.000000   0.000000
    27  N   -0.025700   0.000055   0.000007   0.000241   0.000000   0.000000
    28  N   -0.023421   0.000472   0.000000   0.000036   0.000000   0.000000
    29  C   -0.011746   0.000004  -0.000041  -0.001563  -0.000000  -0.000000
    30  H   -0.000258   0.000000  -0.000000   0.000026   0.000000   0.000000
    31  H   -0.016157  -0.000016   0.000033  -0.000168   0.000000   0.000000
    32  H    0.000656   0.000000   0.000001   0.000298  -0.000000  -0.000000
    33  C   -0.002786   0.000004   0.000000   0.000017  -0.000000   0.000000
    34  H    0.000020   0.000000  -0.000000   0.000010   0.000000   0.000000
    35  H    0.000056  -0.000000   0.000000   0.000001  -0.000000  -0.000000
    36  H   -0.000156  -0.000001  -0.000000  -0.000001  -0.000000  -0.000000
    37  C   -0.013785  -0.001434  -0.000000  -0.000009   0.000000   0.000000
    38  H   -0.000509   0.000161   0.000000   0.000000  -0.000000  -0.000000
    39  H   -0.015016   0.000684  -0.000000  -0.000006   0.000000  -0.000000
    40  H    0.000893   0.000245   0.000000   0.000000   0.000000   0.000000
    41  C   -0.002762   0.000035   0.000000   0.000003   0.000000   0.000000
    42  H   -0.000009   0.000009   0.000000   0.000000  -0.000000  -0.000000
    43  H    0.000105  -0.000000  -0.000000  -0.000000   0.000000   0.000000
    44  H   -0.000174  -0.000000  -0.000000  -0.000001   0.000000   0.000000
              19         20         21         22         23         24
     1  C   -0.003858  -0.073737  -0.002673   0.018787   0.013907   0.000001
     2  C   -0.027943   0.024236   0.022452  -0.004528  -0.113472  -0.000320
     3  S    0.317322  -0.000271   0.000004  -0.000000   0.006235  -0.000140
     4  C   -0.009430  -0.005189  -0.088856   0.026006   0.350211   0.000385
     5  C   -0.000024  -0.000006  -0.001190  -0.000073   0.077896   0.008884
     6  C    0.000048  -0.000003   0.011258  -0.000406  -0.147456   0.016917
     7  C   -0.000461   0.434824   0.014036  -0.062807  -0.000573  -0.000003
     8  C    0.001861   0.021394   0.414667  -0.066096  -0.093434  -0.000080
     9  H   -0.000049   0.000001   0.001474  -0.000033   0.318784  -0.000119
    10  C    0.000061   0.000001   0.000884  -0.000014   0.033528  -0.066501
    11  C   -0.000001  -0.000001  -0.000704  -0.000008  -0.003457   0.057818
    12  C    0.000001   0.000000   0.000379  -0.000006  -0.008436  -0.181094
    13  C    0.000001  -0.000000  -0.000269   0.000003   0.002649  -0.419659
    14  H   -0.000011  -0.000000  -0.000009   0.000000   0.011414   0.013907
    15  H   -0.000000  -0.000000  -0.000145   0.000014   0.000375   0.002433
    16  H   -0.000000  -0.000000  -0.000000   0.000000   0.000048   0.002712
    17  C   -0.000200  -0.066535  -0.024401   0.425998   0.021276   0.000016
    18  H   -0.000320  -0.008045  -0.000042  -0.000119  -0.000375   0.000000
    19  H    0.596266   0.000009   0.000029  -0.000003   0.002910  -0.000001
    20  H    0.000009   0.550167  -0.000228  -0.008605   0.000036  -0.000000
    21  H    0.000029  -0.000228   0.546047  -0.007740  -0.014394  -0.000021
    22  H   -0.000003  -0.008605  -0.007740   0.550889  -0.000294   0.000000
    23  S    0.002910   0.000036  -0.014394  -0.000294  15.418670   0.008675
    24  C   -0.000001  -0.000000  -0.000021   0.000000   0.008675   7.215870
    25  C    0.000000   0.000000   0.000000  -0.000000   0.000190  -0.001702
    26  C    0.000000  -0.000000  -0.000000   0.000000   0.000229   0.078090
    27  N   -0.000000   0.000000  -0.000000   0.000000   0.000000  -0.153598
    28  N   -0.000000   0.000000  -0.000000   0.000000   0.000011  -0.146078
    29  C    0.000000   0.000000   0.000000  -0.000000  -0.000000  -0.002781
    30  H   -0.000000  -0.000000  -0.000000   0.000000   0.000000   0.005654
    31  H   -0.000000  -0.000000  -0.000000   0.000000   0.000001   0.009092
    32  H   -0.000000   0.000000   0.000000  -0.000000   0.000000  -0.003320
    33  C    0.000000   0.000000   0.000000  -0.000000   0.000000  -0.014274
    34  H    0.000000  -0.000000  -0.000000   0.000000  -0.000000   0.001160
    35  H   -0.000000   0.000000   0.000000  -0.000000  -0.000000  -0.002349
    36  H    0.000000   0.000000   0.000000   0.000000  -0.000000   0.007302
    37  C    0.000004  -0.000000   0.000000   0.000000  -0.000062  -0.002867
    38  H   -0.000000   0.000000   0.000000  -0.000000   0.000009   0.005268
    39  H   -0.000010   0.000000  -0.000000   0.000000   0.000136   0.007483
    40  H   -0.000000  -0.000000  -0.000000   0.000000   0.000002  -0.003030
    41  C    0.000000  -0.000000  -0.000000   0.000000   0.000000  -0.012859
    42  H    0.000000   0.000000   0.000000  -0.000000  -0.000000   0.000830
    43  H   -0.000000  -0.000000  -0.000000   0.000000   0.000000  -0.001846
    44  H   -0.000000  -0.000000  -0.000000   0.000000  -0.000000   0.006786
              25         26         27         28         29         30
     1  C   -0.000000   0.000000  -0.000000   0.000000  -0.000000   0.000000
     2  C   -0.000003  -0.000010  -0.000000  -0.000000   0.000000  -0.000000
     3  S   -0.000005  -0.000023  -0.000000   0.000003  -0.000000   0.000000
     4  C    0.000005   0.000011   0.000000  -0.000000  -0.000000   0.000000
     5  C   -0.017019   0.022940  -0.000074  -0.000121  -0.000132   0.000006
     6  C   -0.002868   0.001984   0.000020   0.000016   0.000072   0.000000
     7  C    0.000000  -0.000000   0.000000   0.000000   0.000000  -0.000000
     8  C    0.000001  -0.000008   0.000000  -0.000000   0.000000  -0.000000
     9  H   -0.000005   0.000001  -0.000000  -0.000000  -0.000000  -0.000000
    10  C    0.061659  -0.073600   0.000385   0.001578   0.000162  -0.000034
    11  C    0.014609  -0.001954   0.000226   0.000011  -0.000362  -0.000074
    12  C   -0.059817   0.032339   0.001045   0.000155  -0.002425   0.000095
    13  C   -0.421262  -0.349078  -0.025700  -0.023421  -0.011746  -0.000258
    14  H    0.005141   0.005856   0.000055   0.000472   0.000004   0.000000
    15  H    0.000307   0.000100   0.000007   0.000000  -0.000041  -0.000000
    16  H    0.002548   0.004765   0.000241   0.000036  -0.001563   0.000026
    17  C   -0.000000   0.000000   0.000000   0.000000  -0.000000   0.000000
    18  H    0.000000   0.000000   0.000000   0.000000  -0.000000   0.000000
    19  H    0.000000   0.000000  -0.000000  -0.000000   0.000000  -0.000000
    20  H    0.000000  -0.000000   0.000000   0.000000   0.000000  -0.000000
    21  H    0.000000  -0.000000  -0.000000  -0.000000   0.000000  -0.000000
    22  H   -0.000000   0.000000   0.000000   0.000000  -0.000000   0.000000
    23  S    0.000190   0.000229   0.000000   0.000011  -0.000000   0.000000
    24  C   -0.001702   0.078090  -0.153598  -0.146078  -0.002781   0.005654
    25  C    6.217734  -0.211867   0.554905  -0.075350  -0.047759  -0.000889
    26  C   -0.211867   6.111471  -0.079570   0.542710  -0.001523  -0.001244
    27  N    0.554905  -0.079570   6.424431  -0.000905   0.229320  -0.035895
    28  N   -0.075350   0.542710  -0.000905   6.425925  -0.000668   0.000004
    29  C   -0.047759  -0.001523   0.229320  -0.000668   4.940218   0.405790
    30  H   -0.000889  -0.001244  -0.035895   0.000004   0.405790   0.512668
    31  H   -0.017363   0.018029  -0.026285   0.000082   0.390737  -0.017069
    32  H    0.005926  -0.001147  -0.041017  -0.000003   0.407454  -0.031946
    33  C   -0.059272  -0.008753   0.248096   0.000410  -0.061942  -0.009777
    34  H    0.008733  -0.001084  -0.038951  -0.000022  -0.002081   0.006326
    35  H   -0.002788   0.002984  -0.039766  -0.000072  -0.005807  -0.001184
    36  H   -0.013359   0.000437  -0.026987  -0.001898   0.009703  -0.000052
    37  C    0.002534  -0.051055  -0.000622   0.227997   0.000020  -0.000002
    38  H   -0.001315  -0.000474   0.000004  -0.035509  -0.000002  -0.000000
    39  H    0.015703  -0.015050   0.000060  -0.026209   0.000006  -0.000000
    40  H   -0.001324   0.006012  -0.000006  -0.041508  -0.000000   0.000000
    41  C   -0.007611  -0.060839   0.000364   0.247527  -0.000150   0.000004
    42  H   -0.001010   0.008889  -0.000017  -0.038330   0.000000  -0.000000
    43  H    0.003001  -0.002839  -0.000087  -0.040604   0.000007   0.000001
    44  H   -0.000151  -0.013367  -0.001810  -0.026381   0.000002   0.000001
              31         32         33         34         35         36
     1  C    0.000000  -0.000000  -0.000000   0.000000  -0.000000   0.000000
     2  C   -0.000000  -0.000000  -0.000000  -0.000000   0.000000   0.000000
     3  S    0.000000   0.000000  -0.000000   0.000000  -0.000000   0.000000
     4  C    0.000000  -0.000000   0.000000   0.000000  -0.000000  -0.000000
     5  C    0.000133  -0.000003  -0.000015   0.000000  -0.000000  -0.000000
     6  C   -0.000061  -0.000000  -0.000001   0.000000  -0.000000   0.000000
     7  C   -0.000000   0.000000   0.000000  -0.000000   0.000000   0.000000
     8  C   -0.000000  -0.000000   0.000000  -0.000000   0.000000  -0.000000
     9  H    0.000000   0.000000  -0.000000  -0.000000   0.000000   0.000000
    10  C   -0.000413   0.000028   0.000090  -0.000002  -0.000000   0.000006
    11  C    0.000126   0.000054   0.000015  -0.000002   0.000001   0.000000
    12  C    0.005695  -0.000099  -0.000032  -0.000002  -0.000010   0.000010
    13  C   -0.016157   0.000656  -0.002786   0.000020   0.000056  -0.000156
    14  H   -0.000016   0.000000   0.000004   0.000000  -0.000000  -0.000001
    15  H    0.000033   0.000001   0.000000  -0.000000   0.000000  -0.000000
    16  H   -0.000168   0.000298   0.000017   0.000010   0.000001  -0.000001
    17  C    0.000000  -0.000000  -0.000000   0.000000  -0.000000  -0.000000
    18  H    0.000000  -0.000000   0.000000   0.000000  -0.000000  -0.000000
    19  H   -0.000000  -0.000000   0.000000   0.000000  -0.000000   0.000000
    20  H   -0.000000   0.000000   0.000000  -0.000000   0.000000   0.000000
    21  H   -0.000000   0.000000   0.000000  -0.000000   0.000000   0.000000
    22  H    0.000000  -0.000000  -0.000000   0.000000  -0.000000   0.000000
    23  S    0.000001   0.000000   0.000000  -0.000000  -0.000000  -0.000000
    24  C    0.009092  -0.003320  -0.014274   0.001160  -0.002349   0.007302
    25  C   -0.017363   0.005926  -0.059272   0.008733  -0.002788  -0.013359
    26  C    0.018029  -0.001147  -0.008753  -0.001084   0.002984   0.000437
    27  N   -0.026285  -0.041017   0.248096  -0.038951  -0.039766  -0.026987
    28  N    0.000082  -0.000003   0.000410  -0.000022  -0.000072  -0.001898
    29  C    0.390737   0.407454  -0.061942  -0.002081  -0.005807   0.009703
    30  H   -0.017069  -0.031946  -0.009777   0.006326  -0.001184  -0.000052
    31  H    0.510706  -0.021042   0.008413   0.000429  -0.000277  -0.000491
    32  H   -0.021042   0.517317   0.000931  -0.003139   0.005403   0.000100
    33  C    0.008413   0.000931   4.942869   0.399016   0.415754   0.392572
    34  H    0.000429  -0.003139   0.399016   0.513869  -0.030264  -0.020037
    35  H   -0.000277   0.005403   0.415754  -0.030264   0.509182  -0.023584
    36  H   -0.000491   0.000100   0.392572  -0.020037  -0.023584   0.535759
    37  C    0.000006  -0.000000  -0.000137  -0.000000   0.000007   0.000010
    38  H   -0.000000   0.000000   0.000004  -0.000000   0.000001   0.000001
    39  H   -0.000001   0.000000   0.000022  -0.000000   0.000000   0.000004
    40  H    0.000000  -0.000000  -0.000006   0.000000  -0.000000   0.000000
    41  C    0.000029  -0.000004  -0.003456   0.000186  -0.000098  -0.002082
    42  H   -0.000001   0.000000   0.000191  -0.000007   0.000014   0.000252
    43  H    0.000000  -0.000000  -0.000115   0.000017  -0.000025  -0.000143
    44  H    0.000005   0.000001  -0.002385   0.000249  -0.000108   0.002823
              37         38         39         40         41         42
     1  C   -0.000000  -0.000000   0.000003   0.000000   0.000000  -0.000000
     2  C   -0.000002   0.000000   0.000002  -0.000000  -0.000000   0.000000
     3  S   -0.000230   0.000008   0.000681   0.000012  -0.000000  -0.000000
     4  C    0.000012  -0.000000  -0.000028   0.000000   0.000000  -0.000000
     5  C   -0.000330  -0.000127  -0.000029   0.000081   0.000027  -0.000002
     6  C    0.000027  -0.000006  -0.000046   0.000003   0.000001  -0.000000
     7  C   -0.000000   0.000000   0.000000  -0.000000  -0.000000   0.000000
     8  C   -0.000000   0.000000  -0.000001  -0.000000  -0.000000   0.000000
     9  H   -0.000002   0.000000   0.000006   0.000000   0.000000   0.000000
    10  C   -0.002042   0.000156   0.006137  -0.000146  -0.000012  -0.000004
    11  C   -0.000015   0.000005   0.000027  -0.000003  -0.000003   0.000000
    12  C   -0.000136  -0.000029  -0.000050   0.000023   0.000062  -0.000001
    13  C   -0.013785  -0.000509  -0.015016   0.000893  -0.002762  -0.000009
    14  H   -0.001434   0.000161   0.000684   0.000245   0.000035   0.000009
    15  H   -0.000000   0.000000  -0.000000   0.000000   0.000000   0.000000
    16  H   -0.000009   0.000000  -0.000006   0.000000   0.000003   0.000000
    17  C    0.000000  -0.000000   0.000000   0.000000   0.000000  -0.000000
    18  H    0.000000  -0.000000  -0.000000   0.000000   0.000000  -0.000000
    19  H    0.000004  -0.000000  -0.000010  -0.000000   0.000000   0.000000
    20  H   -0.000000   0.000000   0.000000  -0.000000  -0.000000   0.000000
    21  H    0.000000   0.000000  -0.000000  -0.000000  -0.000000   0.000000
    22  H    0.000000  -0.000000   0.000000   0.000000   0.000000  -0.000000
    23  S   -0.000062   0.000009   0.000136   0.000002   0.000000  -0.000000
    24  C   -0.002867   0.005268   0.007483  -0.003030  -0.012859   0.000830
    25  C    0.002534  -0.001315   0.015703  -0.001324  -0.007611  -0.001010
    26  C   -0.051055  -0.000474  -0.015050   0.006012  -0.060839   0.008889
    27  N   -0.000622   0.000004   0.000060  -0.000006   0.000364  -0.000017
    28  N    0.227997  -0.035509  -0.026209  -0.041508   0.247527  -0.038330
    29  C    0.000020  -0.000002   0.000006  -0.000000  -0.000150   0.000000
    30  H   -0.000002  -0.000000  -0.000000   0.000000   0.000004  -0.000000
    31  H    0.000006  -0.000000  -0.000001   0.000000   0.000029  -0.000001
    32  H   -0.000000   0.000000   0.000000  -0.000000  -0.000004   0.000000
    33  C   -0.000137   0.000004   0.000022  -0.000006  -0.003456   0.000191
    34  H   -0.000000  -0.000000  -0.000000   0.000000   0.000186  -0.000007
    35  H    0.000007   0.000001   0.000000  -0.000000  -0.000098   0.000014
    36  H    0.000010   0.000001   0.000004   0.000000  -0.002082   0.000252
    37  C    4.948440   0.404608   0.388762   0.407340  -0.061769  -0.002217
    38  H    0.404608   0.515340  -0.017001  -0.031947  -0.009954   0.006365
    39  H    0.388762  -0.017001   0.508948  -0.020579   0.008441   0.000453
    40  H    0.407340  -0.031947  -0.020579   0.516269   0.001054  -0.003140
    41  C   -0.061769  -0.009954   0.008441   0.001054   4.943746   0.398331
    42  H   -0.002217   0.006365   0.000453  -0.003140   0.398331   0.514691
    43  H   -0.005749  -0.001185  -0.000277   0.005358   0.416048  -0.030168
    44  H    0.009626  -0.000034  -0.000480   0.000080   0.393447  -0.020028
              43         44
     1  C    0.000000   0.000000
     2  C   -0.000000   0.000000
     3  S    0.000000   0.000000
     4  C    0.000000   0.000000
     5  C    0.000001   0.000000
     6  C    0.000000   0.000000
     7  C   -0.000000  -0.000000
     8  C   -0.000000   0.000000
     9  H   -0.000000   0.000000
    10  C   -0.000011   0.000009
    11  C   -0.000000  -0.000000
    12  C   -0.000001   0.000007
    13  C    0.000105  -0.000174
    14  H   -0.000000  -0.000000
    15  H   -0.000000  -0.000000
    16  H   -0.000000  -0.000001
    17  C    0.000000   0.000000
    18  H    0.000000   0.000000
    19  H   -0.000000  -0.000000
    20  H   -0.000000  -0.000000
    21  H   -0.000000  -0.000000
    22  H    0.000000   0.000000
    23  S    0.000000  -0.000000
    24  C   -0.001846   0.006786
    25  C    0.003001  -0.000151
    26  C   -0.002839  -0.013367
    27  N   -0.000087  -0.001810
    28  N   -0.040604  -0.026381
    29  C    0.000007   0.000002
    30  H    0.000001   0.000001
    31  H    0.000000   0.000005
    32  H   -0.000000   0.000001
    33  C   -0.000115  -0.002385
    34  H    0.000017   0.000249
    35  H   -0.000025  -0.000108
    36  H   -0.000143   0.002823
    37  C   -0.005749   0.009626
    38  H   -0.001185  -0.000034
    39  H   -0.000277  -0.000480
    40  H    0.005358   0.000080
    41  C    0.416048   0.393447
    42  H   -0.030168  -0.020028
    43  H    0.508959  -0.023857
    44  H   -0.023857   0.534458
 Mulliken charges:
               1
     1  C   -0.049624
     2  C   -0.235948
     3  S   -0.080438
     4  C    0.022731
     5  C   -0.193816
     6  C    0.129249
     7  C   -0.065247
     8  C    0.020231
     9  H    0.140044
    10  C   -0.116589
    11  C   -0.265128
    12  C   -0.041223
    13  C    0.073765
    14  H    0.143162
    15  H    0.127637
    16  H    0.137981
    17  C   -0.137670
    18  H    0.141609
    19  H    0.123801
    20  H    0.131950
    21  H    0.129443
    22  H    0.129035
    23  S    0.114762
    24  C   -0.436639
    25  C    0.049747
    26  C    0.036640
    27  N    0.012131
    28  N    0.010146
    29  C   -0.244511
    30  H    0.167853
    31  H    0.155828
    32  H    0.163551
    33  C   -0.245455
    34  H    0.165575
    35  H    0.172930
    36  H    0.139811
    37  C   -0.246928
    38  H    0.166162
    39  H    0.157227
    40  H    0.164318
    41  C   -0.247704
    42  H    0.164909
    43  H    0.173411
    44  H    0.141282
 Sum of Mulliken charges =   1.00000
 Mulliken charges with hydrogens summed into heavy atoms:
               1
     1  C    0.091984
     2  C   -0.235948
     3  S    0.043363
     4  C    0.022731
     5  C   -0.193816
     6  C    0.129249
     7  C    0.066704
     8  C    0.149674
    10  C    0.026572
    11  C   -0.137491
    12  C    0.096758
    13  C    0.073765
    17  C   -0.008635
    23  S    0.254805
    24  C   -0.436639
    25  C    0.049747
    26  C    0.036640
    27  N    0.012131
    28  N    0.010146
    29  C    0.242721
    33  C    0.232861
    37  C    0.240780
    41  C    0.231898
 Electronic spatial extent (au):  <R**2>=          12335.3598
 Charge=              1.0000 electrons
 Dipole moment (field-independent basis, Debye):
    X=            -12.4771    Y=              1.2024    Z=              0.5038  Tot=             12.5451
 Quadrupole moment (field-independent basis, Debye-Ang):
   XX=            -28.2429   YY=           -114.6659   ZZ=           -141.3554
   XY=             -6.8617   XZ=              4.8102   YZ=              3.2424
 Traceless Quadrupole moment (field-independent basis, Debye-Ang):
   XX=             66.5118   YY=            -19.9111   ZZ=            -46.6007
   XY=             -6.8617   XZ=              4.8102   YZ=              3.2424
 Octapole moment (field-independent basis, Debye-Ang**2):
  XXX=           -403.0468  YYY=             37.3585  ZZZ=              9.2973  XYY=            -90.9183
  XXY=            -38.6719  XXZ=            -51.3489  XZZ=             11.6772  YZZ=              1.5618
  YYZ=             -3.0169  XYZ=              1.5591
 Hexadecapole moment (field-independent basis, Debye-Ang**3):
 XXXX=          -9413.0185 YYYY=          -2558.7547 ZZZZ=           -705.4118 XXXY=            -30.8388
 XXXZ=            -97.8429 YYYX=            -91.8617 YYYZ=             61.4808 ZZZX=             20.9296
 ZZZY=            -11.9225 XXYY=          -2024.5862 XXZZ=          -2138.6435 YYZZ=           -598.9752
 XXYZ=             59.6264 YYXZ=             52.8384 ZZXY=            -18.9629
 N-N= 2.022484843669D+03 E-N=-7.878567671192D+03  KE= 1.634569139811D+03
 No NMR shielding tensors so no spin-rotation constants.
 Leave Link  601 at Tue Jan 26 23:50:27 2021, MaxMem=  4026531840 cpu:               3.2 elap:               0.5
 (Enter /opt/ohpc/pub/libs/gaussian/g16-A.03/sandybridge/g16/l9999.exe)

 Test job not archived.
 1\1\GINC-GNODE020\SP\RLC-wHPBE\TZVP\C19H21N2S2(1+)\RDU230\26-Jan-2021\
 0\\#P LC-wHPBE/TZVP iop(3/107=0172700000, 3/108=0172700000) scf=(conve
 r=6,fermi,ndamp=35,noincfock,novaracc,vshift=500,xqc)\\H21 C19 S2 N2\\
 1,1\C,0,5.141333,0.341453,-1.428653\C,0,4.24633,0.793113,-0.45792\S,0,
 3.527427,2.438238,-0.612926\C,0,3.85258,-0.085202,0.570411\C,0,0.86370
 8,-0.787434,0.770822\C,0,1.152588,-1.949541,0.292605\C,0,5.641454,-0.9
 63707,-1.38032\C,0,4.337968,-1.397272,0.611701\H,0,2.805747,-0.536686,
 2.620663\C,0,-0.32759,-0.104924,0.757243\C,0,0.161049,-2.709273,-0.336
 618\C,0,-1.110551,-2.125038,-0.416532\C,0,-1.366563,-0.836811,0.116144
 \H,0,-0.506361,0.876389,1.203135\H,0,0.333628,-3.701573,-0.760587\H,0,
 -1.915541,-2.656529,-0.930176\C,0,5.242141,-1.827604,-0.363151\H,0,5.4
 50891,1.02542,-2.21936\H,0,4.15948,2.9901,0.460876\H,0,6.34791,-1.2988
 86,-2.140548\H,0,4.022912,-2.077842,1.402557\H,0,5.625918,-2.84765,-0.
 32369\S,0,2.641644,0.489998,1.741439\C,0,-2.680648,-0.257498,0.003764\
 C,0,-4.05427,-0.413992,-0.132503\C,0,-3.489875,0.870167,-0.052158\N,0,
 -5.09974,-1.211802,-0.243141\N,0,-3.607387,2.185094,-0.049886\C,0,-4.9
 5887,-2.66296,-0.086881\H,0,-5.24939,-3.175063,-1.01565\H,0,-3.921906,
 -2.911213,0.159186\H,0,-5.607057,-3.011636,0.730112\C,0,-6.456302,-0.7
 08508,-0.463149\H,0,-6.932296,-1.289768,-1.265044\H,0,-7.06234,-0.8046
 38,0.450448\H,0,-6.424137,0.340187,-0.774131\C,0,-2.422516,3.047015,-0
 .104701\H,0,-2.374233,3.683098,0.791036\H,0,-1.518165,2.434104,-0.1685
 34\H,0,-2.472812,3.689712,-0.995626\C,0,-4.905946,2.85982,-0.071613\H,
 0,-4.903422,3.671788,0.668659\H,0,-5.109136,3.28812,-1.064906\H,0,-5.7
 0105,2.156915,0.195603\\Version=EM64L-G16RevA.03\State=1-A\HF=-1641.31
 29045\RMSD=6.798e-07\Dipole=-4.9088874,0.4730617,0.1982149\Quadrupole=
 49.4498846,-14.8034373,-34.6464473,-5.1015289,3.5762911,2.4106696\PG=C
 01 [X(C19H21N2S2)]\\@


 HE THAT WALD REACHE THE SWEITE ROSE
 SULD NOW AND THEN BE SCRATCHED WT THE SCHARPE BREERES.
 -- PROVERBS AND REASONS OF THE YEAR 1585
           AS REPRINTED IN PAISLEY MAGAZINE 1828.
 Job cpu time:       0 days  1 hours 31 minutes 37.3 seconds.
 Elapsed time:       0 days  0 hours 11 minutes 28.3 seconds.
 File lengths (MBytes):  RWF=    156 Int=      0 D2E=      0 Chk=     24 Scr=      8
 Normal termination of Gaussian 16 at Tue Jan 26 23:50:27 2021.
