 Entering Gaussian System, Link 0=g16
 Input=mol_ta_cp_half_tune_c4.gjf
 Output=mol_ta_cp_half_tune_c4.log
 Initial command:
 /opt/ohpc/pub/libs/gaussian/g16-A.03/sandybridge/g16/l1.exe "/mnt/gpfs2_4m/scratch/rdu230/ondemand/projects/init_structures/gaussian/wtuning/mol_ta_cp_half/tuning_mol_ta_cp_half_ocycle0/Gau-130847.inp" -scrdir="/mnt/gpfs2_4m/scratch/rdu230/ondemand/projects/init_structures/gaussian/wtuning/mol_ta_cp_half/tuning_mol_ta_cp_half_ocycle0/"
 Entering Link 1 = /opt/ohpc/pub/libs/gaussian/g16-A.03/sandybridge/g16/l1.exe PID=    130848.
  
 Copyright (c) 1988,1990,1992,1993,1995,1998,2003,2009,2016,
            Gaussian, Inc.  All Rights Reserved.
  
 This is part of the Gaussian(R) 16 program.  It is based on
 the Gaussian(R) 09 system (copyright 2009, Gaussian, Inc.),
 the Gaussian(R) 03 system (copyright 2003, Gaussian, Inc.),
 the Gaussian(R) 98 system (copyright 1998, Gaussian, Inc.),
 the Gaussian(R) 94 system (copyright 1995, Gaussian, Inc.),
 the Gaussian 92(TM) system (copyright 1992, Gaussian, Inc.),
 the Gaussian 90(TM) system (copyright 1990, Gaussian, Inc.),
 the Gaussian 88(TM) system (copyright 1988, Gaussian, Inc.),
 the Gaussian 86(TM) system (copyright 1986, Carnegie Mellon
 University), and the Gaussian 82(TM) system (copyright 1983,
 Carnegie Mellon University). Gaussian is a federally registered
 trademark of Gaussian, Inc.
  
 This software contains proprietary and confidential information,
 including trade secrets, belonging to Gaussian, Inc.
  
 This software is provided under written license and may be
 used, copied, transmitted, or stored only in accord with that
 written license.
  
 The following legend is applicable only to US Government
 contracts under FAR:
  
                    RESTRICTED RIGHTS LEGEND
  
 Use, reproduction and disclosure by the US Government is
 subject to restrictions as set forth in subparagraphs (a)
 and (c) of the Commercial Computer Software - Restricted
 Rights clause in FAR 52.227-19.
  
 Gaussian, Inc.
 340 Quinnipiac St., Bldg. 40, Wallingford CT 06492
  
  
 ---------------------------------------------------------------
 Warning -- This program may not be used in any manner that
 competes with the business of Gaussian, Inc. or will provide
 assistance to any competitor of Gaussian, Inc.  The licensee
 of this program is prohibited from giving any competitor of
 Gaussian, Inc. access to this program.  By using this program,
 the user acknowledges that Gaussian, Inc. is engaged in the
 business of creating and licensing software in the field of
 computational chemistry and represents and warrants to the
 licensee that it is not a competitor of Gaussian, Inc. and that
 it will not use this program in any manner prohibited above.
 ---------------------------------------------------------------
  

 Cite this work as:
 Gaussian 16, Revision A.03,
 M. J. Frisch, G. W. Trucks, H. B. Schlegel, G. E. Scuseria, 
 M. A. Robb, J. R. Cheeseman, G. Scalmani, V. Barone, 
 G. A. Petersson, H. Nakatsuji, X. Li, M. Caricato, A. V. Marenich, 
 J. Bloino, B. G. Janesko, R. Gomperts, B. Mennucci, H. P. Hratchian, 
 J. V. Ortiz, A. F. Izmaylov, J. L. Sonnenberg, D. Williams-Young, 
 F. Ding, F. Lipparini, F. Egidi, J. Goings, B. Peng, A. Petrone, 
 T. Henderson, D. Ranasinghe, V. G. Zakrzewski, J. Gao, N. Rega, 
 G. Zheng, W. Liang, M. Hada, M. Ehara, K. Toyota, R. Fukuda, 
 J. Hasegawa, M. Ishida, T. Nakajima, Y. Honda, O. Kitao, H. Nakai, 
 T. Vreven, K. Throssell, J. A. Montgomery, Jr., J. E. Peralta, 
 F. Ogliaro, M. J. Bearpark, J. J. Heyd, E. N. Brothers, K. N. Kudin, 
 V. N. Staroverov, T. A. Keith, R. Kobayashi, J. Normand, 
 K. Raghavachari, A. P. Rendell, J. C. Burant, S. S. Iyengar, 
 J. Tomasi, M. Cossi, J. M. Millam, M. Klene, C. Adamo, R. Cammi, 
 J. W. Ochterski, R. L. Martin, K. Morokuma, O. Farkas, 
 J. B. Foresman, and D. J. Fox, Gaussian, Inc., Wallingford CT, 2016.
 
 ******************************************
 Gaussian 16:  EM64L-G16RevA.03 25-Dec-2016
                26-Jan-2021 
 ******************************************
 %mem=30GB
 %nproc=8
 Will use up to    8 processors via shared memory.
 ----------------------------------------------------------------------
 #P LC-wHPBE/TZVP iop(3/107=0175300000, 3/108=0175300000) scf=(conver=6
 ,fermi,ndamp=35,noincfock,novaracc,vshift=500,xqc)
 ----------------------------------------------------------------------
 1/38=1,172=1/1;
 2/12=2,17=6,18=5,40=1/2;
 3/5=19,7=101,11=2,25=1,30=1,74=-71,107=175300000,108=175300000/1,2,3;
 4//1;
 5/5=100002,6=6,8=3,10=500,13=1,18=-1,22=13,38=1,93=35/2,8;
 6/7=2,8=2,9=2,10=2,28=1/1;
 99/5=1,9=1/99;
 Leave Link    1 at Tue Jan 26 18:21:59 2021, MaxMem=  4026531840 cpu:               1.3 elap:               0.2
 (Enter /opt/ohpc/pub/libs/gaussian/g16-A.03/sandybridge/g16/l101.exe)
 -------------
 H21 C19 S2 N2
 -------------
 Symbolic Z-matrix:
 Charge =  2 Multiplicity = 2
 C                     5.14133   0.34145  -1.42865 
 C                     4.24633   0.79311  -0.45792 
 S                     3.52743   2.43824  -0.61293 
 C                     3.85258  -0.0852    0.57041 
 C                     0.86371  -0.78743   0.77082 
 C                     1.15259  -1.94954   0.29261 
 C                     5.64145  -0.96371  -1.38032 
 C                     4.33797  -1.39727   0.6117 
 H                     2.80575  -0.53669   2.62066 
 C                    -0.32759  -0.10492   0.75724 
 C                     0.16105  -2.70927  -0.33662 
 C                    -1.11055  -2.12504  -0.41653 
 C                    -1.36656  -0.83681   0.11614 
 H                    -0.50636   0.87639   1.20314 
 H                     0.33363  -3.70157  -0.76059 
 H                    -1.91554  -2.65653  -0.93018 
 C                     5.24214  -1.8276   -0.36315 
 H                     5.45089   1.02542  -2.21936 
 H                     4.15948   2.9901    0.46088 
 H                     6.34791  -1.29889  -2.14055 
 H                     4.02291  -2.07784   1.40256 
 H                     5.62592  -2.84765  -0.32369 
 S                     2.64164   0.49      1.74144 
 C                    -2.68065  -0.2575    0.00376 
 C                    -4.05427  -0.41399  -0.1325 
 C                    -3.48988   0.87017  -0.05216 
 N                    -5.09974  -1.2118   -0.24314 
 N                    -3.60739   2.18509  -0.04989 
 C                    -4.95887  -2.66296  -0.08688 
 H                    -5.24939  -3.17506  -1.01565 
 H                    -3.92191  -2.91121   0.15919 
 H                    -5.60706  -3.01164   0.73011 
 C                    -6.4563   -0.70851  -0.46315 
 H                    -6.9323   -1.28977  -1.26504 
 H                    -7.06234  -0.80464   0.45045 
 H                    -6.42414   0.34019  -0.77413 
 C                    -2.42252   3.04702  -0.1047 
 H                    -2.37423   3.6831    0.79104 
 H                    -1.51817   2.4341   -0.16853 
 H                    -2.47281   3.68971  -0.99563 
 C                    -4.90595   2.85982  -0.07161 
 H                    -4.90342   3.67179   0.66866 
 H                    -5.10914   3.28812  -1.06491 
 H                    -5.70105   2.15692   0.1956 
 
 ITRead=  0  0  0  0  0  0  0  0  0  0  0  0  0  0  0  0  0  0  0  0
 ITRead=  0  0  0  0  0  0  0  0  0  0  0  0  0  0  0  0  0  0  0  0
 ITRead=  0  0  0  0
 MicOpt= -1 -1 -1 -1 -1 -1 -1 -1 -1 -1 -1 -1 -1 -1 -1 -1 -1 -1 -1 -1
 MicOpt= -1 -1 -1 -1 -1 -1 -1 -1 -1 -1 -1 -1 -1 -1 -1 -1 -1 -1 -1 -1
 MicOpt= -1 -1 -1 -1
 NAtoms=     44 NQM=       44 NQMF=       0 NMMI=      0 NMMIF=      0
                NMic=       0 NMicF=      0.
                    Isotopes and Nuclear Properties:
 (Nuclear quadrupole moments (NQMom) in fm**2, nuclear magnetic moments (NMagM)
  in nuclear magnetons)

  Atom         1           2           3           4           5           6           7           8           9          10
 IAtWgt=          12          12          32          12          12          12          12          12           1          12
 AtmWgt=  12.0000000  12.0000000  31.9720718  12.0000000  12.0000000  12.0000000  12.0000000  12.0000000   1.0078250  12.0000000
 NucSpn=           0           0           0           0           0           0           0           0           1           0
 AtZEff=  -0.0000000  -0.0000000  -0.0000000  -0.0000000  -0.0000000  -0.0000000  -0.0000000  -0.0000000  -0.0000000  -0.0000000
 NQMom=    0.0000000   0.0000000   0.0000000   0.0000000   0.0000000   0.0000000   0.0000000   0.0000000   0.0000000   0.0000000
 NMagM=    0.0000000   0.0000000   0.0000000   0.0000000   0.0000000   0.0000000   0.0000000   0.0000000   2.7928460   0.0000000
 AtZNuc=   6.0000000   6.0000000  16.0000000   6.0000000   6.0000000   6.0000000   6.0000000   6.0000000   1.0000000   6.0000000

  Atom        11          12          13          14          15          16          17          18          19          20
 IAtWgt=          12          12          12           1           1           1          12           1           1           1
 AtmWgt=  12.0000000  12.0000000  12.0000000   1.0078250   1.0078250   1.0078250  12.0000000   1.0078250   1.0078250   1.0078250
 NucSpn=           0           0           0           1           1           1           0           1           1           1
 AtZEff=  -0.0000000  -0.0000000  -0.0000000  -0.0000000  -0.0000000  -0.0000000  -0.0000000  -0.0000000  -0.0000000  -0.0000000
 NQMom=    0.0000000   0.0000000   0.0000000   0.0000000   0.0000000   0.0000000   0.0000000   0.0000000   0.0000000   0.0000000
 NMagM=    0.0000000   0.0000000   0.0000000   2.7928460   2.7928460   2.7928460   0.0000000   2.7928460   2.7928460   2.7928460
 AtZNuc=   6.0000000   6.0000000   6.0000000   1.0000000   1.0000000   1.0000000   6.0000000   1.0000000   1.0000000   1.0000000

  Atom        21          22          23          24          25          26          27          28          29          30
 IAtWgt=           1           1          32          12          12          12          14          14          12           1
 AtmWgt=   1.0078250   1.0078250  31.9720718  12.0000000  12.0000000  12.0000000  14.0030740  14.0030740  12.0000000   1.0078250
 NucSpn=           1           1           0           0           0           0           2           2           0           1
 AtZEff=  -0.0000000  -0.0000000  -0.0000000  -0.0000000  -0.0000000  -0.0000000  -0.0000000  -0.0000000  -0.0000000  -0.0000000
 NQMom=    0.0000000   0.0000000   0.0000000   0.0000000   0.0000000   0.0000000   2.0440000   2.0440000   0.0000000   0.0000000
 NMagM=    2.7928460   2.7928460   0.0000000   0.0000000   0.0000000   0.0000000   0.4037610   0.4037610   0.0000000   2.7928460
 AtZNuc=   1.0000000   1.0000000  16.0000000   6.0000000   6.0000000   6.0000000   7.0000000   7.0000000   6.0000000   1.0000000

  Atom        31          32          33          34          35          36          37          38          39          40
 IAtWgt=           1           1          12           1           1           1          12           1           1           1
 AtmWgt=   1.0078250   1.0078250  12.0000000   1.0078250   1.0078250   1.0078250  12.0000000   1.0078250   1.0078250   1.0078250
 NucSpn=           1           1           0           1           1           1           0           1           1           1
 AtZEff=  -0.0000000  -0.0000000  -0.0000000  -0.0000000  -0.0000000  -0.0000000  -0.0000000  -0.0000000  -0.0000000  -0.0000000
 NQMom=    0.0000000   0.0000000   0.0000000   0.0000000   0.0000000   0.0000000   0.0000000   0.0000000   0.0000000   0.0000000
 NMagM=    2.7928460   2.7928460   0.0000000   2.7928460   2.7928460   2.7928460   0.0000000   2.7928460   2.7928460   2.7928460
 AtZNuc=   1.0000000   1.0000000   6.0000000   1.0000000   1.0000000   1.0000000   6.0000000   1.0000000   1.0000000   1.0000000

  Atom        41          42          43          44
 IAtWgt=          12           1           1           1
 AtmWgt=  12.0000000   1.0078250   1.0078250   1.0078250
 NucSpn=           0           1           1           1
 AtZEff=  -0.0000000  -0.0000000  -0.0000000  -0.0000000
 NQMom=    0.0000000   0.0000000   0.0000000   0.0000000
 NMagM=    0.0000000   2.7928460   2.7928460   2.7928460
 AtZNuc=   6.0000000   1.0000000   1.0000000   1.0000000
 Leave Link  101 at Tue Jan 26 18:21:59 2021, MaxMem=  4026531840 cpu:               0.7 elap:               0.1
 (Enter /opt/ohpc/pub/libs/gaussian/g16-A.03/sandybridge/g16/l202.exe)
                          Input orientation:                          
 ---------------------------------------------------------------------
 Center     Atomic      Atomic             Coordinates (Angstroms)
 Number     Number       Type             X           Y           Z
 ---------------------------------------------------------------------
      1          6           0        5.141333    0.341453   -1.428653
      2          6           0        4.246330    0.793113   -0.457920
      3         16           0        3.527427    2.438238   -0.612926
      4          6           0        3.852580   -0.085202    0.570411
      5          6           0        0.863708   -0.787434    0.770822
      6          6           0        1.152588   -1.949541    0.292605
      7          6           0        5.641454   -0.963707   -1.380320
      8          6           0        4.337968   -1.397272    0.611701
      9          1           0        2.805747   -0.536686    2.620663
     10          6           0       -0.327590   -0.104924    0.757243
     11          6           0        0.161049   -2.709273   -0.336618
     12          6           0       -1.110551   -2.125038   -0.416532
     13          6           0       -1.366563   -0.836811    0.116144
     14          1           0       -0.506361    0.876389    1.203135
     15          1           0        0.333628   -3.701573   -0.760587
     16          1           0       -1.915541   -2.656529   -0.930176
     17          6           0        5.242141   -1.827604   -0.363151
     18          1           0        5.450891    1.025420   -2.219360
     19          1           0        4.159480    2.990100    0.460876
     20          1           0        6.347910   -1.298886   -2.140548
     21          1           0        4.022912   -2.077842    1.402557
     22          1           0        5.625918   -2.847650   -0.323690
     23         16           0        2.641644    0.489998    1.741439
     24          6           0       -2.680648   -0.257498    0.003764
     25          6           0       -4.054270   -0.413992   -0.132503
     26          6           0       -3.489875    0.870167   -0.052158
     27          7           0       -5.099740   -1.211802   -0.243141
     28          7           0       -3.607387    2.185094   -0.049886
     29          6           0       -4.958870   -2.662960   -0.086881
     30          1           0       -5.249390   -3.175063   -1.015650
     31          1           0       -3.921906   -2.911213    0.159186
     32          1           0       -5.607057   -3.011636    0.730112
     33          6           0       -6.456302   -0.708508   -0.463149
     34          1           0       -6.932296   -1.289768   -1.265044
     35          1           0       -7.062340   -0.804638    0.450448
     36          1           0       -6.424137    0.340187   -0.774131
     37          6           0       -2.422516    3.047015   -0.104701
     38          1           0       -2.374233    3.683098    0.791036
     39          1           0       -1.518165    2.434104   -0.168534
     40          1           0       -2.472812    3.689712   -0.995626
     41          6           0       -4.905946    2.859820   -0.071613
     42          1           0       -4.903422    3.671788    0.668659
     43          1           0       -5.109136    3.288120   -1.064906
     44          1           0       -5.701050    2.156915    0.195603
 ---------------------------------------------------------------------
                    Distance matrix (angstroms):
                    1          2          3          4          5
     1  C    0.000000
     2  C    1.395475   0.000000
     3  S    2.768864   1.802022   0.000000
     4  C    2.416439   1.408524   2.806022   0.000000
     5  C    4.940663   3.930657   4.406259   3.076792   0.000000
     6  C    4.911361   4.201985   5.070745   3.292855   1.289432
     7  C    1.398535   2.425615   4.078141   2.788762   5.242646
     8  C    2.798500   2.439318   4.107046   1.399584   3.530964
     9  H    4.756369   3.649838   4.452762   2.345897   2.693752
    10  C    5.906481   4.817036   4.817281   4.184390   1.373024
    11  C    5.941607   5.382466   6.156762   4.619075   2.326718
    12  C    6.796618   6.100286   6.509447   5.455974   2.663962
    13  C    6.791717   5.872884   5.933686   5.292516   2.324898
    14  H    6.253712   5.035287   4.691364   4.508366   2.198247
    15  H    6.317151   5.966829   6.922387   5.218498   3.334427
    16  H    7.683479   7.077550   7.462118   6.491125   3.756479
    17  C    2.418732   2.805134   4.604350   2.416275   4.640962
    18  H    1.090346   2.146533   2.876873   3.401603   5.768004
    19  H    3.398483   2.382956   1.362752   3.092518   5.022743
    20  H    2.157159   3.409448   4.924921   3.879304   6.230099
    21  H    3.888393   3.428363   4.970177   2.166124   3.470564
    22  H    3.409713   3.895695   5.694553   3.402244   5.302932
    23  S    4.039801   2.739357   3.181711   1.780036   2.394783
    24  C    7.974581   7.021393   6.796138   6.560019   3.664924
    25  C    9.317179   8.394222   8.114687   7.944839   5.014176
    26  C    8.756257   7.747222   7.212200   7.430476   4.730605
    27  N   10.425815   9.561111   9.374836   9.059532   6.063903
    28  N    9.046553   7.986550   7.161471   7.822411   5.431406
    29  C   10.622662   9.839605   9.915452   9.204266   6.177027
    30  H   10.977412  10.306609  10.426114   9.742109   6.801634
    31  H    9.759271   8.990157   9.203551   8.282396   5.271303
    32  H   11.464352  10.629053  10.721179   9.903245   6.842480
    33  C   11.685023  10.807462  10.468968  10.379297   7.423709
    34  H   12.184423  11.399628  11.123358  11.006063   8.073089
    35  H   12.400572  11.457048  11.126103  10.939262   7.932539
    36  H   11.583976  10.684755  10.171599  10.373026   7.534659
    37  C    8.141543   7.048287   6.002560   7.045807   5.125311
    38  H    8.519234   7.331013   6.192768   7.281618   5.519993
    39  H    7.093377   6.000500   5.065126   5.978114   4.115096
    40  H    8.329079   7.336640   6.141296   7.530806   5.856410
    41  C   10.446604   9.390669   8.461237   9.262674   6.877577
    42  H   10.788278   9.657842   8.616456   9.528494   7.290740
    43  H   10.671798   9.701455   8.690041   9.714212   7.460221
    44  H   11.112667  10.061681   9.268098   9.820357   7.217764
                    6          7          8          9         10
     6  C    0.000000
     7  C    4.890855   0.000000
     8  C    3.248610   2.419752   0.000000
     9  H    3.185741   4.922545   2.669127   0.000000
    10  C    2.410275   6.398138   4.843426   3.671043   0.000000
    11  C    1.398665   5.845610   4.479655   4.523281   2.866694
    12  C    2.378124   6.918609   5.592251   5.204306   2.464069
    13  C    2.759607   7.167134   5.753379   4.875537   1.423422
    14  H    3.401038   6.917790   5.383944   3.869913   1.092590
    15  H    2.202164   6.004415   4.819514   5.249832   3.959407
    16  H    3.377638   7.757348   6.562735   6.276365   3.446688
    17  C    4.143589   1.392983   1.397516   4.062712   5.936734
    18  H    5.799635   2.167240   3.888823   5.732607   6.597627
    19  H    5.785306   4.606391   4.393591   4.351493   5.459011
    20  H    5.773643   1.090583   3.409461   5.983059   7.374621
    21  H    3.080132   3.406667   1.089903   2.310938   4.820343
    22  H    4.604031   2.160081   2.153455   4.686484   6.643434
    23  S    3.204334   4.567001   2.777699   1.361633   3.184168
    24  C    4.200016   8.465920   7.136501   6.084952   2.475458
    25  C    5.445181   9.791134   8.482354   7.392889   3.843867
    26  C    5.442617   9.407884   8.176620   6.982697   3.406755
    27  N    6.318456  10.804072   9.478158   8.435276   4.999936
    28  N    6.314259   9.860328   8.740693   7.461113   4.080773
    29  C    6.164649  10.813293   9.408569   8.493592   5.357691
    30  H    6.648215  11.119063   9.885659   9.223288   6.065725
    31  H    5.166537   9.880319   8.409656   7.547090   4.599134
    32  H    6.856549  11.626562  10.075898   8.970777   6.026814
    33  C    7.746388  12.135157  10.869497   9.763451   6.278119
    34  H    8.259959  12.578505  11.425961  10.511676   7.008255
    35  H    8.295828  12.836019  11.416840  10.107461   6.777948
    36  H    7.986710  12.150971  10.989186   9.873413   6.301676
    37  C    6.156687   9.096192   8.122134   6.899656   3.881544
    38  H    6.664347   9.516240   8.419974   6.927215   4.305694
    39  H    5.153825   8.017087   7.041484   5.941500   2.953167
    40  H    6.826730   9.361817   8.651453   7.668323   4.698275
    41  C    7.743929  11.295119  10.199985   8.846175   5.517069
    42  H    8.271397  11.699596  10.540489   8.997381   5.933771
    43  H    8.275573  11.565150  10.677625   9.531943   6.139720
    44  H    7.990291  11.869044  10.657733   9.246729   5.857084
                   11         12         13         14         15
    11  C    0.000000
    12  C    1.401672   0.000000
    13  C    2.458598   1.417327   0.000000
    14  H    3.958945   3.463659   2.203758   0.000000
    15  H    1.092791   2.165523   3.444730   5.051685   0.000000
    16  H    2.160398   1.092850   2.169686   4.360999   2.485888
    17  C    5.157086   6.359875   6.699729   6.542943   5.269081
    18  H    6.743521   7.498540   7.443129   6.872011   7.117504
    19  H    7.007589   7.396466   6.730620   5.175789   7.804332
    20  H    6.597015   7.699571   8.051041   7.930515   6.621842
    21  H    4.282221   5.446444   5.678156   5.411244   4.574550
    22  H    5.466636   6.775751   7.289151   7.335156   5.378513
    23  S    4.550495   5.057096   4.524127   3.216987   5.399661
    24  C    3.768594   2.475795   1.440504   2.729783   4.640231
    25  C    4.804050   3.416699   2.732100   4.004581   5.518725
    26  C    5.120796   3.842552   2.729570   3.236843   6.001821
    27  N    5.470563   4.096058   3.769126   5.248941   5.999016
    28  N    6.183701   4.994583   3.765736   3.591536   7.119659
    29  C    5.126215   3.899691   4.034936   5.832321   5.435359
    30  H    5.472741   4.311784   4.671694   6.620694   5.613587
    31  H    4.117903   2.975439   3.291622   5.205930   4.424954
    32  H    5.873703   4.724343   4.805061   6.430987   6.163598
    33  C    6.914362   5.530442   5.124206   6.378887   7.426308
    34  H    7.293320   5.942252   5.752411   7.216425   7.672349
    35  H    7.511621   6.157833   5.705670   6.809791   8.034873
    36  H    7.270165   5.868510   5.268488   6.262361   7.874223
    37  C    6.313750   5.344962   4.030870   3.177059   7.319150
    38  H    6.968620   6.065440   4.679792   3.396526   8.017070
    39  H    5.413163   4.584041   3.286778   2.309047   6.436319
    40  H    6.951153   6.000202   4.790535   4.076305   7.909642
    41  C    7.533888   6.274775   5.121286   4.991526   8.424945
    42  H    8.208373   7.011897   5.756918   5.237754   9.156194
    43  H    8.017105   6.761017   5.693574   5.669744   8.864090
    44  H    7.637228   6.307338   5.268443   5.444232   8.464840
                   16         17         18         19         20
    16  H    0.000000
    17  C    7.227797   0.000000
    18  H    8.335650   3.410108   0.000000
    19  H    8.409835   5.006141   3.565302   0.000000
    20  H    8.461254   2.159029   2.492640   5.472845   0.000000
    21  H    6.406383   2.160292   4.978719   5.156496   4.308826
    22  H    7.568220   1.090567   4.315654   6.070034   2.494176
    23  S    6.148666   4.069787   4.885333   3.192832   5.657414
    24  C    2.685700   8.085199   8.527021   7.585723   9.337956
    25  C    3.199909   9.406102   9.837427   8.910984  10.631116
    26  C    3.960685   9.144550   9.200987   7.954241  10.288254
    27  N    3.563478  10.360894  10.964781  10.192388  11.604156
    28  N    5.203707   9.721832   9.386366   7.825160  10.752531
    29  C    3.158012  10.238885  11.247877  10.742506  11.572447
    30  H    3.375016  10.597812  11.558070  11.345316  11.801814
    31  H    2.297188   9.242662  10.440493  10.011259  10.646948
    32  H    4.063243  10.968238  12.135708  11.466410  12.413518
    33  C    4.963004  11.752274  12.160264  11.279555  12.927106
    34  H    5.210375  12.219640  12.633849  12.013474  13.309037
    35  H    5.641380  12.373708  12.925089  11.846071  13.667200
    36  H    5.415911  11.873090  11.982259  10.979992  12.949086
    37  C    5.785227   9.087116   8.399355   6.606496   9.997595
    38  H    6.585123   9.471491   8.795357   6.578652  10.463753
    39  H    5.162611   7.993858   7.399866   5.739420   8.927440
    40  H    6.370998   9.505856   8.448730   6.826284  10.198142
    41  C    6.333227  11.182156  10.735079   9.081986  12.174753
    42  H    7.178531  11.586216  11.070488   9.090878  12.617120
    43  H    6.749522  11.567715  10.861250   9.398089  12.387959
    44  H    6.226291  11.659418  11.466391   9.899223  12.750592
                   21         22         23         24         25
    21  H    0.000000
    22  H    2.478338   0.000000
    23  S    2.935395   4.930572   0.000000
    24  C    7.085760   8.707190   5.648456   0.000000
    25  C    8.388425   9.983250   7.011713   1.389207   0.000000
    26  C    8.200544   9.848532   6.399769   1.389102   1.405013
    27  N    9.310270  10.849987   8.170906   2.612214   1.319753
    28  N    8.860230  10.519382   6.718079   2.613040   2.638518
    29  C    9.123223  10.589047   8.429218   3.314326   2.424508
    30  H    9.645061  10.902217   9.127027   4.018685   3.135566
    31  H    8.084591   9.560238   7.559891   2.933783   2.517681
    32  H    9.698477  11.283489   9.018054   4.083715   3.146904
    33  C   10.731722  12.270918   9.437650   3.831055   2.442504
    34  H   11.302820  12.689440  10.191508   4.555433   3.214447
    35  H   11.198677  12.874979   9.874717   4.438256   3.088838
    36  H   10.941922  12.472731   9.409512   3.869891   2.568412
    37  C    8.371352   9.978593   5.965927   3.316354   3.826482
    38  H    8.630519  10.387285   6.021476   4.030135   4.523449
    39  H    7.316387   8.885883   4.973083   2.936967   3.813762
    40  H    9.011681  10.429671   6.624753   4.077063   4.481783
    41  C   10.309131  11.981607   8.115992   3.830836   3.383327
    42  H   10.643133  12.423962   8.258491   4.563124   4.249296
    43  H   10.875487  12.387028   8.705151   4.428433   3.960777
    44  H   10.674518  12.394174   8.646893   3.871566   3.070684
                   26         27         28         29         30
    26  C    0.000000
    27  N    2.638699   0.000000
    28  N    1.320169   3.715288   0.000000
    29  C    3.826505   1.466329   5.033041   0.000000
    30  H    4.515318   2.115079   5.688599   1.099665   0.000000
    31  H    3.811844   2.106456   5.110282   1.094291   1.792225
    32  H    4.490301   2.108078   5.622551   1.099636   1.789502
    33  C    3.385383   1.463547   4.081671   2.490735   2.801033
    34  H    4.241070   2.099673   4.960473   2.677337   2.539430
    35  H    3.977448   2.121001   4.596252   2.857738   3.324928
    36  H    3.067901   2.108233   3.444168   3.411482   3.714208
    37  C    2.425012   5.032317   1.466230   6.247978   6.894585
    38  H    3.141371   5.697188   2.114671   6.908223   7.652778
    39  H    2.519342   5.111348   2.107352   6.150218   6.789875
    40  H    3.142353   5.611758   2.108450   6.882060   7.405061
    41  C    2.442203   4.079839   1.463551   5.523055   6.117922
    42  H    3.219747   4.971858   2.099112   6.379886   7.059459
    43  H    3.081260   4.574351   2.121835   6.032783   6.464892
    44  H    2.570292   3.449975   2.108194   4.884857   5.486449
                   31         32         33         34         35
    31  H    0.000000
    32  H    1.782070   0.000000
    33  C    3.415022   2.729375   0.000000
    34  H    3.704047   2.949870   1.098849   0.000000
    35  H    3.792732   2.658364   1.100537   1.787505   0.000000
    36  H    4.207593   3.763653   1.094306   1.776506   1.793745
    37  C    6.149658   6.895322   5.523031   6.363348   6.055691
    38  H    6.802901   7.434671   6.125559   7.052149   6.498778
    39  H    5.870075   6.868965   5.860717   6.662010   6.450617
    40  H    6.856068   7.596692   5.957857   6.689903   6.584381
    41  C    5.858876   5.967270   3.910226   4.769639   4.283787
    42  H    6.675241   6.720642   4.783244   5.698471   4.974629
    43  H    6.429591   6.569394   4.260282   4.931635   4.781419
    44  H    5.371462   5.196966   3.035623   3.940695   3.269381
                   36         37         38         39         40
    36  H    0.000000
    37  C    4.877297   0.000000
    38  H    5.479646   1.099672   0.000000
    39  H    5.368407   1.094342   1.792655   0.000000
    40  H    5.184722   1.099698   1.789392   1.781006   0.000000
    41  C    3.024398   2.490695   2.798485   3.415800   2.731787
    42  H    3.936214   2.672699   2.532173   3.700367   2.945850
    43  H    3.241001   2.863224   3.328697   3.798407   2.667636
    44  H    2.182599   3.410461   3.708300   4.207845   3.766963
                   41         42         43         44
    41  C    0.000000
    42  H    1.098773   0.000000
    43  H    1.100617   1.787391   0.000000
    44  H    1.094381   1.776185   1.794121   0.000000
 Stoichiometry    C19H21N2S2(2+,2)
 Framework group  C1[X(C19H21N2S2)]
 Deg. of freedom   126
 Full point group                 C1      NOp   1
 Largest Abelian subgroup         C1      NOp   1
 Largest concise Abelian subgroup C1      NOp   1
                         Standard orientation:                         
 ---------------------------------------------------------------------
 Center     Atomic      Atomic             Coordinates (Angstroms)
 Number     Number       Type             X           Y           Z
 ---------------------------------------------------------------------
      1          6           0        5.141333    0.341453   -1.428653
      2          6           0        4.246330    0.793113   -0.457920
      3         16           0        3.527427    2.438238   -0.612926
      4          6           0        3.852580   -0.085202    0.570411
      5          6           0        0.863708   -0.787434    0.770822
      6          6           0        1.152588   -1.949541    0.292605
      7          6           0        5.641454   -0.963707   -1.380320
      8          6           0        4.337968   -1.397272    0.611701
      9          1           0        2.805747   -0.536686    2.620663
     10          6           0       -0.327590   -0.104924    0.757243
     11          6           0        0.161049   -2.709273   -0.336618
     12          6           0       -1.110551   -2.125038   -0.416532
     13          6           0       -1.366563   -0.836811    0.116144
     14          1           0       -0.506361    0.876389    1.203135
     15          1           0        0.333628   -3.701573   -0.760587
     16          1           0       -1.915541   -2.656529   -0.930176
     17          6           0        5.242141   -1.827604   -0.363151
     18          1           0        5.450891    1.025420   -2.219360
     19          1           0        4.159480    2.990100    0.460876
     20          1           0        6.347910   -1.298886   -2.140548
     21          1           0        4.022912   -2.077842    1.402557
     22          1           0        5.625918   -2.847650   -0.323690
     23         16           0        2.641644    0.489998    1.741439
     24          6           0       -2.680648   -0.257498    0.003764
     25          6           0       -4.054270   -0.413992   -0.132503
     26          6           0       -3.489875    0.870167   -0.052158
     27          7           0       -5.099740   -1.211802   -0.243141
     28          7           0       -3.607387    2.185094   -0.049886
     29          6           0       -4.958870   -2.662960   -0.086881
     30          1           0       -5.249390   -3.175063   -1.015650
     31          1           0       -3.921906   -2.911213    0.159186
     32          1           0       -5.607057   -3.011636    0.730112
     33          6           0       -6.456302   -0.708508   -0.463149
     34          1           0       -6.932296   -1.289768   -1.265044
     35          1           0       -7.062340   -0.804638    0.450448
     36          1           0       -6.424137    0.340187   -0.774131
     37          6           0       -2.422516    3.047015   -0.104701
     38          1           0       -2.374233    3.683098    0.791036
     39          1           0       -1.518165    2.434104   -0.168534
     40          1           0       -2.472812    3.689712   -0.995626
     41          6           0       -4.905946    2.859820   -0.071613
     42          1           0       -4.903422    3.671788    0.668659
     43          1           0       -5.109136    3.288120   -1.064906
     44          1           0       -5.701050    2.156915    0.195603
 ---------------------------------------------------------------------
 Rotational constants (GHZ):           0.4060159           0.0982633           0.0849802
 Leave Link  202 at Tue Jan 26 18:21:59 2021, MaxMem=  4026531840 cpu:               0.4 elap:               0.1
 (Enter /opt/ohpc/pub/libs/gaussian/g16-A.03/sandybridge/g16/l301.exe)
 Standard basis: TZVP (5D, 7F)
 Ernie: Thresh=  0.10000D-02 Tol=  0.10000D-05 Strict=F.
 There are   592 symmetry adapted cartesian basis functions of A   symmetry.
 There are   569 symmetry adapted basis functions of A   symmetry.
   569 basis functions,   997 primitive gaussians,   592 cartesian basis functions
    90 alpha electrons       89 beta electrons
       nuclear repulsion energy      2022.4848436690 Hartrees.
 IExCor=33909 DFT=T Ex+Corr=LC-wHPBE ExCW=0 ScaHFX=  1.000000
 ScaDFX=  1.000000  1.000000  1.000000  1.000000 ScalE2=  1.000000  1.000000
 IRadAn=      5 IRanWt=     -1 IRanGd=            0 ICorTp=0 IEmpDi=  4
 HFx  wShort=  0.000000 wLong=  0.175300 cFull=  0.000000 cShort=  0.000000 cLong=  1.000000
 DFx  wShort=  0.000000 wLong=  0.175300 cFull=  0.000000 cShort=  1.000000 cLong=  0.000000
 NAtoms=   44 NActive=   44 NUniq=   44 SFac= 1.00D+00 NAtFMM=   60 NAOKFM=F Big=F
 Integral buffers will be    131072 words long.
 Raffenetti 2 integral format.
 Two-electron integral symmetry is turned on.
 Leave Link  301 at Tue Jan 26 18:21:59 2021, MaxMem=  4026531840 cpu:               0.4 elap:               0.1
 (Enter /opt/ohpc/pub/libs/gaussian/g16-A.03/sandybridge/g16/l302.exe)
 NPDir=0 NMtPBC=     1 NCelOv=     1 NCel=       1 NClECP=     1 NCelD=      1
         NCelK=      1 NCelE2=     1 NClLst=     1 CellRange=     0.0.
 One-electron integrals computed using PRISM.
 One-electron integral symmetry used in STVInt
 NBasis=   569 RedAO= T EigKep=  9.00D-06  NBF=   569
 NBsUse=   569 1.00D-06 EigRej= -1.00D+00 NBFU=   569
 Precomputing XC quadrature grid using
 IXCGrd= 4 IRadAn=           5 IRanWt=          -1 IRanGd=           0 AccXCQ= 0.00D+00.
 Generated NRdTot=       0 NPtTot=           0 NUsed=           0 NTot=          32
 NSgBfM=   570   570   570   570   570 MxSgAt=    44 MxSgA2=    44.
 Leave Link  302 at Tue Jan 26 18:22:00 2021, MaxMem=  4026531840 cpu:               8.9 elap:               1.1
 (Enter /opt/ohpc/pub/libs/gaussian/g16-A.03/sandybridge/g16/l303.exe)
 DipDrv:  MaxL=1.
 Leave Link  303 at Tue Jan 26 18:22:00 2021, MaxMem=  4026531840 cpu:               0.9 elap:               0.1
 (Enter /opt/ohpc/pub/libs/gaussian/g16-A.03/sandybridge/g16/l401.exe)
 ExpMin= 9.52D-02 ExpMax= 6.07D+04 ExpMxC= 2.07D+03 IAcc=3 IRadAn=         5 AccDes= 0.00D+00
 Harris functional with IExCor=33909 and IRadAn=       5 diagonalized for initial guess.
 HarFok:  IExCor=33909 AccDes= 0.00D+00 IRadAn=         5 IDoV= 1 UseB2=F ITyADJ=14
 ICtDFT=  3500011 ScaDFX=  1.000000  1.000000  1.000000  1.000000
 FoFCou: FMM=F IPFlag=           0 FMFlag=      100000 FMFlg1=           0
         NFxFlg=           0 DoJE=T BraDBF=F KetDBF=T FulRan=T
         wScrn=  0.000000 ICntrl=       500 IOpCl=  0 I1Cent=   200000004 NGrid=           0
         NMat0=    1 NMatS0=      1 NMatT0=    0 NMatD0=    1 NMtDS0=    0 NMtDT0=    0
 Petite list used in FoFCou.
 Harris En= -1624.14562412203    
 JPrj=0 DoOrth=F DoCkMO=F.
 Initial guess <Sx>= 0.0000 <Sy>= 0.0000 <Sz>= 0.5000 <S**2>= 0.7500 S= 0.5000
 Leave Link  401 at Tue Jan 26 18:22:07 2021, MaxMem=  4026531840 cpu:              50.1 elap:               6.4
 (Enter /opt/ohpc/pub/libs/gaussian/g16-A.03/sandybridge/g16/l502.exe)
 Integral symmetry usage will be decided dynamically.
 UHF open shell SCF:
 Using DIIS extrapolation, IDIIS=    10.
 NGot=  4026531840 LenX=  4025820226 LenY=  4025469170
 Requested convergence on RMS density matrix=1.00D-06 within  32 cycles.
 Requested convergence on MAX density matrix=1.00D-04.
 Requested convergence on             energy=1.00D-04.
 Virtual orbitals will be shifted by   0.500 hartree.
 No special actions if energy rises.
 Dynamic level shift is on during FON iterations.

 Cycle   1  Pass 1  IDiag  1:
 FoFJK:  IHMeth= 1 ICntrl=       0 DoSepK=T KAlg= 0 I1Cent=           0 FoldK=F
 IRaf=         1 NMat=       1 IRICut=       1 DoRegI=T DoRafI=F ISym2E= 0 IDoP0=0 IntGTp=1.
 FoFCou: FMM=F IPFlag=           0 FMFlag=      100000 FMFlg1=           0
         NFxFlg=           0 DoJE=T BraDBF=F KetDBF=F FulRan=T
         wScrn=  0.000000 ICntrl=       500 IOpCl=  0 I1Cent=           0 NGrid=           0
         NMat0=    1 NMatS0=      1 NMatT0=    0 NMatD0=    1 NMtDS0=    0 NMtDT0=    0
 Symmetry not used in FoFCou.
 E= -1640.32311358738    
 DIIS: error= 2.84D-02 at cycle   1 NSaved=   1.
 NSaved= 1 IEnMin= 1 EnMin= -1640.32311358738     IErMin= 1 ErrMin= 2.84D-02
 ErrMax= 2.84D-02  0.00D+00 EMaxC= 1.00D+00 BMatC= 2.18D+00 BMatP= 2.18D+00
 IDIUse=1 WtCom= 1.00D+00 WtEn= 0.00D+00
 Coeff-Com:  0.100D+01
 Coeff:      0.100D+01
 Gap=     0.602 Goal=   None    Shift=    0.500
 T= 1464. Gap= 0.432 NK=0 IS=   91 IE=  569 IFin=   90
          NO(<0.9)=   0  NV(>0.1)=   0     90.00e < EF      0.00e >EF  Err=0.0D+00
 Gap=    -0.102 Goal=   None    Shift=    0.500
 T= 1464. Gap= 0.269 NK=0 IS=   90 IE=  569 IFin=   89
          NO(<0.9)=   0  NV(>0.1)=   0     89.00e < EF      0.00e >EF  Err=0.0D+00
 GapD=   -0.102 DampG=0.250 DampE=0.500 DampFc=0.1250 IDamp=-1.
 Damping current iteration by 1.25D-01
 RMSDP=4.70D-03 MaxDP=3.41D-01              OVMax= 2.93D-01

 Cycle   2  Pass 1  IDiag  1:
 E= -1640.44833713885     Delta-E=       -0.125223551469 Rises=F Damp=T
 DIIS: error= 2.42D-02 at cycle   2 NSaved=   2.
 NSaved= 2 IEnMin= 2 EnMin= -1640.44833713885     IErMin= 2 ErrMin= 2.42D-02
 ErrMax= 2.42D-02  0.00D+00 EMaxC= 1.00D+00 BMatC= 1.51D+00 BMatP= 2.18D+00
 IDIUse=1 WtCom= 1.00D+00 WtEn= 0.00D+00
 Coeff-Com: -0.464D+01 0.564D+01
 Coeff:     -0.464D+01 0.564D+01
 Gap=     0.280 Goal=   None    Shift=    0.500
 T= 1434. Gap= 0.719 NK=0 IS=   91 IE=  569 IFin=   90
          NO(<0.9)=   0  NV(>0.1)=   0     90.00e < EF      0.00e >EF  Err=0.0D+00
 Gap=     0.096 Goal=   None    Shift=    0.500
 T= 1434. Gap= 0.548 NK=0 IS=   90 IE=  569 IFin=   89
          NO(<0.9)=   0  NV(>0.1)=   0     89.00e < EF      0.00e >EF  Err=0.0D+00
 GapD=    0.096 DampG=0.500 DampE=0.500 DampFc=0.2500 IDamp=-1.
 Damping current iteration by 2.50D-01
 RMSDP=3.67D-03 MaxDP=2.23D-01 DE=-1.25D-01 OVMax= 5.35D-02

 Cycle   3  Pass 1  IDiag  1:
 E= -1640.62371148207     Delta-E=       -0.175374343220 Rises=F Damp=T
 DIIS: error= 1.90D-02 at cycle   3 NSaved=   3.
 NSaved= 3 IEnMin= 3 EnMin= -1640.62371148207     IErMin= 3 ErrMin= 1.90D-02
 ErrMax= 1.90D-02  0.00D+00 EMaxC= 1.00D+00 BMatC= 7.56D-01 BMatP= 1.51D+00
 IDIUse=1 WtCom= 1.00D+00 WtEn= 0.00D+00
 Coeff-Com:  0.809D+00-0.373D+01 0.392D+01
 Coeff:      0.809D+00-0.373D+01 0.392D+01
 Gap=     0.240 Goal=   None    Shift=    0.500
 T= 1359. Gap= 0.733 NK=0 IS=   91 IE=  569 IFin=   90
          NO(<0.9)=   0  NV(>0.1)=   0     90.00e < EF      0.00e >EF  Err=0.0D+00
 Gap=     0.090 Goal=   None    Shift=    0.500
 T= 1359. Gap= 0.591 NK=0 IS=   90 IE=  569 IFin=   89
          NO(<0.9)=   0  NV(>0.1)=   0     89.00e < EF      0.00e >EF  Err=0.0D+00
 GapD=    0.090 DampG=0.500 DampE=0.500 DampFc=0.2500 IDamp=-1.
 Damping current iteration by 2.50D-01
 RMSDP=2.45D-03 MaxDP=1.44D-01 DE=-1.75D-01 OVMax= 3.99D-02

 Cycle   4  Pass 1  IDiag  1:
 E= -1640.72712607328     Delta-E=       -0.103414591210 Rises=F Damp=T
 DIIS: error= 1.69D-02 at cycle   4 NSaved=   4.
 NSaved= 4 IEnMin= 4 EnMin= -1640.72712607328     IErMin= 4 ErrMin= 1.69D-02
 ErrMax= 1.69D-02  0.00D+00 EMaxC= 1.00D+00 BMatC= 3.99D-01 BMatP= 7.56D-01
 IDIUse=1 WtCom= 1.00D+00 WtEn= 0.00D+00
 Coeff-Com:  0.548D+00 0.170D+00-0.498D+01 0.526D+01
 Coeff:      0.548D+00 0.170D+00-0.498D+01 0.526D+01
 Gap=     0.236 Goal=   None    Shift=    0.500
 T= 1254. Gap= 0.735 NK=0 IS=   91 IE=  569 IFin=   90
          NO(<0.9)=   0  NV(>0.1)=   0     90.00e < EF      0.00e >EF  Err=0.0D+00
 Gap=     0.100 Goal=   None    Shift=    0.500
 T= 1254. Gap= 0.601 NK=0 IS=   90 IE=  569 IFin=   89
          NO(<0.9)=   0  NV(>0.1)=   0     89.00e < EF      0.00e >EF  Err=0.0D+00
 GapD=    0.100 DampG=0.500 DampE=0.500 DampFc=0.2500 IDamp=-1.
 Damping current iteration by 2.50D-01
 RMSDP=1.83D-03 MaxDP=1.30D-01 DE=-1.03D-01 OVMax= 3.61D-02

 Cycle   5  Pass 1  IDiag  1:
 E= -1640.79250980328     Delta-E=       -0.065383730000 Rises=F Damp=T
 DIIS: error= 1.49D-02 at cycle   5 NSaved=   5.
 NSaved= 5 IEnMin= 5 EnMin= -1640.79250980328     IErMin= 5 ErrMin= 1.49D-02
 ErrMax= 1.49D-02  0.00D+00 EMaxC= 1.00D+00 BMatC= 2.18D-01 BMatP= 3.99D-01
 IDIUse=1 WtCom= 1.00D+00 WtEn= 0.00D+00
 Coeff-Com: -0.169D+00 0.133D+01-0.189D+01-0.327D+01 0.500D+01
 Coeff:     -0.169D+00 0.133D+01-0.189D+01-0.327D+01 0.500D+01
 Gap=     0.236 Goal=   None    Shift=    0.500
 T= 1153. Gap= 0.736 NK=4 IS=   91 IE=  102 IFin=   90
          NO(<0.9)=   0  NV(>0.1)=   0     90.00e < EF      0.00e >EF  Err=0.0D+00
 Gap=     0.108 Goal=   None    Shift=    0.500
 T= 1153. Gap= 0.609 NK=4 IS=   90 IE=  102 IFin=   89
          NO(<0.9)=   0  NV(>0.1)=   0     89.00e < EF      0.00e >EF  Err=0.0D+00
 GapD=    0.108 DampG=1.000 DampE=0.500 DampFc=0.5000 IDamp=-1.
 Damping current iteration by 5.00D-01
 RMSDP=1.46D-03 MaxDP=1.09D-01 DE=-6.54D-02 OVMax= 3.91D-02

 Cycle   6  Pass 1  IDiag  1:
 E= -1640.87651283399     Delta-E=       -0.084003030712 Rises=F Damp=T
 DIIS: error= 1.08D-02 at cycle   6 NSaved=   6.
 NSaved= 6 IEnMin= 6 EnMin= -1640.87651283399     IErMin= 6 ErrMin= 1.08D-02
 ErrMax= 1.08D-02  0.00D+00 EMaxC= 1.00D+00 BMatC= 5.27D-02 BMatP= 2.18D-01
 IDIUse=1 WtCom= 1.00D+00 WtEn= 0.00D+00
 Coeff-Com: -0.122D+00 0.556D-01 0.147D+01-0.676D+00-0.334D+01 0.361D+01
 Coeff:     -0.122D+00 0.556D-01 0.147D+01-0.676D+00-0.334D+01 0.361D+01
 Gap=     0.236 Goal=   None    Shift=    0.500
 T= 1047. Gap= 0.736 NK=4 IS=   91 IE=  102 IFin=   90
          NO(<0.9)=   0  NV(>0.1)=   0     90.00e < EF      0.00e >EF  Err=0.0D+00
 Gap=     0.115 Goal=   None    Shift=    0.500
 T= 1047. Gap= 0.616 NK=4 IS=   90 IE=  102 IFin=   89
          NO(<0.9)=   0  NV(>0.1)=   0     89.00e < EF      0.00e >EF  Err=0.0D+00
 GapD=    0.115 DampG=1.000 DampE=0.500 DampFc=0.5000 IDamp=-1.
 Damping current iteration by 5.00D-01
 RMSDP=8.75D-04 MaxDP=6.06D-02 DE=-8.40D-02 OVMax= 4.00D-02

 Cycle   7  Pass 1  IDiag  1:
 E= -1640.91347096079     Delta-E=       -0.036958126799 Rises=F Damp=T
 DIIS: error= 8.18D-03 at cycle   7 NSaved=   7.
 NSaved= 7 IEnMin= 7 EnMin= -1640.91347096079     IErMin= 7 ErrMin= 8.18D-03
 ErrMax= 8.18D-03  0.00D+00 EMaxC= 1.00D+00 BMatC= 1.37D-02 BMatP= 5.27D-02
 IDIUse=1 WtCom= 1.00D+00 WtEn= 0.00D+00
 Coeff-Com: -0.172D-01-0.239D+00 0.120D+01 0.242D+00-0.227D+01-0.429D+00
 Coeff-Com:  0.252D+01
 Coeff:     -0.172D-01-0.239D+00 0.120D+01 0.242D+00-0.227D+01-0.429D+00
 Coeff:      0.252D+01
 Gap=     0.236 Goal=   None    Shift=    0.500
 T=  909. Gap= 0.736 NK=4 IS=   91 IE=  102 IFin=   90
          NO(<0.9)=   0  NV(>0.1)=   0     90.00e < EF      0.00e >EF  Err=0.0D+00
 Gap=     0.119 Goal=   None    Shift=    0.500
 T=  909. Gap= 0.620 NK=4 IS=   90 IE=  102 IFin=   89
          NO(<0.9)=   0  NV(>0.1)=   0     89.00e < EF      0.00e >EF  Err=0.0D+00
 GapD=    0.119 DampG=1.000 DampE=1.000 DampFc=1.0000 IDamp=-1.
 RMSDP=5.81D-04 MaxDP=3.70D-02 DE=-3.70D-02 OVMax= 3.70D-02

 Cycle   8  Pass 1  IDiag  1:
 E= -1640.94978275660     Delta-E=       -0.036311795811 Rises=F Damp=F
 DIIS: error= 5.07D-03 at cycle   8 NSaved=   8.
 NSaved= 8 IEnMin= 8 EnMin= -1640.94978275660     IErMin= 8 ErrMin= 5.07D-03
 ErrMax= 5.07D-03  0.00D+00 EMaxC= 1.00D+00 BMatC= 1.07D-03 BMatP= 1.37D-02
 IDIUse=1 WtCom= 1.00D+00 WtEn= 0.00D+00
 Coeff-Com:  0.261D-01-0.128D+00-0.472D-01 0.691D+00 0.268D+00-0.162D+01
 Coeff-Com: -0.297D+00 0.211D+01
 Coeff:      0.261D-01-0.128D+00-0.472D-01 0.691D+00 0.268D+00-0.162D+01
 Coeff:     -0.297D+00 0.211D+01
 Gap=     0.234 Goal=   None    Shift=    0.500
 T=  704. Gap= 0.734 NK=4 IS=   91 IE=  102 IFin=   90
          NO(<0.9)=   0  NV(>0.1)=   0     90.00e < EF      0.00e >EF  Err=0.0D+00
 Gap=     0.125 Goal=   None    Shift=    0.500
 T=  704. Gap= 0.627 NK=4 IS=   90 IE=  102 IFin=   89
          NO(<0.9)=   0  NV(>0.1)=   0     89.00e < EF      0.00e >EF  Err=0.0D+00
 GapD=    0.125 DampG=1.000 DampE=1.000 DampFc=1.0000 IDamp=-1.
 RMSDP=2.36D-04 MaxDP=1.75D-02 DE=-3.63D-02 OVMax= 4.20D-02

 Cycle   9  Pass 1  IDiag  1:
 E= -1640.95217085072     Delta-E=       -0.002388094123 Rises=F Damp=F
 DIIS: error= 5.07D-03 at cycle   9 NSaved=   9.
 NSaved= 9 IEnMin= 9 EnMin= -1640.95217085072     IErMin= 9 ErrMin= 5.07D-03
 ErrMax= 5.07D-03  0.00D+00 EMaxC= 1.00D+00 BMatC= 9.49D-04 BMatP= 1.07D-03
 IDIUse=1 WtCom= 1.00D+00 WtEn= 0.00D+00
 Coeff-Com:  0.637D-02-0.100D+00 0.264D-01 0.770D+00-0.411D+00-0.613D+00
 Coeff-Com: -0.611D+00 0.116D+01 0.769D+00
 Coeff:      0.637D-02-0.100D+00 0.264D-01 0.770D+00-0.411D+00-0.613D+00
 Coeff:     -0.611D+00 0.116D+01 0.769D+00
 Gap=     0.235 Goal=   None    Shift=    0.500
 T=  541. Gap= 0.735 NK=4 IS=   91 IE=  102 IFin=   90
          NO(<0.9)=   0  NV(>0.1)=   0     90.00e < EF      0.00e >EF  Err=0.0D+00
 Gap=     0.129 Goal=   None    Shift=    0.500
 T=  541. Gap= 0.630 NK=4 IS=   90 IE=  102 IFin=   89
          NO(<0.9)=   0  NV(>0.1)=   0     89.00e < EF      0.00e >EF  Err=0.0D+00
 GapD=    0.129 DampG=1.000 DampE=1.000 DampFc=1.0000 IDamp=-1.
 RMSDP=1.51D-04 MaxDP=9.30D-03 DE=-2.39D-03 OVMax= 3.57D-02

 Cycle  10  Pass 1  IDiag  1:
 E= -1640.95395145744     Delta-E=       -0.001780606721 Rises=F Damp=F
 DIIS: error= 4.66D-03 at cycle  10 NSaved=  10.
 NSaved=10 IEnMin=10 EnMin= -1640.95395145744     IErMin=10 ErrMin= 4.66D-03
 ErrMax= 4.66D-03  0.00D+00 EMaxC= 1.00D+00 BMatC= 7.77D-04 BMatP= 9.49D-04
 IDIUse=1 WtCom= 1.00D+00 WtEn= 0.00D+00
 Coeff-Com:  0.279D-02-0.643D-01 0.152D+00 0.101D+01-0.207D+01 0.144D+01
 Coeff-Com: -0.576D+00-0.459D+00-0.225D+01 0.381D+01
 Coeff:      0.279D-02-0.643D-01 0.152D+00 0.101D+01-0.207D+01 0.144D+01
 Coeff:     -0.576D+00-0.459D+00-0.225D+01 0.381D+01
 Gap=     0.233 Goal=   None    Shift=    0.500
 T=  413. Gap= 0.733 NK=4 IS=   91 IE=  102 IFin=   90
          NO(<0.9)=   0  NV(>0.1)=   0     90.00e < EF      0.00e >EF  Err=0.0D+00
 Gap=     0.137 Goal=   None    Shift=    0.500
 T=  413. Gap= 0.638 NK=4 IS=   90 IE=  101 IFin=   89
          NO(<0.9)=   0  NV(>0.1)=   0     89.00e < EF      0.00e >EF  Err=0.0D+00
 GapD=    0.137 DampG=1.000 DampE=1.000 DampFc=1.0000 IDamp=-1.
 RMSDP=2.86D-04 MaxDP=2.22D-02 DE=-1.78D-03 OVMax= 4.68D-02

 Cycle  11  Pass 1  IDiag  1:
 E= -1640.95596368541     Delta-E=       -0.002012227967 Rises=F Damp=F
 DIIS: error= 4.95D-03 at cycle  11 NSaved=  11.
 NSaved=11 IEnMin=11 EnMin= -1640.95596368541     IErMin=10 ErrMin= 4.66D-03
 ErrMax= 4.95D-03  0.00D+00 EMaxC= 1.00D+00 BMatC= 1.26D-03 BMatP= 7.77D-04
 IDIUse=1 WtCom= 1.00D+00 WtEn= 0.00D+00
 Coeff-Com:  0.195D-01-0.210D+00 0.810D+00 0.877D+00-0.339D+01 0.185D+01
 Coeff-Com:  0.113D+01-0.349D+00-0.545D+01 0.472D+01 0.994D+00
 Coeff:      0.195D-01-0.210D+00 0.810D+00 0.877D+00-0.339D+01 0.185D+01
 Coeff:      0.113D+01-0.349D+00-0.545D+01 0.472D+01 0.994D+00
 Gap=     0.233 Goal=   None    Shift=    0.500
 T=  408. Gap= 0.733 NK=4 IS=   91 IE=  102 IFin=   90
          NO(<0.9)=   0  NV(>0.1)=   0     90.00e < EF      0.00e >EF  Err=0.0D+00
 Gap=     0.138 Goal=   None    Shift=    0.500
 T=  408. Gap= 0.639 NK=4 IS=   90 IE=  101 IFin=   89
          NO(<0.9)=   0  NV(>0.1)=   0     89.00e < EF      0.00e >EF  Err=0.0D+00
 GapD=    0.138 DampG=1.000 DampE=1.000 DampFc=1.0000 IDamp=-1.
 RMSDP=1.68D-04 MaxDP=1.13D-02 DE=-2.01D-03 OVMax= 4.01D-02

 Cycle  12  Pass 1  IDiag  1:
 E= -1640.95749602756     Delta-E=       -0.001532342151 Rises=F Damp=F
 DIIS: error= 4.53D-03 at cycle  12 NSaved=  12.
 NSaved=12 IEnMin=12 EnMin= -1640.95749602756     IErMin=12 ErrMin= 4.53D-03
 ErrMax= 4.53D-03  0.00D+00 EMaxC= 1.00D+00 BMatC= 1.10D-03 BMatP= 7.77D-04
 IDIUse=1 WtCom= 1.00D+00 WtEn= 0.00D+00
 Coeff-Com:  0.399D-01-0.188D+00 0.493D+00 0.277D+00-0.109D+01-0.355D+00
 Coeff-Com:  0.139D+01 0.172D+01-0.581D+01 0.319D+01-0.148D+01 0.281D+01
 Coeff:      0.399D-01-0.188D+00 0.493D+00 0.277D+00-0.109D+01-0.355D+00
 Coeff:      0.139D+01 0.172D+01-0.581D+01 0.319D+01-0.148D+01 0.281D+01
 Gap=     0.234 Goal=   None    Shift=    0.500
 T=  386. Gap= 0.734 NK=4 IS=   91 IE=  102 IFin=   90
          NO(<0.9)=   0  NV(>0.1)=   0     90.00e < EF      0.00e >EF  Err=0.0D+00
 Gap=     0.141 Goal=   None    Shift=    0.500
 T=  386. Gap= 0.642 NK=4 IS=   90 IE=  101 IFin=   89
          NO(<0.9)=   0  NV(>0.1)=   0     89.00e < EF      0.00e >EF  Err=0.0D+00
 GapD=    0.141 DampG=1.000 DampE=1.000 DampFc=1.0000 IDamp=-1.
 RMSDP=1.54D-04 MaxDP=1.03D-02 DE=-1.53D-03 OVMax= 4.07D-02

 Cycle  13  Pass 1  IDiag  1:
 E= -1640.95884454206     Delta-E=       -0.001348514498 Rises=F Damp=F
 DIIS: error= 4.03D-03 at cycle  13 NSaved=  13.
 NSaved=13 IEnMin=13 EnMin= -1640.95884454206     IErMin=13 ErrMin= 4.03D-03
 ErrMax= 4.03D-03  0.00D+00 EMaxC= 1.00D+00 BMatC= 9.09D-04 BMatP= 7.77D-04
 IDIUse=1 WtCom= 1.00D+00 WtEn= 0.00D+00
 Coeff-Com:  0.121D-01-0.726D-01 0.275D+00-0.169D+00 0.740D-01-0.782D+00
 Coeff-Com:  0.732D+00 0.170D+01-0.306D+01 0.141D+01-0.218D+01 0.115D+01
 Coeff-Com:  0.191D+01
 Coeff:      0.121D-01-0.726D-01 0.275D+00-0.169D+00 0.740D-01-0.782D+00
 Coeff:      0.732D+00 0.170D+01-0.306D+01 0.141D+01-0.218D+01 0.115D+01
 Coeff:      0.191D+01
 Gap=     0.233 Goal=   None    Shift=    0.500
 T=  359. Gap= 0.734 NK=4 IS=   91 IE=  102 IFin=   90
          NO(<0.9)=   0  NV(>0.1)=   0     90.00e < EF      0.00e >EF  Err=0.0D+00
 Gap=     0.143 Goal=   None    Shift=    0.500
 T=  359. Gap= 0.644 NK=4 IS=   90 IE=  101 IFin=   89
          NO(<0.9)=   0  NV(>0.1)=   0     89.00e < EF      0.00e >EF  Err=0.0D+00
 GapD=    0.143 DampG=1.000 DampE=1.000 DampFc=1.0000 IDamp=-1.
 RMSDP=1.29D-04 MaxDP=9.26D-03 DE=-1.35D-03 OVMax= 3.62D-02

 Cycle  14  Pass 1  IDiag  1:
 E= -1640.95987653053     Delta-E=       -0.001031988465 Rises=F Damp=F
 DIIS: error= 3.54D-03 at cycle  14 NSaved=  14.
 NSaved=14 IEnMin=14 EnMin= -1640.95987653053     IErMin=14 ErrMin= 3.54D-03
 ErrMax= 3.54D-03  0.00D+00 EMaxC= 1.00D+00 BMatC= 6.81D-04 BMatP= 7.77D-04
 IDIUse=1 WtCom= 1.00D+00 WtEn= 0.00D+00
 Coeff-Com:  0.305D-02-0.209D-01 0.140D+00-0.787D-01 0.109D-01-0.264D+00
 Coeff-Com:  0.278D-01 0.586D+00-0.271D+00 0.405D+00-0.113D+01-0.757D+00
 Coeff-Com:  0.758D-01 0.227D+01
 Coeff:      0.305D-02-0.209D-01 0.140D+00-0.787D-01 0.109D-01-0.264D+00
 Coeff:      0.278D-01 0.586D+00-0.271D+00 0.405D+00-0.113D+01-0.757D+00
 Coeff:      0.758D-01 0.227D+01
 Gap=     0.233 Goal=   None    Shift=    0.500
 T=  293. Gap= 0.733 NK=4 IS=   91 IE=  102 IFin=   90
          NO(<0.9)=   0  NV(>0.1)=   0     90.00e < EF      0.00e >EF  Err=0.0D+00
 Gap=     0.146 Goal=   None    Shift=    0.500
 T=  293. Gap= 0.646 NK=4 IS=   90 IE=  101 IFin=   89
          NO(<0.9)=   0  NV(>0.1)=   0     89.00e < EF      0.00e >EF  Err=0.0D+00
 GapD=    0.146 DampG=1.000 DampE=1.000 DampFc=1.0000 IDamp=-1.
 RMSDP=1.17D-04 MaxDP=8.64D-03 DE=-1.03D-03 OVMax= 3.27D-02

 Cycle  15  Pass 1  IDiag  1:
 E= -1640.96063526472     Delta-E=       -0.000758734198 Rises=F Damp=F
 DIIS: error= 3.13D-03 at cycle  15 NSaved=  15.
 NSaved=15 IEnMin=15 EnMin= -1640.96063526472     IErMin=15 ErrMin= 3.13D-03
 ErrMax= 3.13D-03  0.00D+00 EMaxC= 1.00D+00 BMatC= 5.91D-04 BMatP= 6.81D-04
 IDIUse=1 WtCom= 1.00D+00 WtEn= 0.00D+00
 Coeff-Com:  0.699D-02-0.504D-01 0.121D+00 0.280D+00-0.515D+00-0.211D-01
 Coeff-Com:  0.119D+00 0.285D+00-0.784D+00 0.111D+01-0.358D+00-0.247D+00
 Coeff-Com: -0.925D+00-0.695D+00 0.267D+01
 Coeff:      0.699D-02-0.504D-01 0.121D+00 0.280D+00-0.515D+00-0.211D-01
 Coeff:      0.119D+00 0.285D+00-0.784D+00 0.111D+01-0.358D+00-0.247D+00
 Coeff:     -0.925D+00-0.695D+00 0.267D+01
 Gap=     0.233 Goal=   None    Shift=    0.500
 T=  219. Gap= 0.733 NK=4 IS=   91 IE=  103 IFin=   90
          NO(<0.9)=   0  NV(>0.1)=   0     90.00e < EF      0.00e >EF  Err=0.0D+00
 Gap=     0.147 Goal=   None    Shift=    0.500
 T=  219. Gap= 0.647 NK=4 IS=   90 IE=  101 IFin=   89
          NO(<0.9)=   0  NV(>0.1)=   0     89.00e < EF      0.00e >EF  Err=0.0D+00
 GapD=    0.147 DampG=1.000 DampE=1.000 DampFc=1.0000 IDamp=-1.
 RMSDP=9.06D-05 MaxDP=6.20D-03 DE=-7.59D-04 OVMax= 2.78D-02

 Cycle  16  Pass 1  IDiag  1:
 E= -1640.96119762972     Delta-E=       -0.000562364995 Rises=F Damp=F
 DIIS: error= 2.72D-03 at cycle  16 NSaved=  16.
 NSaved=16 IEnMin=16 EnMin= -1640.96119762972     IErMin=16 ErrMin= 2.72D-03
 ErrMax= 2.72D-03  0.00D+00 EMaxC= 1.00D+00 BMatC= 4.71D-04 BMatP= 5.91D-04
 IDIUse=1 WtCom= 1.00D+00 WtEn= 0.00D+00
 Coeff-Com:  0.201D-03-0.228D-01-0.283D-01 0.480D+00-0.514D+00-0.143D+00
 Coeff-Com:  0.178D+00 0.384D+00-0.148D+01 0.158D+01-0.313D-01 0.670D+00
 Coeff-Com: -0.748D+00-0.310D+01 0.130D+01 0.248D+01
 Coeff:      0.201D-03-0.228D-01-0.283D-01 0.480D+00-0.514D+00-0.143D+00
 Coeff:      0.178D+00 0.384D+00-0.148D+01 0.158D+01-0.313D-01 0.670D+00
 Coeff:     -0.748D+00-0.310D+01 0.130D+01 0.248D+01
 Gap=     0.232 Goal=   None    Shift=    0.500
 T=  140. Gap= 0.732 NK=4 IS=   91 IE=  103 IFin=   90
          NO(<0.9)=   0  NV(>0.1)=   0     90.00e < EF      0.00e >EF  Err=0.0D+00
 Gap=     0.148 Goal=   None    Shift=    0.500
 T=  140. Gap= 0.648 NK=4 IS=   90 IE=  101 IFin=   89
          NO(<0.9)=   0  NV(>0.1)=   0     89.00e < EF      0.00e >EF  Err=0.0D+00
 GapD=    0.148 DampG=1.000 DampE=1.000 DampFc=1.0000 IDamp=-1.
 RMSDP=8.25D-05 MaxDP=5.13D-03 DE=-5.62D-04 OVMax= 2.55D-02

 Cycle  17  Pass 1  IDiag  1:
 E= -1640.96164951542     Delta-E=       -0.000451885705 Rises=F Damp=F
 DIIS: error= 2.36D-03 at cycle  17 NSaved=  17.
 NSaved=17 IEnMin=17 EnMin= -1640.96164951542     IErMin=17 ErrMin= 2.36D-03
 ErrMax= 2.36D-03  0.00D+00 EMaxC= 1.00D+00 BMatC= 3.70D-04 BMatP= 4.71D-04
 IDIUse=1 WtCom= 1.00D+00 WtEn= 0.00D+00
 Coeff-Com:  0.108D-02-0.947D-02-0.709D-01 0.415D+00-0.361D+00-0.129D+00
 Coeff-Com:  0.557D-01 0.271D+00-0.108D+01 0.131D+01-0.424D-01 0.354D+00
 Coeff-Com: -0.989D-01-0.224D+01-0.294D+00 0.142D+01 0.149D+01
 Coeff:      0.108D-02-0.947D-02-0.709D-01 0.415D+00-0.361D+00-0.129D+00
 Coeff:      0.557D-01 0.271D+00-0.108D+01 0.131D+01-0.424D-01 0.354D+00
 Coeff:     -0.989D-01-0.224D+01-0.294D+00 0.142D+01 0.149D+01
 Gap=     0.231 Goal=   None    Shift=    0.500
 T=   59. Gap= 0.731 NK=4 IS=   91 IE=  103 IFin=   90
          NO(<0.9)=   0  NV(>0.1)=   0     90.00e < EF      0.00e >EF  Err=0.0D+00
 Gap=     0.149 Goal=   None    Shift=    0.500
 T=   59. Gap= 0.649 NK=4 IS=   90 IE=  101 IFin=   89
          NO(<0.9)=   0  NV(>0.1)=   0     89.00e < EF      0.00e >EF  Err=0.0D+00
 GapD=    0.149 DampG=1.000 DampE=1.000 DampFc=1.0000 IDamp=-1.
 RMSDP=7.07D-05 MaxDP=4.57D-03 DE=-4.52D-04 OVMax= 2.22D-02

 Cycle  18  Pass 1  IDiag  1:
 E= -1640.96199072241     Delta-E=       -0.000341206989 Rises=F Damp=F
 DIIS: error= 2.03D-03 at cycle  18 NSaved=  18.
 NSaved=18 IEnMin=18 EnMin= -1640.96199072241     IErMin=18 ErrMin= 2.03D-03
 ErrMax= 2.03D-03  0.00D+00 EMaxC= 1.00D+00 BMatC= 2.90D-04 BMatP= 3.70D-04
 IDIUse=1 WtCom= 1.00D+00 WtEn= 0.00D+00
 Coeff-Com:  0.669D-02-0.161D-01-0.200D-01 0.201D+00-0.187D+00-0.272D-01
 Coeff-Com: -0.653D-01-0.662D-01 0.109D+00 0.477D+00-0.113D+00-0.756D+00
 Coeff-Com:  0.410D+00 0.411D+00-0.618D+00-0.563D+00-0.131D+01 0.313D+01
 Coeff:      0.669D-02-0.161D-01-0.200D-01 0.201D+00-0.187D+00-0.272D-01
 Coeff:     -0.653D-01-0.662D-01 0.109D+00 0.477D+00-0.113D+00-0.756D+00
 Coeff:      0.410D+00 0.411D+00-0.618D+00-0.563D+00-0.131D+01 0.313D+01
 Gap=     0.231 Goal=   None    Shift=    0.500
 Gap=     0.149 Goal=   None    Shift=    0.500
 GapD=    0.149 DampG=1.000 DampE=1.000 DampFc=1.0000 IDamp=-1.
 RMSDP=7.13D-05 MaxDP=4.44D-03 DE=-3.41D-04 OVMax= 2.11D-02

 Cycle  19  Pass 1  IDiag  1:
 E= -1640.96226378983     Delta-E=       -0.000273067417 Rises=F Damp=F
 DIIS: error= 1.78D-03 at cycle  19 NSaved=  19.
 NSaved=19 IEnMin=19 EnMin= -1640.96226378983     IErMin=19 ErrMin= 1.78D-03
 ErrMax= 1.78D-03  0.00D+00 EMaxC= 1.00D+00 BMatC= 2.63D-04 BMatP= 2.90D-04
 IDIUse=1 WtCom= 1.00D+00 WtEn= 0.00D+00
 Coeff-Com:  0.468D-02-0.213D-01 0.148D-01 0.122D+00-0.126D+00-0.309D-01
 Coeff-Com: -0.604D-01-0.816D-01 0.339D+00 0.292D+00-0.215D+00-0.104D+01
 Coeff-Com:  0.378D+00 0.933D+00 0.534D+00-0.893D+00-0.324D+01 0.249D+01
 Coeff-Com:  0.160D+01
 Coeff:      0.468D-02-0.213D-01 0.148D-01 0.122D+00-0.126D+00-0.309D-01
 Coeff:     -0.604D-01-0.816D-01 0.339D+00 0.292D+00-0.215D+00-0.104D+01
 Coeff:      0.378D+00 0.933D+00 0.534D+00-0.893D+00-0.324D+01 0.249D+01
 Coeff:      0.160D+01
 Gap=     0.230 Goal=   None    Shift=    0.500
 Gap=     0.150 Goal=   None    Shift=    0.500
 GapD=    0.150 DampG=1.000 DampE=1.000 DampFc=1.0000 IDamp=-1.
 RMSDP=5.48D-05 MaxDP=2.78D-03 DE=-2.73D-04 OVMax= 1.82D-02

 Cycle  20  Pass 1  IDiag  1:
 E= -1640.96248318186     Delta-E=       -0.000219392030 Rises=F Damp=F
 DIIS: error= 1.52D-03 at cycle  20 NSaved=  20.
 NSaved=20 IEnMin=20 EnMin= -1640.96248318186     IErMin=20 ErrMin= 1.52D-03
 ErrMax= 1.52D-03  0.00D+00 EMaxC= 1.00D+00 BMatC= 1.95D-04 BMatP= 2.63D-04
 IDIUse=1 WtCom= 1.00D+00 WtEn= 0.00D+00
 Coeff-Com: -0.511D-02 0.475D-02-0.378D-01 0.232D+00-0.271D+00 0.743D-01
 Coeff-Com: -0.363D-01-0.105D-01-0.470D+00 0.759D+00 0.178D+00-0.334D-01
 Coeff-Com: -0.435D+00-0.159D+01 0.192D+01 0.118D+01-0.753D+00-0.133D+01
 Coeff-Com: -0.367D+01 0.529D+01
 Coeff:     -0.511D-02 0.475D-02-0.378D-01 0.232D+00-0.271D+00 0.743D-01
 Coeff:     -0.363D-01-0.105D-01-0.470D+00 0.759D+00 0.178D+00-0.334D-01
 Coeff:     -0.435D+00-0.159D+01 0.192D+01 0.118D+01-0.753D+00-0.133D+01
 Coeff:     -0.367D+01 0.529D+01
 Gap=     0.229 Goal=   None    Shift=    0.500
 Gap=     0.150 Goal=   None    Shift=    0.500
 GapD=    0.150 DampG=1.000 DampE=1.000 DampFc=1.0000 IDamp=-1.
 RMSDP=6.29D-05 MaxDP=4.27D-03 DE=-2.19D-04 OVMax= 1.81D-02

 Cycle  21  Pass 1  IDiag  1:
 E= -1640.96265906149     Delta-E=       -0.000175879634 Rises=F Damp=F
 DIIS: error= 1.32D-03 at cycle  21 NSaved=  20.
 NSaved=20 IEnMin=20 EnMin= -1640.96265906149     IErMin=20 ErrMin= 1.32D-03
 ErrMax= 1.32D-03  0.00D+00 EMaxC= 1.00D+00 BMatC= 1.88D-04 BMatP= 1.95D-04
 IDIUse=1 WtCom= 1.00D+00 WtEn= 0.00D+00
 Coeff-Com: -0.421D-02-0.539D-01 0.288D+00-0.321D+00 0.120D+00-0.775D-01
 Coeff-Com: -0.264D-02-0.660D+00 0.963D+00 0.222D+00 0.270D+00-0.613D+00
 Coeff-Com: -0.229D+01 0.178D+01 0.179D+01 0.612D+00-0.203D+01-0.492D+01
 Coeff-Com:  0.489D+01 0.102D+01
 Coeff:     -0.421D-02-0.539D-01 0.288D+00-0.321D+00 0.120D+00-0.775D-01
 Coeff:     -0.264D-02-0.660D+00 0.963D+00 0.222D+00 0.270D+00-0.613D+00
 Coeff:     -0.229D+01 0.178D+01 0.179D+01 0.612D+00-0.203D+01-0.492D+01
 Coeff:      0.489D+01 0.102D+01
 Gap=     0.229 Goal=   None    Shift=    0.500
 Gap=     0.151 Goal=   None    Shift=    0.500
 GapD=    0.151 DampG=1.000 DampE=1.000 DampFc=1.0000 IDamp=-1.
 RMSDP=4.59D-05 MaxDP=2.73D-03 DE=-1.76D-04 OVMax= 1.48D-02

 Cycle  22  Pass 1  IDiag  1:
 E= -1640.96279052090     Delta-E=       -0.000131459406 Rises=F Damp=F
 DIIS: error= 1.13D-03 at cycle  22 NSaved=  20.
 NSaved=20 IEnMin=20 EnMin= -1640.96279052090     IErMin=20 ErrMin= 1.13D-03
 ErrMax= 1.13D-03  0.00D+00 EMaxC= 1.00D+00 BMatC= 1.50D-04 BMatP= 1.88D-04
 IDIUse=1 WtCom= 1.00D+00 WtEn= 0.00D+00
 Coeff-Com: -0.435D-01 0.196D+00-0.238D+00 0.194D+00-0.184D+00-0.146D+00
 Coeff-Com: -0.765D-01 0.619D+00 0.147D+00 0.105D-01-0.476D+00-0.125D+01
 Coeff-Com:  0.318D+00 0.118D+01 0.131D+01-0.537D+00-0.273D+01 0.119D+01
 Coeff-Com: -0.201D+01 0.353D+01
 Coeff:     -0.435D-01 0.196D+00-0.238D+00 0.194D+00-0.184D+00-0.146D+00
 Coeff:     -0.765D-01 0.619D+00 0.147D+00 0.105D-01-0.476D+00-0.125D+01
 Coeff:      0.318D+00 0.118D+01 0.131D+01-0.537D+00-0.273D+01 0.119D+01
 Coeff:     -0.201D+01 0.353D+01
 Gap=     0.229 Goal=   None    Shift=    0.500
 Gap=     0.151 Goal=   None    Shift=    0.500
 GapD=    0.151 DampG=1.000 DampE=1.000 DampFc=1.0000 IDamp=-1.
 RMSDP=4.19D-05 MaxDP=2.73D-03 DE=-1.31D-04 OVMax= 1.37D-02

 Cycle  23  Pass 1  IDiag  1:
 E= -1640.96289796877     Delta-E=       -0.000107447876 Rises=F Damp=F
 DIIS: error= 9.53D-04 at cycle  23 NSaved=  20.
 NSaved=20 IEnMin=20 EnMin= -1640.96289796877     IErMin=20 ErrMin= 9.53D-04
 ErrMax= 9.53D-04  0.00D+00 EMaxC= 1.00D+00 BMatC= 1.13D-04 BMatP= 1.50D-04
 IDIUse=1 WtCom= 1.00D+00 WtEn= 0.00D+00
 Coeff-Com:  0.923D-01-0.197D+00 0.190D+00-0.928D-01-0.253D+00 0.153D+00
 Coeff-Com:  0.378D+00 0.135D+00-0.373D+00-0.109D+00-0.306D+00-0.171D+00
 Coeff-Com:  0.344D+00 0.381D+00 0.800D+00-0.510D+00-0.400D+00-0.335D+01
 Coeff-Com:  0.270D+01 0.158D+01
 Coeff:      0.923D-01-0.197D+00 0.190D+00-0.928D-01-0.253D+00 0.153D+00
 Coeff:      0.378D+00 0.135D+00-0.373D+00-0.109D+00-0.306D+00-0.171D+00
 Coeff:      0.344D+00 0.381D+00 0.800D+00-0.510D+00-0.400D+00-0.335D+01
 Coeff:      0.270D+01 0.158D+01
 Gap=     0.229 Goal=   None    Shift=    0.500
 Gap=     0.151 Goal=   None    Shift=    0.500
 RMSDP=3.50D-05 MaxDP=2.17D-03 DE=-1.07D-04 OVMax= 1.16D-02

 Cycle  24  Pass 1  IDiag  1:
 E= -1640.96297570517     Delta-E=       -0.000077736394 Rises=F Damp=F
 DIIS: error= 7.93D-04 at cycle  24 NSaved=  20.
 NSaved=20 IEnMin=20 EnMin= -1640.96297570517     IErMin=20 ErrMin= 7.93D-04
 ErrMax= 7.93D-04  0.00D+00 EMaxC= 1.00D+00 BMatC= 8.17D-05 BMatP= 1.13D-04
 IDIUse=1 WtCom= 1.00D+00 WtEn= 0.00D+00
 Coeff-Com:  0.953D-02-0.304D-01 0.167D-01-0.154D+00 0.136D+00 0.140D+00
 Coeff-Com:  0.785D-01-0.495D+00 0.309D+00 0.831D-01-0.313D-02-0.211D+00
 Coeff-Com: -0.869D+00 0.132D+01 0.498D+00 0.993D-01-0.232D+01 0.476D+00
 Coeff-Com: -0.105D+01 0.297D+01
 Coeff:      0.953D-02-0.304D-01 0.167D-01-0.154D+00 0.136D+00 0.140D+00
 Coeff:      0.785D-01-0.495D+00 0.309D+00 0.831D-01-0.313D-02-0.211D+00
 Coeff:     -0.869D+00 0.132D+01 0.498D+00 0.993D-01-0.232D+01 0.476D+00
 Coeff:     -0.105D+01 0.297D+01
 Gap=     0.228 Goal=   None    Shift=    0.500
 Gap=     0.152 Goal=   None    Shift=    0.500
 RMSDP=3.56D-05 MaxDP=2.39D-03 DE=-7.77D-05 OVMax= 1.06D-02

 Cycle  25  Pass 1  IDiag  1:
 E= -1640.96302671141     Delta-E=       -0.000051006246 Rises=F Damp=F
 DIIS: error= 6.82D-04 at cycle  25 NSaved=  20.
 NSaved=20 IEnMin=20 EnMin= -1640.96302671141     IErMin=20 ErrMin= 6.82D-04
 ErrMax= 6.82D-04  0.00D+00 EMaxC= 1.00D+00 BMatC= 7.90D-05 BMatP= 8.17D-05
 IDIUse=1 WtCom= 1.00D+00 WtEn= 0.00D+00
 Coeff-Com: -0.607D-02 0.579D-02-0.315D-01-0.804D-01 0.238D+00-0.297D-01
 Coeff-Com: -0.292D+00 0.272D+00-0.186D+00 0.334D+00-0.578D-01-0.785D+00
 Coeff-Com:  0.695D+00-0.510D+00 0.126D+01-0.613D+00-0.198D+00-0.259D+01
 Coeff-Com:  0.186D+01 0.171D+01
 Coeff:     -0.607D-02 0.579D-02-0.315D-01-0.804D-01 0.238D+00-0.297D-01
 Coeff:     -0.292D+00 0.272D+00-0.186D+00 0.334D+00-0.578D-01-0.785D+00
 Coeff:      0.695D+00-0.510D+00 0.126D+01-0.613D+00-0.198D+00-0.259D+01
 Coeff:      0.186D+01 0.171D+01
 Gap=     0.228 Goal=   None    Shift=    0.500
 Gap=     0.151 Goal=   None    Shift=    0.500
 RMSDP=2.51D-05 MaxDP=1.29D-03 DE=-5.10D-05 OVMax= 8.50D-03

 Cycle  26  Pass 1  IDiag  1:
 E= -1640.96306892952     Delta-E=       -0.000042218108 Rises=F Damp=F
 DIIS: error= 5.55D-04 at cycle  26 NSaved=  20.
 NSaved=20 IEnMin=20 EnMin= -1640.96306892952     IErMin=20 ErrMin= 5.55D-04
 ErrMax= 5.55D-04  0.00D+00 EMaxC= 1.00D+00 BMatC= 5.21D-05 BMatP= 7.90D-05
 IDIUse=1 WtCom= 1.00D+00 WtEn= 0.00D+00
 Coeff-Com: -0.481D-02-0.480D-01-0.800D-01 0.190D+00 0.818D-01-0.812D-01
 Coeff-Com: -0.128D-01-0.438D+00 0.401D+00 0.250D+00-0.523D-01-0.137D+00
 Coeff-Com: -0.129D+01 0.151D+01 0.331D+00 0.380D-01-0.169D+01 0.516D+00
 Coeff-Com: -0.174D+01 0.326D+01
 Coeff:     -0.481D-02-0.480D-01-0.800D-01 0.190D+00 0.818D-01-0.812D-01
 Coeff:     -0.128D-01-0.438D+00 0.401D+00 0.250D+00-0.523D-01-0.137D+00
 Coeff:     -0.129D+01 0.151D+01 0.331D+00 0.380D-01-0.169D+01 0.516D+00
 Coeff:     -0.174D+01 0.326D+01
 Gap=     0.228 Goal=   None    Shift=    0.500
 Gap=     0.151 Goal=   None    Shift=    0.500
 RMSDP=2.30D-05 MaxDP=1.28D-03 DE=-4.22D-05 OVMax= 7.46D-03

 Cycle  27  Pass 1  IDiag  1:
 E= -1640.96309671764     Delta-E=       -0.000027788113 Rises=F Damp=F
 DIIS: error= 4.58D-04 at cycle  27 NSaved=  20.
 NSaved=20 IEnMin=20 EnMin= -1640.96309671764     IErMin=20 ErrMin= 4.58D-04
 ErrMax= 4.58D-04  0.00D+00 EMaxC= 1.00D+00 BMatC= 4.04D-05 BMatP= 5.21D-05
 IDIUse=1 WtCom= 1.00D+00 WtEn= 0.00D+00
 Coeff-Com: -0.153D+00 0.114D+00 0.818D-01 0.181D+00-0.840D-01-0.158D+00
 Coeff-Com: -0.352D+00 0.164D-01 0.359D+00 0.497D+00-0.131D+00-0.802D+00
 Coeff-Com:  0.331D+00-0.648D+00 0.107D+01 0.502D+00 0.625D-01-0.417D+01
 Coeff-Com:  0.221D+01 0.207D+01
 Coeff:     -0.153D+00 0.114D+00 0.818D-01 0.181D+00-0.840D-01-0.158D+00
 Coeff:     -0.352D+00 0.164D-01 0.359D+00 0.497D+00-0.131D+00-0.802D+00
 Coeff:      0.331D+00-0.648D+00 0.107D+01 0.502D+00 0.625D-01-0.417D+01
 Coeff:      0.221D+01 0.207D+01
 Gap=     0.228 Goal=   None    Shift=    0.500
 Gap=     0.151 Goal=   None    Shift=    0.500
 RMSDP=1.98D-05 MaxDP=1.16D-03 DE=-2.78D-05 OVMax= 6.47D-03

 Cycle  28  Pass 1  IDiag  1:
 E= -1640.96311605503     Delta-E=       -0.000019337396 Rises=F Damp=F
 DIIS: error= 3.73D-04 at cycle  28 NSaved=  20.
 NSaved=20 IEnMin=20 EnMin= -1640.96311605503     IErMin=20 ErrMin= 3.73D-04
 ErrMax= 3.73D-04  0.00D+00 EMaxC= 1.00D+00 BMatC= 3.19D-05 BMatP= 4.04D-05
 IDIUse=1 WtCom= 1.00D+00 WtEn= 0.00D+00
 Coeff-Com: -0.158D+00 0.203D+00 0.303D-01-0.109D-01 0.333D-01-0.356D+00
 Coeff-Com:  0.145D+00 0.273D+00-0.670D-01 0.662D-01-0.340D+00 0.331D+00
 Coeff-Com: -0.800D+00 0.756D+00 0.279D+00 0.466D+00-0.207D+01 0.142D-01
 Coeff-Com:  0.166D-01 0.219D+01
 Coeff:     -0.158D+00 0.203D+00 0.303D-01-0.109D-01 0.333D-01-0.356D+00
 Coeff:      0.145D+00 0.273D+00-0.670D-01 0.662D-01-0.340D+00 0.331D+00
 Coeff:     -0.800D+00 0.756D+00 0.279D+00 0.466D+00-0.207D+01 0.142D-01
 Coeff:      0.166D-01 0.219D+01
 Gap=     0.228 Goal=   None    Shift=    0.500
 Gap=     0.151 Goal=   None    Shift=    0.500
 RMSDP=1.42D-05 MaxDP=7.92D-04 DE=-1.93D-05 OVMax= 4.70D-03

 Cycle  29  Pass 1  IDiag  1:
 E= -1640.96313077364     Delta-E=       -0.000014718606 Rises=F Damp=F
 DIIS: error= 2.90D-04 at cycle  29 NSaved=  20.
 NSaved=20 IEnMin=20 EnMin= -1640.96313077364     IErMin=20 ErrMin= 2.90D-04
 ErrMax= 2.90D-04  0.00D+00 EMaxC= 1.00D+00 BMatC= 1.75D-05 BMatP= 3.19D-05
 IDIUse=1 WtCom= 1.00D+00 WtEn= 0.00D+00
 Coeff-Com:  0.123D-01 0.514D-01-0.185D+00 0.153D+00 0.425D-01-0.534D-01
 Coeff-Com: -0.125D+00-0.430D+00 0.609D+00 0.701D+00-0.450D+00-0.108D+01
 Coeff-Com:  0.239D+00 0.234D+00 0.859D+00 0.951D+00-0.188D+01-0.147D+01
 Coeff-Com: -0.123D+00 0.294D+01
 Coeff:      0.123D-01 0.514D-01-0.185D+00 0.153D+00 0.425D-01-0.534D-01
 Coeff:     -0.125D+00-0.430D+00 0.609D+00 0.701D+00-0.450D+00-0.108D+01
 Coeff:      0.239D+00 0.234D+00 0.859D+00 0.951D+00-0.188D+01-0.147D+01
 Coeff:     -0.123D+00 0.294D+01
 Gap=     0.228 Goal=   None    Shift=    0.500
 Gap=     0.151 Goal=   None    Shift=    0.500
 RMSDP=1.20D-05 MaxDP=5.93D-04 DE=-1.47D-05 OVMax= 4.05D-03

 Cycle  30  Pass 1  IDiag  1:
 E= -1640.96313999026     Delta-E=       -0.000009216626 Rises=F Damp=F
 DIIS: error= 2.31D-04 at cycle  30 NSaved=  20.
 NSaved=20 IEnMin=20 EnMin= -1640.96313999026     IErMin=20 ErrMin= 2.31D-04
 ErrMax= 2.31D-04  0.00D+00 EMaxC= 1.00D+00 BMatC= 1.14D-05 BMatP= 1.75D-05
 IDIUse=1 WtCom= 1.00D+00 WtEn= 0.00D+00
 Coeff-Com:  0.128D-01-0.114D+00 0.154D+00 0.616D-01-0.111D+00-0.146D+00
 Coeff-Com: -0.202D+00 0.421D+00 0.299D+00-0.182D+00-0.402D+00-0.514D-01
 Coeff-Com: -0.392D+00 0.571D+00 0.161D+01-0.107D+01-0.120D+01-0.150D+01
 Coeff-Com:  0.155D+01 0.169D+01
 Coeff:      0.128D-01-0.114D+00 0.154D+00 0.616D-01-0.111D+00-0.146D+00
 Coeff:     -0.202D+00 0.421D+00 0.299D+00-0.182D+00-0.402D+00-0.514D-01
 Coeff:     -0.392D+00 0.571D+00 0.161D+01-0.107D+01-0.120D+01-0.150D+01
 Coeff:      0.155D+01 0.169D+01
 Gap=     0.228 Goal=   None    Shift=    0.500
 Gap=     0.151 Goal=   None    Shift=    0.500
 RMSDP=9.86D-06 MaxDP=5.54D-04 DE=-9.22D-06 OVMax= 3.27D-03

 Cycle  31  Pass 1  IDiag  1:
 E= -1640.96314567434     Delta-E=       -0.000005684079 Rises=F Damp=F
 DIIS: error= 1.84D-04 at cycle  31 NSaved=  20.
 NSaved=20 IEnMin=20 EnMin= -1640.96314567434     IErMin=20 ErrMin= 1.84D-04
 ErrMax= 1.84D-04  0.00D+00 EMaxC= 1.00D+00 BMatC= 8.50D-06 BMatP= 1.14D-05
 IDIUse=1 WtCom= 1.00D+00 WtEn= 0.00D+00
 Coeff-Com: -0.386D-01 0.769D-01-0.248D-01 0.126D-01-0.472D-01-0.241D-01
 Coeff-Com:  0.429D-01-0.330D+00 0.416D+00 0.367D+00-0.322D+00-0.839D+00
 Coeff-Com:  0.236D+00 0.680D+00 0.695D+00-0.254D+00-0.178D+01-0.201D+00
 Coeff-Com:  0.215D+00 0.212D+01
 Coeff:     -0.386D-01 0.769D-01-0.248D-01 0.126D-01-0.472D-01-0.241D-01
 Coeff:      0.429D-01-0.330D+00 0.416D+00 0.367D+00-0.322D+00-0.839D+00
 Coeff:      0.236D+00 0.680D+00 0.695D+00-0.254D+00-0.178D+01-0.201D+00
 Coeff:      0.215D+00 0.212D+01
 Gap=     0.228 Goal=   None    Shift=    0.500
 Gap=     0.151 Goal=   None    Shift=    0.500
 RMSDP=8.07D-06 MaxDP=4.23D-04 DE=-5.68D-06 OVMax= 2.73D-03

 Cycle  32  Pass 1  IDiag  1:
 E= -1640.96314980054     Delta-E=       -0.000004126195 Rises=F Damp=F
 DIIS: error= 1.45D-04 at cycle  32 NSaved=  20.
 NSaved=20 IEnMin=20 EnMin= -1640.96314980054     IErMin=20 ErrMin= 1.45D-04
 ErrMax= 1.45D-04  0.00D+00 EMaxC= 1.00D+00 BMatC= 5.88D-06 BMatP= 8.50D-06
 IDIUse=1 WtCom= 1.00D+00 WtEn= 0.00D+00
 Coeff-Com:  0.350D-01-0.834D-01 0.722D-02 0.665D-01 0.870D-01-0.491D-01
 Coeff-Com: -0.402D+00 0.364D+00 0.119D+00-0.745D-03-0.318D+00 0.815D-01
 Coeff-Com: -0.671D+00 0.113D+01 0.391D+00-0.773D+00-0.597D+00-0.556D+00
 Coeff-Com:  0.169D+00 0.200D+01
 Coeff:      0.350D-01-0.834D-01 0.722D-02 0.665D-01 0.870D-01-0.491D-01
 Coeff:     -0.402D+00 0.364D+00 0.119D+00-0.745D-03-0.318D+00 0.815D-01
 Coeff:     -0.671D+00 0.113D+01 0.391D+00-0.773D+00-0.597D+00-0.556D+00
 Coeff:      0.169D+00 0.200D+01
 Gap=     0.228 Goal=   None    Shift=    0.500
 Gap=     0.151 Goal=   None    Shift=    0.500
 RMSDP=6.45D-06 MaxDP=3.28D-04 DE=-4.13D-06 OVMax= 2.22D-03

 >>>>>>>>>> Convergence criterion not met.
 SCF Done:  E(ULC-wHPBE) =  -1640.96314980     A.U. after   33 cycles
            NFock= 32  Conv=0.64D-05     -V/T= 2.0041
 <Sx>= 0.0000 <Sy>= 0.0000 <Sz>= 0.5000 <S**2>= 0.7873 S= 0.5185
 <L.S>= 0.000000000000E+00
 KE= 1.634215679639D+03 PE=-7.855357651630D+03 EE= 2.557693978521D+03
 Annihilation of the first spin contaminant:
 S**2 before annihilation     0.7873,   after     0.7505
 Leave Link  502 at Tue Jan 26 18:48:08 2021, MaxMem=  4026531840 cpu:           12473.6 elap:            1561.0
 (Enter /opt/ohpc/pub/libs/gaussian/g16-A.03/sandybridge/g16/l508.exe)
 Integral symmetry usage will be decided dynamically.
 Tight linear equation convergence will be used.
 ULC-wHPBE wavefunction.
 Quadratic Convergence SCF Method.
 Line search only if initial step raises energy.
 FoFJK:  IHMeth= 1 ICntrl=       0 DoSepK=T KAlg= 0 I1Cent=           0 FoldK=F
 IRaf=         1 NMat=       1 IRICut=       1 DoRegI=T DoRafI=F ISym2E= 1 IDoP0=0 IntGTp=1.
 FoFCou: FMM=F IPFlag=           0 FMFlag=      100000 FMFlg1=           0
         NFxFlg=           0 DoJE=T BraDBF=F KetDBF=F FulRan=T
         wScrn=  0.000000 ICntrl=       500 IOpCl=  0 I1Cent=           0 NGrid=           0
         NMat0=    1 NMatS0=      1 NMatT0=    0 NMatD0=    1 NMtDS0=    0 NMtDT0=    0
 Petite list used in FoFCou.
 Iteration   1 EE= -1640.96315269516                                    Grad=1.340D-03 Max rot=    0.0229 deg.
 QCNR:  CnvC1=1.34D-08 CnvC2=1.34D-07
 LinEq1:  Iter=  0 NonCon=     1 RMS=1.32D-05 Max=2.63D-03 NDo=     1
 AX will form     1 AO Fock derivatives at one time.
 LinEq1:  Iter=  1 NonCon=     1 RMS=1.05D-05 Max=1.01D-03 NDo=     1
 LinEq1:  Iter=  2 NonCon=     1 RMS=5.75D-06 Max=2.97D-04 NDo=     1
 LinEq1:  Iter=  3 NonCon=     1 RMS=3.25D-06 Max=2.61D-04 NDo=     1
 LinEq1:  Iter=  4 NonCon=     1 RMS=2.01D-06 Max=1.11D-04 NDo=     1
 LinEq1:  Iter=  5 NonCon=     1 RMS=1.45D-06 Max=1.07D-04 NDo=     1
 LinEq1:  Iter=  6 NonCon=     1 RMS=8.96D-07 Max=9.33D-05 NDo=     1
 LinEq1:  Iter=  7 NonCon=     1 RMS=5.92D-07 Max=4.30D-05 NDo=     1
 LinEq1:  Iter=  8 NonCon=     1 RMS=3.59D-07 Max=2.71D-05 NDo=     1
 LinEq1:  Iter=  9 NonCon=     1 RMS=2.62D-07 Max=2.00D-05 NDo=     1
 LinEq1:  Iter= 10 NonCon=     1 RMS=1.72D-07 Max=1.36D-05 NDo=     1
 LinEq1:  Iter= 11 NonCon=     1 RMS=1.10D-07 Max=1.06D-05 NDo=     1
 LinEq1:  Iter= 12 NonCon=     1 RMS=6.82D-08 Max=5.49D-06 NDo=     1
 LinEq1:  Iter= 13 NonCon=     1 RMS=4.52D-08 Max=4.18D-06 NDo=     1
 LinEq1:  Iter= 14 NonCon=     1 RMS=2.36D-08 Max=2.26D-06 NDo=     1
 LinEq1:  Iter= 15 NonCon=     1 RMS=1.51D-08 Max=9.81D-07 NDo=     1
 LinEq1:  Iter= 16 NonCon=     1 RMS=8.94D-09 Max=6.04D-07 NDo=     1
 LinEq1:  Iter= 17 NonCon=     1 RMS=5.59D-09 Max=3.32D-07 NDo=     1
 LinEq1:  Iter= 18 NonCon=     1 RMS=3.15D-09 Max=2.88D-07 NDo=     1
 LinEq1:  Iter= 19 NonCon=     1 RMS=1.97D-09 Max=1.82D-07 NDo=     1
 LinEq1:  Iter= 20 NonCon=     0 RMS=1.02D-09 Max=7.80D-08 NDo=     1
 Linear equations converged to 1.340D-08 1.340D-07 after    20 iterations.
 Angle between quadratic step and gradient=  66.66 degrees.
     ILin= 1 X=0.000D+00 Y=-1.640963152695D+03 DE= 0.00D+00 F= -9.52D-06
     ILin= 2 X=1.000D+00 Y=-1.640963157503D+03 DE=-4.81D-06
 Iteration   2 EE= -1640.96315750300     Delta-E=       -0.000004807846 Grad=2.412D-05 Max rot=    0.0005 deg.
 Rotation gradient small -- convergence achieved.
 SCF Done:  E(ULC-wHPBE) =  -1640.96315750     a.u. after    2 cycles
            Convg  =    0.2412D-04                    22 Fock formations.
              S**2 =  0.7876                  -V/T =  2.0041
 <Sx>= 0.0000 <Sy>= 0.0000 <Sz>= 0.5000 <S**2>= 0.7876 S= 0.5186
 <L.S>= 0.000000000000E+00
 Annihilation of the first spin contaminant:
 S**2 before annihilation     0.7876,   after     0.7505
 Leave Link  508 at Tue Jan 26 19:03:50 2021, MaxMem=  4026531840 cpu:            7517.7 elap:             942.2
 (Enter /opt/ohpc/pub/libs/gaussian/g16-A.03/sandybridge/g16/l601.exe)
 Copying SCF densities to generalized density rwf, IOpCl= 1 IROHF=0.

 **********************************************************************

            Population analysis using the SCF density.

 **********************************************************************

 Orbital symmetries:
 Alpha Orbitals:
       Occupied  (A) (A) (A) (A) (A) (A) (A) (A) (A) (A) (A) (A)
                 (A) (A) (A) (A) (A) (A) (A) (A) (A) (A) (A) (A)
                 (A) (A) (A) (A) (A) (A) (A) (A) (A) (A) (A) (A)
                 (A) (A) (A) (A) (A) (A) (A) (A) (A) (A) (A) (A)
                 (A) (A) (A) (A) (A) (A) (A) (A) (A) (A) (A) (A)
                 (A) (A) (A) (A) (A) (A) (A) (A) (A) (A) (A) (A)
                 (A) (A) (A) (A) (A) (A) (A) (A) (A) (A) (A) (A)
                 (A) (A) (A) (A) (A) (A)
       Virtual   (A) (A) (A) (A) (A) (A) (A) (A) (A) (A) (A) (A)
                 (A) (A) (A) (A) (A) (A) (A) (A) (A) (A) (A) (A)
                 (A) (A) (A) (A) (A) (A) (A) (A) (A) (A) (A) (A)
                 (A) (A) (A) (A) (A) (A) (A) (A) (A) (A) (A) (A)
                 (A) (A) (A) (A) (A) (A) (A) (A) (A) (A) (A) (A)
                 (A) (A) (A) (A) (A) (A) (A) (A) (A) (A) (A) (A)
                 (A) (A) (A) (A) (A) (A) (A) (A) (A) (A) (A) (A)
                 (A) (A) (A) (A) (A) (A) (A) (A) (A) (A) (A) (A)
                 (A) (A) (A) (A) (A) (A) (A) (A) (A) (A) (A) (A)
                 (A) (A) (A) (A) (A) (A) (A) (A) (A) (A) (A) (A)
                 (A) (A) (A) (A) (A) (A) (A) (A) (A) (A) (A) (A)
                 (A) (A) (A) (A) (A) (A) (A) (A) (A) (A) (A) (A)
                 (A) (A) (A) (A) (A) (A) (A) (A) (A) (A) (A) (A)
                 (A) (A) (A) (A) (A) (A) (A) (A) (A) (A) (A) (A)
                 (A) (A) (A) (A) (A) (A) (A) (A) (A) (A) (A) (A)
                 (A) (A) (A) (A) (A) (A) (A) (A) (A) (A) (A) (A)
                 (A) (A) (A) (A) (A) (A) (A) (A) (A) (A) (A) (A)
                 (A) (A) (A) (A) (A) (A) (A) (A) (A) (A) (A) (A)
                 (A) (A) (A) (A) (A) (A) (A) (A) (A) (A) (A) (A)
                 (A) (A) (A) (A) (A) (A) (A) (A) (A) (A) (A) (A)
                 (A) (A) (A) (A) (A) (A) (A) (A) (A) (A) (A) (A)
                 (A) (A) (A) (A) (A) (A) (A) (A) (A) (A) (A) (A)
                 (A) (A) (A) (A) (A) (A) (A) (A) (A) (A) (A) (A)
                 (A) (A) (A) (A) (A) (A) (A) (A) (A) (A) (A) (A)
                 (A) (A) (A) (A) (A) (A) (A) (A) (A) (A) (A) (A)
                 (A) (A) (A) (A) (A) (A) (A) (A) (A) (A) (A) (A)
                 (A) (A) (A) (A) (A) (A) (A) (A) (A) (A) (A) (A)
                 (A) (A) (A) (A) (A) (A) (A) (A) (A) (A) (A) (A)
                 (A) (A) (A) (A) (A) (A) (A) (A) (A) (A) (A) (A)
                 (A) (A) (A) (A) (A) (A) (A) (A) (A) (A) (A) (A)
                 (A) (A) (A) (A) (A) (A) (A) (A) (A) (A) (A) (A)
                 (A) (A) (A) (A) (A) (A) (A) (A) (A) (A) (A) (A)
                 (A) (A) (A) (A) (A) (A) (A) (A) (A) (A) (A) (A)
                 (A) (A) (A) (A) (A) (A) (A) (A) (A) (A) (A) (A)
                 (A) (A) (A) (A) (A) (A) (A) (A) (A) (A) (A) (A)
                 (A) (A) (A) (A) (A) (A) (A) (A) (A) (A) (A) (A)
                 (A) (A) (A) (A) (A) (A) (A) (A) (A) (A) (A) (A)
                 (A) (A) (A) (A) (A) (A) (A) (A) (A) (A) (A) (A)
                 (A) (A) (A) (A) (A) (A) (A) (A) (A) (A) (A) (A)
                 (A) (A) (A) (A) (A) (A) (A) (A) (A) (A) (A)
 Beta  Orbitals:
       Occupied  (A) (A) (A) (A) (A) (A) (A) (A) (A) (A) (A) (A)
                 (A) (A) (A) (A) (A) (A) (A) (A) (A) (A) (A) (A)
                 (A) (A) (A) (A) (A) (A) (A) (A) (A) (A) (A) (A)
                 (A) (A) (A) (A) (A) (A) (A) (A) (A) (A) (A) (A)
                 (A) (A) (A) (A) (A) (A) (A) (A) (A) (A) (A) (A)
                 (A) (A) (A) (A) (A) (A) (A) (A) (A) (A) (A) (A)
                 (A) (A) (A) (A) (A) (A) (A) (A) (A) (A) (A) (A)
                 (A) (A) (A) (A) (A)
[...]
    40  H(1)              -0.00010      -0.44466      -0.15867      -0.14832
    41  C(13)              0.00008       0.08716       0.03110       0.02907
    42  H(1)              -0.00008      -0.35383      -0.12625      -0.11802
    43  H(1)              -0.00008      -0.35056      -0.12509      -0.11693
    44  H(1)              -0.00000      -0.00573      -0.00205      -0.00191
 --------------------------------------------------------
       Center         ----  Spin Dipole Couplings  ----
                      3XX-RR        3YY-RR        3ZZ-RR
 --------------------------------------------------------
     1   Atom       -0.007140      0.007355     -0.000215
     2   Atom        0.026589     -0.023750     -0.002838
     3   Atom        0.049990     -0.043211     -0.006780
     4   Atom       -0.003727      0.001761      0.001965
     5   Atom       -0.121727      0.151305     -0.029578
     6   Atom        0.599312     -0.239412     -0.359900
     7   Atom        0.023023     -0.019351     -0.003672
     8   Atom        0.007442     -0.005738     -0.001703
     9   Atom       -0.007542      0.004231      0.003311
    10   Atom       -0.001138     -0.001242      0.002380
    11   Atom        0.060599     -0.009903     -0.050696
    12   Atom        0.039886     -0.024998     -0.014888
    13   Atom        0.016219      0.009131     -0.025350
    14   Atom       -0.001054      0.003034     -0.001980
    15   Atom       -0.002086      0.005243     -0.003156
    16   Atom        0.004360     -0.002149     -0.002211
    17   Atom        0.010918     -0.010439     -0.000479
    18   Atom        0.000044     -0.000071      0.000027
    19   Atom       -0.001233      0.001587     -0.000354
    20   Atom        0.002310     -0.003699      0.001389
    21   Atom        0.006890     -0.003517     -0.003373
    22   Atom        0.001415      0.001058     -0.002473
    23   Atom        0.320100     -0.132619     -0.187481
    24   Atom       -0.004411     -0.002815      0.007226
    25   Atom        0.001899      0.001218     -0.003118
    26   Atom        0.001990      0.001419     -0.003408
    27   Atom        0.006191      0.004980     -0.011171
    28   Atom        0.005753      0.004978     -0.010731
    29   Atom        0.001355     -0.000770     -0.000585
    30   Atom        0.000815     -0.000484     -0.000330
    31   Atom        0.001775     -0.000982     -0.000793
    32   Atom        0.000713     -0.000416     -0.000297
    33   Atom        0.000262     -0.000095     -0.000167
    34   Atom        0.000315     -0.000157     -0.000159
    35   Atom        0.000288     -0.000136     -0.000152
    36   Atom        0.000329     -0.000180     -0.000150
    37   Atom        0.000279      0.000351     -0.000631
    38   Atom        0.000148      0.000275     -0.000423
    39   Atom        0.000173      0.000587     -0.000760
    40   Atom        0.000094      0.000197     -0.000291
    41   Atom        0.000203     -0.000024     -0.000179
    42   Atom        0.000202     -0.000025     -0.000177
    43   Atom        0.000187     -0.000028     -0.000160
    44   Atom        0.000234     -0.000076     -0.000158
 --------------------------------------------------------
                        XY            XZ            YZ
 --------------------------------------------------------
     1   Atom       -0.006133     -0.013706     -0.004150
     2   Atom        0.026309      0.044073      0.017684
     3   Atom        0.014379     -0.054259     -0.008689
     4   Atom        0.002234     -0.001426     -0.000259
     5   Atom       -0.077981     -0.056919      0.075218
     6   Atom       -0.444463      0.038925     -0.075371
     7   Atom        0.026625      0.036132      0.018662
     8   Atom        0.003347      0.003190      0.000398
     9   Atom        0.003252      0.006789     -0.004247
    10   Atom       -0.016636     -0.014778     -0.011653
    11   Atom       -0.008805      0.031893      0.027211
    12   Atom       -0.024343      0.003942     -0.016551
    13   Atom       -0.014544      0.007263      0.016082
    14   Atom       -0.001514     -0.000464      0.002793
    15   Atom        0.009314      0.006272      0.009265
    16   Atom        0.003541      0.004305      0.002183
    17   Atom        0.007153      0.013701      0.004602
    18   Atom        0.000003     -0.001546     -0.000198
    19   Atom        0.001589     -0.000404     -0.000464
    20   Atom       -0.000070     -0.003416      0.001916
    21   Atom        0.000297      0.005108     -0.000614
    22   Atom       -0.001245     -0.000107     -0.000582
    23   Atom        0.678983      0.604319      0.433960
    24   Atom        0.000859     -0.001319     -0.000368
    25   Atom        0.000224     -0.000938      0.000832
    26   Atom       -0.000570      0.002590     -0.000605
    27   Atom       -0.000109      0.001595     -0.001482
    28   Atom       -0.000578      0.000450     -0.001072
    29   Atom        0.000040      0.000033      0.000086
    30   Atom        0.000191      0.000203     -0.000012
    31   Atom        0.000481     -0.000151     -0.000011
    32   Atom        0.000115     -0.000068      0.000042
    33   Atom       -0.000069     -0.000027     -0.000009
    34   Atom       -0.000062      0.000042     -0.000022
    35   Atom       -0.000065      0.000039      0.000007
    36   Atom       -0.000111      0.000040      0.000004
    37   Atom       -0.001122      0.000232     -0.000107
    38   Atom       -0.000716     -0.000028     -0.000011
    39   Atom       -0.001298      0.000372     -0.000372
    40   Atom       -0.000588      0.000211     -0.000153
    41   Atom       -0.000198      0.000075     -0.000076
    42   Atom       -0.000243      0.000019     -0.000029
    43   Atom       -0.000217      0.000052     -0.000010
    44   Atom       -0.000228      0.000039     -0.000012
 --------------------------------------------------------


 ---------------------------------------------------------------------------------
              Anisotropic Spin Dipole Couplings in Principal Axis System
 ---------------------------------------------------------------------------------

       Atom             a.u.   MegaHertz   Gauss  10(-4) cm-1        Axes

              Baa    -0.0198    -2.660    -0.949    -0.887  0.7639  0.2624  0.5895
     1 C(13)  Bbb     0.0092     1.233     0.440     0.411  0.0203  0.9034 -0.4284
              Bcc     0.0106     1.428     0.509     0.476 -0.6450  0.3392  0.6848
 
              Baa    -0.0355    -4.770    -1.702    -1.591 -0.5988  0.6641  0.4477
     2 C(13)  Bbb    -0.0336    -4.509    -1.609    -1.504 -0.2211 -0.6743  0.7045
              Bcc     0.0691     9.279     3.311     3.095  0.7698  0.3228  0.5506
 
              Baa    -0.0454    -1.862    -0.664    -0.621 -0.1123  0.9915  0.0652
     3 S(33)  Bbb    -0.0396    -1.625    -0.580    -0.542  0.5176  0.0024  0.8556
              Bcc     0.0850     3.487     1.244     1.163  0.8482  0.1299 -0.5135
 
              Baa    -0.0048    -0.639    -0.228    -0.213  0.9318 -0.3119  0.1856
     4 C(13)  Bbb     0.0016     0.221     0.079     0.074  0.0575  0.6317  0.7731
              Bcc     0.0031     0.417     0.149     0.139  0.3584  0.7097 -0.6066
 
              Baa    -0.1549   -20.790    -7.418    -6.935  0.9313  0.1563  0.3291
     5 C(13)  Bbb    -0.0501    -6.721    -2.398    -2.242 -0.2390 -0.4196  0.8757
              Bcc     0.2050    27.511     9.817     9.177 -0.2750  0.8941  0.3534
 
              Baa    -0.4608   -61.836   -22.065   -20.626  0.3234  0.8137  0.4830
     6 C(13)  Bbb    -0.3339   -44.813   -15.990   -14.948 -0.2383 -0.4239  0.8738
              Bcc     0.7948   106.649    38.055    35.574  0.9157 -0.3977  0.0568
 
              Baa    -0.0325    -4.356    -1.554    -1.453 -0.2929  0.9272 -0.2334
     7 C(13)  Bbb    -0.0288    -3.870    -1.381    -1.291 -0.5791  0.0222  0.8149
              Bcc     0.0613     8.226     2.935     2.744  0.7608  0.3739  0.5305
 
              Baa    -0.0066    -0.882    -0.315    -0.294 -0.2497  0.9646  0.0847
     8 C(13)  Bbb    -0.0026    -0.350    -0.125    -0.117 -0.2534 -0.1495  0.9557
              Bcc     0.0092     1.232     0.440     0.411  0.9346  0.2172  0.2818
 
              Baa    -0.0122    -6.519    -2.326    -2.174  0.8478 -0.2833 -0.4482
     9 H(1)   Bbb     0.0037     1.993     0.711     0.665  0.4910  0.7386  0.4619
              Bcc     0.0085     4.525     1.615     1.509  0.2002 -0.6117  0.7654
 
              Baa    -0.0290    -3.891    -1.388    -1.298  0.6241  0.5894  0.5129
    10 C(13)  Bbb     0.0123     1.656     0.591     0.552  0.0531 -0.6869  0.7248
              Bcc     0.0167     2.235     0.797     0.745  0.7795 -0.4251 -0.4600
 
              Baa    -0.0723    -9.698    -3.460    -3.235 -0.2382 -0.4164  0.8774
    11 C(13)  Bbb     0.0031     0.422     0.151     0.141 -0.0871  0.9089  0.4078
              Bcc     0.0691     9.275     3.310     3.094  0.9673 -0.0207  0.2528
 
              Baa    -0.0413    -5.543    -1.978    -1.849  0.2280  0.8400  0.4923
    12 C(13)  Bbb    -0.0080    -1.074    -0.383    -0.358 -0.2868 -0.4253  0.8584
              Bcc     0.0493     6.617     2.361     2.207  0.9305 -0.3369  0.1440
 
              Baa    -0.0347    -4.656    -1.661    -1.553 -0.2412 -0.4039  0.8824
    13 C(13)  Bbb     0.0066     0.891     0.318     0.297  0.6182  0.6370  0.4605
              Bcc     0.0281     3.764     1.343     1.256  0.7481 -0.6566 -0.0960
 
              Baa    -0.0032    -1.732    -0.618    -0.578 -0.1032 -0.4248  0.8994
    14 H(1)   Bbb    -0.0015    -0.781    -0.279    -0.260  0.9592  0.1969  0.2030
              Bcc     0.0047     2.513     0.897     0.838 -0.2633  0.8836  0.3872
 
              Baa    -0.0092    -4.900    -1.748    -1.634 -0.2357 -0.4128  0.8798
    15 H(1)   Bbb    -0.0084    -4.498    -1.605    -1.500  0.8362 -0.5474 -0.0328
              Bcc     0.0176     9.398     3.353     3.135  0.4952  0.7280  0.4742
 
              Baa    -0.0045    -2.413    -0.861    -0.805 -0.2534 -0.4222  0.8703
    16 H(1)   Bbb    -0.0036    -1.938    -0.692    -0.647 -0.5029  0.8261  0.2543
              Bcc     0.0082     4.352     1.553     1.452  0.8263  0.3733  0.4217
 
              Baa    -0.0127    -1.698    -0.606    -0.567 -0.2341  0.9668 -0.1020
    17 C(13)  Bbb    -0.0096    -1.290    -0.460    -0.430 -0.5441 -0.0433  0.8379
              Bcc     0.0223     2.988     1.066     0.997  0.8057  0.2516  0.5362
 
              Baa    -0.0015    -0.813    -0.290    -0.271  0.6988  0.0951  0.7089
    18 H(1)   Bbb    -0.0001    -0.037    -0.013    -0.012 -0.1274  0.9918 -0.0075
              Bcc     0.0016     0.850     0.303     0.284 -0.7039 -0.0851  0.7052
 
              Baa    -0.0020    -1.050    -0.375    -0.350  0.9124 -0.3927  0.1154
    19 H(1)   Bbb    -0.0005    -0.245    -0.087    -0.082 -0.0210  0.2367  0.9714
              Bcc     0.0024     1.295     0.462     0.432  0.4088  0.8887 -0.2077
 
              Baa    -0.0045    -2.421    -0.864    -0.808 -0.1901  0.8968 -0.3995
    20 H(1)   Bbb    -0.0010    -0.508    -0.181    -0.170  0.6613  0.4178  0.6230
              Bcc     0.0055     2.929     1.045     0.977  0.7256 -0.1458 -0.6725
 
              Baa    -0.0057    -3.039    -1.084    -1.014 -0.3650  0.2984  0.8819
    21 H(1)   Bbb    -0.0033    -1.763    -0.629    -0.588  0.1110  0.9544 -0.2770
              Bcc     0.0090     4.802     1.713     1.602  0.9244  0.0032  0.3815
 
              Baa    -0.0026    -1.383    -0.493    -0.461  0.0836  0.1846  0.9793
    22 H(1)   Bbb     0.0001     0.042     0.015     0.014  0.6607  0.7254 -0.1931
              Bcc     0.0025     1.341     0.478     0.447  0.7460 -0.6631  0.0613
 
              Baa    -0.6220   -25.502    -9.100    -8.507 -0.5958  0.8027  0.0269
    23 S(33)  Bbb    -0.5845   -23.965    -8.551    -7.994 -0.3641 -0.2998  0.8818
              Bcc     1.2065    49.467    17.651    16.500  0.7159  0.5156  0.4708
 
              Baa    -0.0049    -0.655    -0.234    -0.218  0.9253 -0.3685  0.0896
    24 C(13)  Bbb    -0.0025    -0.337    -0.120    -0.113  0.3617  0.9285  0.0841
              Bcc     0.0074     0.992     0.354     0.331 -0.1142 -0.0454  0.9924
 
              Baa    -0.0034    -0.462    -0.165    -0.154  0.1773 -0.1811  0.9673
    25 C(13)  Bbb     0.0014     0.184     0.066     0.061 -0.0677  0.9783  0.1956
              Bcc     0.0021     0.279     0.099     0.093  0.9818  0.1002 -0.1612
 
              Baa    -0.0045    -0.600    -0.214    -0.200 -0.3669  0.0599  0.9283
    26 C(13)  Bbb     0.0011     0.153     0.055     0.051  0.3647  0.9273  0.0843
              Bcc     0.0033     0.447     0.160     0.149  0.8558 -0.3695  0.3621
 
              Baa    -0.0114    -0.442    -0.158    -0.147 -0.0891  0.0889  0.9920
    27 N(14)  Bbb     0.0051     0.195     0.070     0.065  0.1942  0.9785 -0.0702
              Bcc     0.0064     0.246     0.088     0.082  0.9769 -0.1864  0.1045
 
              Baa    -0.0108    -0.417    -0.149    -0.139 -0.0248  0.0668  0.9975
    28 N(14)  Bbb     0.0047     0.181     0.065     0.061  0.4969  0.8666 -0.0457
              Bcc     0.0061     0.236     0.084     0.079  0.8675 -0.4945  0.0547
 
              Baa    -0.0008    -0.108    -0.039    -0.036 -0.0115  0.9320 -0.3623
    29 C(13)  Bbb    -0.0006    -0.074    -0.026    -0.025 -0.0239  0.3619  0.9319
              Bcc     0.0014     0.182     0.065     0.061  0.9996  0.0194  0.0181
 
              Baa    -0.0005    -0.279    -0.099    -0.093 -0.1733  0.9538  0.2453
    30 H(1)   Bbb    -0.0004    -0.188    -0.067    -0.063 -0.1222 -0.2680  0.9556
              Bcc     0.0009     0.467     0.167     0.156  0.9772  0.1357  0.1630
 
              Baa    -0.0011    -0.568    -0.203    -0.189 -0.1697  0.9839 -0.0562
    31 H(1)   Bbb    -0.0008    -0.427    -0.152    -0.142  0.0465  0.0650  0.9968
              Bcc     0.0019     0.995     0.355     0.332  0.9844  0.1666 -0.0568
 
              Baa    -0.0004    -0.237    -0.085    -0.079 -0.1122  0.9410 -0.3194
    32 H(1)   Bbb    -0.0003    -0.152    -0.054    -0.051  0.0267  0.3241  0.9456
              Bcc     0.0007     0.389     0.139     0.130  0.9933  0.0976 -0.0615
 
              Baa    -0.0002    -0.023    -0.008    -0.008  0.0909  0.1945  0.9767
    33 C(13)  Bbb    -0.0001    -0.014    -0.005    -0.005  0.1659  0.9641 -0.2074
              Bcc     0.0003     0.037     0.013     0.012  0.9819 -0.1809 -0.0554
 
              Baa    -0.0002    -0.096    -0.034    -0.032  0.0350  0.7331  0.6793
    34 H(1)   Bbb    -0.0001    -0.079    -0.028    -0.026 -0.1552 -0.6674  0.7283
              Bcc     0.0003     0.175     0.062     0.058  0.9873 -0.1310  0.0904
 
              Baa    -0.0002    -0.087    -0.031    -0.029 -0.1500 -0.5541  0.8188
    35 H(1)   Bbb    -0.0001    -0.073    -0.026    -0.024  0.0725  0.8198  0.5681
              Bcc     0.0003     0.160     0.057     0.053  0.9860 -0.1446  0.0828
 
              Baa    -0.0002    -0.110    -0.039    -0.037  0.2141  0.9523 -0.2174
    36 H(1)   Bbb    -0.0001    -0.080    -0.029    -0.027 -0.0291  0.2287  0.9731
              Bcc     0.0004     0.190     0.068     0.063  0.9764 -0.2021  0.0766
 
              Baa    -0.0009    -0.114    -0.041    -0.038  0.6799  0.5968 -0.4262
    37 C(13)  Bbb    -0.0006    -0.082    -0.029    -0.028  0.2353  0.3729  0.8975
              Bcc     0.0015     0.197     0.070     0.066 -0.6945  0.7105 -0.1132
 
              Baa    -0.0005    -0.275    -0.098    -0.092  0.7085  0.6452  0.2859
    38 H(1)   Bbb    -0.0004    -0.221    -0.079    -0.074 -0.2057 -0.1987  0.9582
              Bcc     0.0009     0.497     0.177     0.166 -0.6750  0.7377  0.0081
 
              Baa    -0.0010    -0.509    -0.182    -0.170  0.7422  0.5247 -0.4170
    39 H(1)   Bbb    -0.0008    -0.452    -0.161    -0.151  0.2048  0.4149  0.8865
              Bcc     0.0018     0.961     0.343     0.321 -0.6381  0.7434 -0.2005
 
              Baa    -0.0005    -0.249    -0.089    -0.083  0.7315  0.5575 -0.3925
    40 H(1)   Bbb    -0.0003    -0.175    -0.063    -0.059  0.1517  0.4282  0.8909
              Bcc     0.0008     0.425     0.151     0.142 -0.6647  0.7112 -0.2286
 
              Baa    -0.0002    -0.028    -0.010    -0.009  0.0272  0.4034  0.9146
    41 C(13)  Bbb    -0.0001    -0.017    -0.006    -0.006  0.5384  0.7650 -0.3534
              Bcc     0.0003     0.045     0.016     0.015  0.8422 -0.5021  0.1964
 
              Baa    -0.0002    -0.103    -0.037    -0.034  0.3569  0.6344  0.6857
    42 H(1)   Bbb    -0.0002    -0.088    -0.031    -0.029 -0.4064 -0.5555  0.7254
              Bcc     0.0004     0.192     0.068     0.064  0.8411 -0.5375  0.0596
 
              Baa    -0.0002    -0.098    -0.035    -0.033 -0.4231 -0.5473  0.7221
    43 H(1)   Bbb    -0.0001    -0.077    -0.027    -0.026  0.3214  0.6544  0.6844
              Bcc     0.0003     0.174     0.062     0.058  0.8471 -0.5217  0.1010
 
              Baa    -0.0002    -0.106    -0.038    -0.035  0.4714  0.8595 -0.1975
    44 H(1)   Bbb    -0.0002    -0.085    -0.030    -0.029  0.0247  0.2110  0.9772
              Bcc     0.0004     0.191     0.068     0.064  0.8816 -0.4655  0.0783
 

 ---------------------------------------------------------------------------------

 No NMR shielding tensors so no spin-rotation constants.
 Leave Link  601 at Tue Jan 26 19:03:51 2021, MaxMem=  4026531840 cpu:               5.9 elap:               0.8
 (Enter /opt/ohpc/pub/libs/gaussian/g16-A.03/sandybridge/g16/l9999.exe)

 Test job not archived.
 1\1\GINC-GNODE020\SP\ULC-wHPBE\TZVP\C19H21N2S2(2+,2)\RDU230\26-Jan-202
 1\0\\#P LC-wHPBE/TZVP iop(3/107=0175300000, 3/108=0175300000) scf=(con
 ver=6,fermi,ndamp=35,noincfock,novaracc,vshift=500,xqc)\\H21 C19 S2 N2
 \\2,2\C,0,5.141333,0.341453,-1.428653\C,0,4.24633,0.793113,-0.45792\S,
 0,3.527427,2.438238,-0.612926\C,0,3.85258,-0.085202,0.570411\C,0,0.863
 708,-0.787434,0.770822\C,0,1.152588,-1.949541,0.292605\C,0,5.641454,-0
 .963707,-1.38032\C,0,4.337968,-1.397272,0.611701\H,0,2.805747,-0.53668
 6,2.620663\C,0,-0.32759,-0.104924,0.757243\C,0,0.161049,-2.709273,-0.3
 36618\C,0,-1.110551,-2.125038,-0.416532\C,0,-1.366563,-0.836811,0.1161
 44\H,0,-0.506361,0.876389,1.203135\H,0,0.333628,-3.701573,-0.760587\H,
 0,-1.915541,-2.656529,-0.930176\C,0,5.242141,-1.827604,-0.363151\H,0,5
 .450891,1.02542,-2.21936\H,0,4.15948,2.9901,0.460876\H,0,6.34791,-1.29
 8886,-2.140548\H,0,4.022912,-2.077842,1.402557\H,0,5.625918,-2.84765,-
 0.32369\S,0,2.641644,0.489998,1.741439\C,0,-2.680648,-0.257498,0.00376
 4\C,0,-4.05427,-0.413992,-0.132503\C,0,-3.489875,0.870167,-0.052158\N,
 0,-5.09974,-1.211802,-0.243141\N,0,-3.607387,2.185094,-0.049886\C,0,-4
 .95887,-2.66296,-0.086881\H,0,-5.24939,-3.175063,-1.01565\H,0,-3.92190
 6,-2.911213,0.159186\H,0,-5.607057,-3.011636,0.730112\C,0,-6.456302,-0
 .708508,-0.463149\H,0,-6.932296,-1.289768,-1.265044\H,0,-7.06234,-0.80
 4638,0.450448\H,0,-6.424137,0.340187,-0.774131\C,0,-2.422516,3.047015,
 -0.104701\H,0,-2.374233,3.683098,0.791036\H,0,-1.518165,2.434104,-0.16
 8534\H,0,-2.472812,3.689712,-0.995626\C,0,-4.905946,2.85982,-0.071613\
 H,0,-4.903422,3.671788,0.668659\H,0,-5.109136,3.28812,-1.064906\H,0,-5
 .70105,2.156915,0.195603\\Version=EM64L-G16RevA.03\State=2-A\HF=-1640.
 9631575\S2=0.787565\S2-1=0.\S2A=0.750535\RMSD=8.232e-08\Dipole=-2.5057
 822,-0.4690625,0.5971157\Quadrupole=75.0450651,-22.7133987,-52.3316664
 ,-6.6213838,4.6815681,3.6913351\PG=C01 [X(C19H21N2S2)]\\@


 LIFE CAN ONLY BE UNDERSTOOD BACKWARD, BUT MUST
 BE LIVED FORWARD. -- KIRKEGAARD
 Job cpu time:       0 days  5 hours 34 minutes 20.3 seconds.
 Elapsed time:       0 days  0 hours 41 minutes 52.2 seconds.
 File lengths (MBytes):  RWF=    472 Int=      0 D2E=      0 Chk=     28 Scr=      8
 Normal termination of Gaussian 16 at Tue Jan 26 19:03:51 2021.
