 Entering Gaussian System, Link 0=g16
 Input=mol_ta_cp_half_tune_n7.gjf
 Output=mol_ta_cp_half_tune_n7.log
 Initial command:
 /opt/ohpc/pub/libs/gaussian/g16-A.03/sandybridge/g16/l1.exe "/mnt/gpfs2_4m/scratch/rdu230/ondemand/projects/init_structures/gaussian/wtuning/mol_ta_cp_half/tuning_mol_ta_cp_half_ocycle0/Gau-8849.inp" -scrdir="/mnt/gpfs2_4m/scratch/rdu230/ondemand/projects/init_structures/gaussian/wtuning/mol_ta_cp_half/tuning_mol_ta_cp_half_ocycle0/"
 Entering Link 1 = /opt/ohpc/pub/libs/gaussian/g16-A.03/sandybridge/g16/l1.exe PID=      8850.
  
 Copyright (c) 1988,1990,1992,1993,1995,1998,2003,2009,2016,
            Gaussian, Inc.  All Rights Reserved.
  
 This is part of the Gaussian(R) 16 program.  It is based on
 the Gaussian(R) 09 system (copyright 2009, Gaussian, Inc.),
 the Gaussian(R) 03 system (copyright 2003, Gaussian, Inc.),
 the Gaussian(R) 98 system (copyright 1998, Gaussian, Inc.),
 the Gaussian(R) 94 system (copyright 1995, Gaussian, Inc.),
 the Gaussian 92(TM) system (copyright 1992, Gaussian, Inc.),
 the Gaussian 90(TM) system (copyright 1990, Gaussian, Inc.),
 the Gaussian 88(TM) system (copyright 1988, Gaussian, Inc.),
 the Gaussian 86(TM) system (copyright 1986, Carnegie Mellon
 University), and the Gaussian 82(TM) system (copyright 1983,
 Carnegie Mellon University). Gaussian is a federally registered
 trademark of Gaussian, Inc.
  
 This software contains proprietary and confidential information,
 including trade secrets, belonging to Gaussian, Inc.
  
 This software is provided under written license and may be
 used, copied, transmitted, or stored only in accord with that
 written license.
  
 The following legend is applicable only to US Government
 contracts under FAR:
  
                    RESTRICTED RIGHTS LEGEND
  
 Use, reproduction and disclosure by the US Government is
 subject to restrictions as set forth in subparagraphs (a)
 and (c) of the Commercial Computer Software - Restricted
 Rights clause in FAR 52.227-19.
  
 Gaussian, Inc.
 340 Quinnipiac St., Bldg. 40, Wallingford CT 06492
  
  
 ---------------------------------------------------------------
 Warning -- This program may not be used in any manner that
 competes with the business of Gaussian, Inc. or will provide
 assistance to any competitor of Gaussian, Inc.  The licensee
 of this program is prohibited from giving any competitor of
 Gaussian, Inc. access to this program.  By using this program,
 the user acknowledges that Gaussian, Inc. is engaged in the
 business of creating and licensing software in the field of
 computational chemistry and represents and warrants to the
 licensee that it is not a competitor of Gaussian, Inc. and that
 it will not use this program in any manner prohibited above.
 ---------------------------------------------------------------
  

 Cite this work as:
 Gaussian 16, Revision A.03,
 M. J. Frisch, G. W. Trucks, H. B. Schlegel, G. E. Scuseria, 
 M. A. Robb, J. R. Cheeseman, G. Scalmani, V. Barone, 
 G. A. Petersson, H. Nakatsuji, X. Li, M. Caricato, A. V. Marenich, 
 J. Bloino, B. G. Janesko, R. Gomperts, B. Mennucci, H. P. Hratchian, 
 J. V. Ortiz, A. F. Izmaylov, J. L. Sonnenberg, D. Williams-Young, 
 F. Ding, F. Lipparini, F. Egidi, J. Goings, B. Peng, A. Petrone, 
 T. Henderson, D. Ranasinghe, V. G. Zakrzewski, J. Gao, N. Rega, 
 G. Zheng, W. Liang, M. Hada, M. Ehara, K. Toyota, R. Fukuda, 
 J. Hasegawa, M. Ishida, T. Nakajima, Y. Honda, O. Kitao, H. Nakai, 
 T. Vreven, K. Throssell, J. A. Montgomery, Jr., J. E. Peralta, 
 F. Ogliaro, M. J. Bearpark, J. J. Heyd, E. N. Brothers, K. N. Kudin, 
 V. N. Staroverov, T. A. Keith, R. Kobayashi, J. Normand, 
 K. Raghavachari, A. P. Rendell, J. C. Burant, S. S. Iyengar, 
 J. Tomasi, M. Cossi, J. M. Millam, M. Klene, C. Adamo, R. Cammi, 
 J. W. Ochterski, R. L. Martin, K. Morokuma, O. Farkas, 
 J. B. Foresman, and D. J. Fox, Gaussian, Inc., Wallingford CT, 2016.
 
 ******************************************
 Gaussian 16:  EM64L-G16RevA.03 25-Dec-2016
                26-Jan-2021 
 ******************************************
 %mem=30GB
 %nproc=8
 Will use up to    8 processors via shared memory.
 ----------------------------------------------------------------------
 #P LC-wHPBE/TZVP iop(3/107=0172100000, 3/108=0172100000) scf=(conver=6
 ,fermi,ndamp=35,noincfock,novaracc,vshift=500,xqc)
 ----------------------------------------------------------------------
 1/38=1,172=1/1;
 2/12=2,17=6,18=5,40=1/2;
 3/5=19,7=101,11=2,25=1,30=1,74=-71,107=172100000,108=172100000/1,2,3;
 4//1;
 5/5=100002,6=6,8=3,10=500,13=1,18=-1,22=13,38=1,93=35/2,8;
 6/7=2,8=2,9=2,10=2,28=1/1;
 99/5=1,9=1/99;
 Leave Link    1 at Tue Jan 26 20:50:49 2021, MaxMem=  4026531840 cpu:               1.6 elap:               0.2
 (Enter /opt/ohpc/pub/libs/gaussian/g16-A.03/sandybridge/g16/l101.exe)
 -------------
 H21 C19 S2 N2
 -------------
 Symbolic Z-matrix:
 Charge =  1 Multiplicity = 1
 C                     5.14133   0.34145  -1.42865 
 C                     4.24633   0.79311  -0.45792 
 S                     3.52743   2.43824  -0.61293 
 C                     3.85258  -0.0852    0.57041 
 C                     0.86371  -0.78743   0.77082 
 C                     1.15259  -1.94954   0.29261 
 C                     5.64145  -0.96371  -1.38032 
 C                     4.33797  -1.39727   0.6117 
 H                     2.80575  -0.53669   2.62066 
 C                    -0.32759  -0.10492   0.75724 
 C                     0.16105  -2.70927  -0.33662 
 C                    -1.11055  -2.12504  -0.41653 
 C                    -1.36656  -0.83681   0.11614 
 H                    -0.50636   0.87639   1.20314 
 H                     0.33363  -3.70157  -0.76059 
 H                    -1.91554  -2.65653  -0.93018 
 C                     5.24214  -1.8276   -0.36315 
 H                     5.45089   1.02542  -2.21936 
 H                     4.15948   2.9901    0.46088 
 H                     6.34791  -1.29889  -2.14055 
 H                     4.02291  -2.07784   1.40256 
 H                     5.62592  -2.84765  -0.32369 
 S                     2.64164   0.49      1.74144 
 C                    -2.68065  -0.2575    0.00376 
 C                    -4.05427  -0.41399  -0.1325 
 C                    -3.48988   0.87017  -0.05216 
 N                    -5.09974  -1.2118   -0.24314 
 N                    -3.60739   2.18509  -0.04989 
 C                    -4.95887  -2.66296  -0.08688 
 H                    -5.24939  -3.17506  -1.01565 
 H                    -3.92191  -2.91121   0.15919 
 H                    -5.60706  -3.01164   0.73011 
 C                    -6.4563   -0.70851  -0.46315 
 H                    -6.9323   -1.28977  -1.26504 
 H                    -7.06234  -0.80464   0.45045 
 H                    -6.42414   0.34019  -0.77413 
 C                    -2.42252   3.04702  -0.1047 
 H                    -2.37423   3.6831    0.79104 
 H                    -1.51817   2.4341   -0.16853 
 H                    -2.47281   3.68971  -0.99563 
 C                    -4.90595   2.85982  -0.07161 
 H                    -4.90342   3.67179   0.66866 
 H                    -5.10914   3.28812  -1.06491 
 H                    -5.70105   2.15692   0.1956 
 
 ITRead=  0  0  0  0  0  0  0  0  0  0  0  0  0  0  0  0  0  0  0  0
 ITRead=  0  0  0  0  0  0  0  0  0  0  0  0  0  0  0  0  0  0  0  0
 ITRead=  0  0  0  0
 MicOpt= -1 -1 -1 -1 -1 -1 -1 -1 -1 -1 -1 -1 -1 -1 -1 -1 -1 -1 -1 -1
 MicOpt= -1 -1 -1 -1 -1 -1 -1 -1 -1 -1 -1 -1 -1 -1 -1 -1 -1 -1 -1 -1
 MicOpt= -1 -1 -1 -1
 NAtoms=     44 NQM=       44 NQMF=       0 NMMI=      0 NMMIF=      0
                NMic=       0 NMicF=      0.
                    Isotopes and Nuclear Properties:
 (Nuclear quadrupole moments (NQMom) in fm**2, nuclear magnetic moments (NMagM)
  in nuclear magnetons)

  Atom         1           2           3           4           5           6           7           8           9          10
 IAtWgt=          12          12          32          12          12          12          12          12           1          12
 AtmWgt=  12.0000000  12.0000000  31.9720718  12.0000000  12.0000000  12.0000000  12.0000000  12.0000000   1.0078250  12.0000000
 NucSpn=           0           0           0           0           0           0           0           0           1           0
 AtZEff=  -0.0000000  -0.0000000  -0.0000000  -0.0000000  -0.0000000  -0.0000000  -0.0000000  -0.0000000  -0.0000000  -0.0000000
 NQMom=    0.0000000   0.0000000   0.0000000   0.0000000   0.0000000   0.0000000   0.0000000   0.0000000   0.0000000   0.0000000
 NMagM=    0.0000000   0.0000000   0.0000000   0.0000000   0.0000000   0.0000000   0.0000000   0.0000000   2.7928460   0.0000000
 AtZNuc=   6.0000000   6.0000000  16.0000000   6.0000000   6.0000000   6.0000000   6.0000000   6.0000000   1.0000000   6.0000000

  Atom        11          12          13          14          15          16          17          18          19          20
 IAtWgt=          12          12          12           1           1           1          12           1           1           1
 AtmWgt=  12.0000000  12.0000000  12.0000000   1.0078250   1.0078250   1.0078250  12.0000000   1.0078250   1.0078250   1.0078250
 NucSpn=           0           0           0           1           1           1           0           1           1           1
 AtZEff=  -0.0000000  -0.0000000  -0.0000000  -0.0000000  -0.0000000  -0.0000000  -0.0000000  -0.0000000  -0.0000000  -0.0000000
 NQMom=    0.0000000   0.0000000   0.0000000   0.0000000   0.0000000   0.0000000   0.0000000   0.0000000   0.0000000   0.0000000
 NMagM=    0.0000000   0.0000000   0.0000000   2.7928460   2.7928460   2.7928460   0.0000000   2.7928460   2.7928460   2.7928460
 AtZNuc=   6.0000000   6.0000000   6.0000000   1.0000000   1.0000000   1.0000000   6.0000000   1.0000000   1.0000000   1.0000000

  Atom        21          22          23          24          25          26          27          28          29          30
 IAtWgt=           1           1          32          12          12          12          14          14          12           1
 AtmWgt=   1.0078250   1.0078250  31.9720718  12.0000000  12.0000000  12.0000000  14.0030740  14.0030740  12.0000000   1.0078250
 NucSpn=           1           1           0           0           0           0           2           2           0           1
 AtZEff=  -0.0000000  -0.0000000  -0.0000000  -0.0000000  -0.0000000  -0.0000000  -0.0000000  -0.0000000  -0.0000000  -0.0000000
 NQMom=    0.0000000   0.0000000   0.0000000   0.0000000   0.0000000   0.0000000   2.0440000   2.0440000   0.0000000   0.0000000
 NMagM=    2.7928460   2.7928460   0.0000000   0.0000000   0.0000000   0.0000000   0.4037610   0.4037610   0.0000000   2.7928460
 AtZNuc=   1.0000000   1.0000000  16.0000000   6.0000000   6.0000000   6.0000000   7.0000000   7.0000000   6.0000000   1.0000000

  Atom        31          32          33          34          35          36          37          38          39          40
 IAtWgt=           1           1          12           1           1           1          12           1           1           1
 AtmWgt=   1.0078250   1.0078250  12.0000000   1.0078250   1.0078250   1.0078250  12.0000000   1.0078250   1.0078250   1.0078250
 NucSpn=           1           1           0           1           1           1           0           1           1           1
 AtZEff=  -0.0000000  -0.0000000  -0.0000000  -0.0000000  -0.0000000  -0.0000000  -0.0000000  -0.0000000  -0.0000000  -0.0000000
 NQMom=    0.0000000   0.0000000   0.0000000   0.0000000   0.0000000   0.0000000   0.0000000   0.0000000   0.0000000   0.0000000
 NMagM=    2.7928460   2.7928460   0.0000000   2.7928460   2.7928460   2.7928460   0.0000000   2.7928460   2.7928460   2.7928460
 AtZNuc=   1.0000000   1.0000000   6.0000000   1.0000000   1.0000000   1.0000000   6.0000000   1.0000000   1.0000000   1.0000000

  Atom        41          42          43          44
 IAtWgt=          12           1           1           1
 AtmWgt=  12.0000000   1.0078250   1.0078250   1.0078250
 NucSpn=           0           1           1           1
 AtZEff=  -0.0000000  -0.0000000  -0.0000000  -0.0000000
 NQMom=    0.0000000   0.0000000   0.0000000   0.0000000
 NMagM=    0.0000000   2.7928460   2.7928460   2.7928460
 AtZNuc=   6.0000000   1.0000000   1.0000000   1.0000000
 Leave Link  101 at Tue Jan 26 20:50:49 2021, MaxMem=  4026531840 cpu:               0.8 elap:               0.1
 (Enter /opt/ohpc/pub/libs/gaussian/g16-A.03/sandybridge/g16/l202.exe)
                          Input orientation:                          
 ---------------------------------------------------------------------
 Center     Atomic      Atomic             Coordinates (Angstroms)
 Number     Number       Type             X           Y           Z
 ---------------------------------------------------------------------
      1          6           0        5.141333    0.341453   -1.428653
      2          6           0        4.246330    0.793113   -0.457920
      3         16           0        3.527427    2.438238   -0.612926
      4          6           0        3.852580   -0.085202    0.570411
      5          6           0        0.863708   -0.787434    0.770822
      6          6           0        1.152588   -1.949541    0.292605
      7          6           0        5.641454   -0.963707   -1.380320
      8          6           0        4.337968   -1.397272    0.611701
      9          1           0        2.805747   -0.536686    2.620663
     10          6           0       -0.327590   -0.104924    0.757243
     11          6           0        0.161049   -2.709273   -0.336618
     12          6           0       -1.110551   -2.125038   -0.416532
     13          6           0       -1.366563   -0.836811    0.116144
     14          1           0       -0.506361    0.876389    1.203135
     15          1           0        0.333628   -3.701573   -0.760587
     16          1           0       -1.915541   -2.656529   -0.930176
     17          6           0        5.242141   -1.827604   -0.363151
     18          1           0        5.450891    1.025420   -2.219360
     19          1           0        4.159480    2.990100    0.460876
     20          1           0        6.347910   -1.298886   -2.140548
     21          1           0        4.022912   -2.077842    1.402557
     22          1           0        5.625918   -2.847650   -0.323690
     23         16           0        2.641644    0.489998    1.741439
     24          6           0       -2.680648   -0.257498    0.003764
     25          6           0       -4.054270   -0.413992   -0.132503
     26          6           0       -3.489875    0.870167   -0.052158
     27          7           0       -5.099740   -1.211802   -0.243141
     28          7           0       -3.607387    2.185094   -0.049886
     29          6           0       -4.958870   -2.662960   -0.086881
     30          1           0       -5.249390   -3.175063   -1.015650
     31          1           0       -3.921906   -2.911213    0.159186
     32          1           0       -5.607057   -3.011636    0.730112
     33          6           0       -6.456302   -0.708508   -0.463149
     34          1           0       -6.932296   -1.289768   -1.265044
     35          1           0       -7.062340   -0.804638    0.450448
     36          1           0       -6.424137    0.340187   -0.774131
     37          6           0       -2.422516    3.047015   -0.104701
     38          1           0       -2.374233    3.683098    0.791036
     39          1           0       -1.518165    2.434104   -0.168534
     40          1           0       -2.472812    3.689712   -0.995626
     41          6           0       -4.905946    2.859820   -0.071613
     42          1           0       -4.903422    3.671788    0.668659
     43          1           0       -5.109136    3.288120   -1.064906
     44          1           0       -5.701050    2.156915    0.195603
 ---------------------------------------------------------------------
                    Distance matrix (angstroms):
                    1          2          3          4          5
     1  C    0.000000
     2  C    1.395475   0.000000
     3  S    2.768864   1.802022   0.000000
     4  C    2.416439   1.408524   2.806022   0.000000
     5  C    4.940663   3.930657   4.406259   3.076792   0.000000
     6  C    4.911361   4.201985   5.070745   3.292855   1.289432
     7  C    1.398535   2.425615   4.078141   2.788762   5.242646
     8  C    2.798500   2.439318   4.107046   1.399584   3.530964
     9  H    4.756369   3.649838   4.452762   2.345897   2.693752
    10  C    5.906481   4.817036   4.817281   4.184390   1.373024
    11  C    5.941607   5.382466   6.156762   4.619075   2.326718
    12  C    6.796618   6.100286   6.509447   5.455974   2.663962
    13  C    6.791717   5.872884   5.933686   5.292516   2.324898
    14  H    6.253712   5.035287   4.691364   4.508366   2.198247
    15  H    6.317151   5.966829   6.922387   5.218498   3.334427
    16  H    7.683479   7.077550   7.462118   6.491125   3.756479
    17  C    2.418732   2.805134   4.604350   2.416275   4.640962
    18  H    1.090346   2.146533   2.876873   3.401603   5.768004
    19  H    3.398483   2.382956   1.362752   3.092518   5.022743
    20  H    2.157159   3.409448   4.924921   3.879304   6.230099
    21  H    3.888393   3.428363   4.970177   2.166124   3.470564
    22  H    3.409713   3.895695   5.694553   3.402244   5.302932
    23  S    4.039801   2.739357   3.181711   1.780036   2.394783
    24  C    7.974581   7.021393   6.796138   6.560019   3.664924
    25  C    9.317179   8.394222   8.114687   7.944839   5.014176
    26  C    8.756257   7.747222   7.212200   7.430476   4.730605
    27  N   10.425815   9.561111   9.374836   9.059532   6.063903
    28  N    9.046553   7.986550   7.161471   7.822411   5.431406
    29  C   10.622662   9.839605   9.915452   9.204266   6.177027
    30  H   10.977412  10.306609  10.426114   9.742109   6.801634
    31  H    9.759271   8.990157   9.203551   8.282396   5.271303
    32  H   11.464352  10.629053  10.721179   9.903245   6.842480
    33  C   11.685023  10.807462  10.468968  10.379297   7.423709
    34  H   12.184423  11.399628  11.123358  11.006063   8.073089
    35  H   12.400572  11.457048  11.126103  10.939262   7.932539
    36  H   11.583976  10.684755  10.171599  10.373026   7.534659
    37  C    8.141543   7.048287   6.002560   7.045807   5.125311
    38  H    8.519234   7.331013   6.192768   7.281618   5.519993
    39  H    7.093377   6.000500   5.065126   5.978114   4.115096
    40  H    8.329079   7.336640   6.141296   7.530806   5.856410
    41  C   10.446604   9.390669   8.461237   9.262674   6.877577
    42  H   10.788278   9.657842   8.616456   9.528494   7.290740
    43  H   10.671798   9.701455   8.690041   9.714212   7.460221
    44  H   11.112667  10.061681   9.268098   9.820357   7.217764
                    6          7          8          9         10
     6  C    0.000000
     7  C    4.890855   0.000000
     8  C    3.248610   2.419752   0.000000
     9  H    3.185741   4.922545   2.669127   0.000000
    10  C    2.410275   6.398138   4.843426   3.671043   0.000000
    11  C    1.398665   5.845610   4.479655   4.523281   2.866694
    12  C    2.378124   6.918609   5.592251   5.204306   2.464069
    13  C    2.759607   7.167134   5.753379   4.875537   1.423422
    14  H    3.401038   6.917790   5.383944   3.869913   1.092590
    15  H    2.202164   6.004415   4.819514   5.249832   3.959407
    16  H    3.377638   7.757348   6.562735   6.276365   3.446688
    17  C    4.143589   1.392983   1.397516   4.062712   5.936734
    18  H    5.799635   2.167240   3.888823   5.732607   6.597627
    19  H    5.785306   4.606391   4.393591   4.351493   5.459011
    20  H    5.773643   1.090583   3.409461   5.983059   7.374621
    21  H    3.080132   3.406667   1.089903   2.310938   4.820343
    22  H    4.604031   2.160081   2.153455   4.686484   6.643434
    23  S    3.204334   4.567001   2.777699   1.361633   3.184168
    24  C    4.200016   8.465920   7.136501   6.084952   2.475458
    25  C    5.445181   9.791134   8.482354   7.392889   3.843867
    26  C    5.442617   9.407884   8.176620   6.982697   3.406755
    27  N    6.318456  10.804072   9.478158   8.435276   4.999936
    28  N    6.314259   9.860328   8.740693   7.461113   4.080773
    29  C    6.164649  10.813293   9.408569   8.493592   5.357691
    30  H    6.648215  11.119063   9.885659   9.223288   6.065725
    31  H    5.166537   9.880319   8.409656   7.547090   4.599134
    32  H    6.856549  11.626562  10.075898   8.970777   6.026814
    33  C    7.746388  12.135157  10.869497   9.763451   6.278119
    34  H    8.259959  12.578505  11.425961  10.511676   7.008255
    35  H    8.295828  12.836019  11.416840  10.107461   6.777948
    36  H    7.986710  12.150971  10.989186   9.873413   6.301676
    37  C    6.156687   9.096192   8.122134   6.899656   3.881544
    38  H    6.664347   9.516240   8.419974   6.927215   4.305694
    39  H    5.153825   8.017087   7.041484   5.941500   2.953167
    40  H    6.826730   9.361817   8.651453   7.668323   4.698275
    41  C    7.743929  11.295119  10.199985   8.846175   5.517069
    42  H    8.271397  11.699596  10.540489   8.997381   5.933771
    43  H    8.275573  11.565150  10.677625   9.531943   6.139720
    44  H    7.990291  11.869044  10.657733   9.246729   5.857084
                   11         12         13         14         15
    11  C    0.000000
    12  C    1.401672   0.000000
    13  C    2.458598   1.417327   0.000000
    14  H    3.958945   3.463659   2.203758   0.000000
    15  H    1.092791   2.165523   3.444730   5.051685   0.000000
    16  H    2.160398   1.092850   2.169686   4.360999   2.485888
    17  C    5.157086   6.359875   6.699729   6.542943   5.269081
    18  H    6.743521   7.498540   7.443129   6.872011   7.117504
    19  H    7.007589   7.396466   6.730620   5.175789   7.804332
    20  H    6.597015   7.699571   8.051041   7.930515   6.621842
    21  H    4.282221   5.446444   5.678156   5.411244   4.574550
    22  H    5.466636   6.775751   7.289151   7.335156   5.378513
    23  S    4.550495   5.057096   4.524127   3.216987   5.399661
    24  C    3.768594   2.475795   1.440504   2.729783   4.640231
    25  C    4.804050   3.416699   2.732100   4.004581   5.518725
    26  C    5.120796   3.842552   2.729570   3.236843   6.001821
    27  N    5.470563   4.096058   3.769126   5.248941   5.999016
    28  N    6.183701   4.994583   3.765736   3.591536   7.119659
    29  C    5.126215   3.899691   4.034936   5.832321   5.435359
    30  H    5.472741   4.311784   4.671694   6.620694   5.613587
    31  H    4.117903   2.975439   3.291622   5.205930   4.424954
    32  H    5.873703   4.724343   4.805061   6.430987   6.163598
    33  C    6.914362   5.530442   5.124206   6.378887   7.426308
    34  H    7.293320   5.942252   5.752411   7.216425   7.672349
    35  H    7.511621   6.157833   5.705670   6.809791   8.034873
    36  H    7.270165   5.868510   5.268488   6.262361   7.874223
    37  C    6.313750   5.344962   4.030870   3.177059   7.319150
    38  H    6.968620   6.065440   4.679792   3.396526   8.017070
    39  H    5.413163   4.584041   3.286778   2.309047   6.436319
    40  H    6.951153   6.000202   4.790535   4.076305   7.909642
    41  C    7.533888   6.274775   5.121286   4.991526   8.424945
    42  H    8.208373   7.011897   5.756918   5.237754   9.156194
    43  H    8.017105   6.761017   5.693574   5.669744   8.864090
    44  H    7.637228   6.307338   5.268443   5.444232   8.464840
                   16         17         18         19         20
    16  H    0.000000
    17  C    7.227797   0.000000
    18  H    8.335650   3.410108   0.000000
    19  H    8.409835   5.006141   3.565302   0.000000
    20  H    8.461254   2.159029   2.492640   5.472845   0.000000
    21  H    6.406383   2.160292   4.978719   5.156496   4.308826
    22  H    7.568220   1.090567   4.315654   6.070034   2.494176
    23  S    6.148666   4.069787   4.885333   3.192832   5.657414
    24  C    2.685700   8.085199   8.527021   7.585723   9.337956
    25  C    3.199909   9.406102   9.837427   8.910984  10.631116
    26  C    3.960685   9.144550   9.200987   7.954241  10.288254
    27  N    3.563478  10.360894  10.964781  10.192388  11.604156
    28  N    5.203707   9.721832   9.386366   7.825160  10.752531
    29  C    3.158012  10.238885  11.247877  10.742506  11.572447
    30  H    3.375016  10.597812  11.558070  11.345316  11.801814
    31  H    2.297188   9.242662  10.440493  10.011259  10.646948
    32  H    4.063243  10.968238  12.135708  11.466410  12.413518
    33  C    4.963004  11.752274  12.160264  11.279555  12.927106
    34  H    5.210375  12.219640  12.633849  12.013474  13.309037
    35  H    5.641380  12.373708  12.925089  11.846071  13.667200
    36  H    5.415911  11.873090  11.982259  10.979992  12.949086
    37  C    5.785227   9.087116   8.399355   6.606496   9.997595
    38  H    6.585123   9.471491   8.795357   6.578652  10.463753
    39  H    5.162611   7.993858   7.399866   5.739420   8.927440
    40  H    6.370998   9.505856   8.448730   6.826284  10.198142
    41  C    6.333227  11.182156  10.735079   9.081986  12.174753
    42  H    7.178531  11.586216  11.070488   9.090878  12.617120
    43  H    6.749522  11.567715  10.861250   9.398089  12.387959
    44  H    6.226291  11.659418  11.466391   9.899223  12.750592
                   21         22         23         24         25
    21  H    0.000000
    22  H    2.478338   0.000000
    23  S    2.935395   4.930572   0.000000
    24  C    7.085760   8.707190   5.648456   0.000000
    25  C    8.388425   9.983250   7.011713   1.389207   0.000000
    26  C    8.200544   9.848532   6.399769   1.389102   1.405013
    27  N    9.310270  10.849987   8.170906   2.612214   1.319753
    28  N    8.860230  10.519382   6.718079   2.613040   2.638518
    29  C    9.123223  10.589047   8.429218   3.314326   2.424508
    30  H    9.645061  10.902217   9.127027   4.018685   3.135566
    31  H    8.084591   9.560238   7.559891   2.933783   2.517681
    32  H    9.698477  11.283489   9.018054   4.083715   3.146904
    33  C   10.731722  12.270918   9.437650   3.831055   2.442504
    34  H   11.302820  12.689440  10.191508   4.555433   3.214447
    35  H   11.198677  12.874979   9.874717   4.438256   3.088838
    36  H   10.941922  12.472731   9.409512   3.869891   2.568412
    37  C    8.371352   9.978593   5.965927   3.316354   3.826482
    38  H    8.630519  10.387285   6.021476   4.030135   4.523449
    39  H    7.316387   8.885883   4.973083   2.936967   3.813762
    40  H    9.011681  10.429671   6.624753   4.077063   4.481783
    41  C   10.309131  11.981607   8.115992   3.830836   3.383327
    42  H   10.643133  12.423962   8.258491   4.563124   4.249296
    43  H   10.875487  12.387028   8.705151   4.428433   3.960777
    44  H   10.674518  12.394174   8.646893   3.871566   3.070684
                   26         27         28         29         30
    26  C    0.000000
    27  N    2.638699   0.000000
    28  N    1.320169   3.715288   0.000000
    29  C    3.826505   1.466329   5.033041   0.000000
    30  H    4.515318   2.115079   5.688599   1.099665   0.000000
    31  H    3.811844   2.106456   5.110282   1.094291   1.792225
    32  H    4.490301   2.108078   5.622551   1.099636   1.789502
    33  C    3.385383   1.463547   4.081671   2.490735   2.801033
    34  H    4.241070   2.099673   4.960473   2.677337   2.539430
    35  H    3.977448   2.121001   4.596252   2.857738   3.324928
    36  H    3.067901   2.108233   3.444168   3.411482   3.714208
    37  C    2.425012   5.032317   1.466230   6.247978   6.894585
    38  H    3.141371   5.697188   2.114671   6.908223   7.652778
    39  H    2.519342   5.111348   2.107352   6.150218   6.789875
    40  H    3.142353   5.611758   2.108450   6.882060   7.405061
    41  C    2.442203   4.079839   1.463551   5.523055   6.117922
    42  H    3.219747   4.971858   2.099112   6.379886   7.059459
    43  H    3.081260   4.574351   2.121835   6.032783   6.464892
    44  H    2.570292   3.449975   2.108194   4.884857   5.486449
                   31         32         33         34         35
    31  H    0.000000
    32  H    1.782070   0.000000
    33  C    3.415022   2.729375   0.000000
    34  H    3.704047   2.949870   1.098849   0.000000
    35  H    3.792732   2.658364   1.100537   1.787505   0.000000
    36  H    4.207593   3.763653   1.094306   1.776506   1.793745
    37  C    6.149658   6.895322   5.523031   6.363348   6.055691
    38  H    6.802901   7.434671   6.125559   7.052149   6.498778
    39  H    5.870075   6.868965   5.860717   6.662010   6.450617
    40  H    6.856068   7.596692   5.957857   6.689903   6.584381
    41  C    5.858876   5.967270   3.910226   4.769639   4.283787
    42  H    6.675241   6.720642   4.783244   5.698471   4.974629
    43  H    6.429591   6.569394   4.260282   4.931635   4.781419
    44  H    5.371462   5.196966   3.035623   3.940695   3.269381
                   36         37         38         39         40
    36  H    0.000000
    37  C    4.877297   0.000000
    38  H    5.479646   1.099672   0.000000
    39  H    5.368407   1.094342   1.792655   0.000000
    40  H    5.184722   1.099698   1.789392   1.781006   0.000000
    41  C    3.024398   2.490695   2.798485   3.415800   2.731787
    42  H    3.936214   2.672699   2.532173   3.700367   2.945850
    43  H    3.241001   2.863224   3.328697   3.798407   2.667636
    44  H    2.182599   3.410461   3.708300   4.207845   3.766963
                   41         42         43         44
    41  C    0.000000
    42  H    1.098773   0.000000
    43  H    1.100617   1.787391   0.000000
    44  H    1.094381   1.776185   1.794121   0.000000
 Stoichiometry    C19H21N2S2(1+)
 Framework group  C1[X(C19H21N2S2)]
 Deg. of freedom   126
 Full point group                 C1      NOp   1
 Largest Abelian subgroup         C1      NOp   1
 Largest concise Abelian subgroup C1      NOp   1
                         Standard orientation:                         
 ---------------------------------------------------------------------
 Center     Atomic      Atomic             Coordinates (Angstroms)
 Number     Number       Type             X           Y           Z
 ---------------------------------------------------------------------
      1          6           0        5.141333    0.341453   -1.428653
      2          6           0        4.246330    0.793113   -0.457920
      3         16           0        3.527427    2.438238   -0.612926
      4          6           0        3.852580   -0.085202    0.570411
      5          6           0        0.863708   -0.787434    0.770822
      6          6           0        1.152588   -1.949541    0.292605
      7          6           0        5.641454   -0.963707   -1.380320
      8          6           0        4.337968   -1.397272    0.611701
      9          1           0        2.805747   -0.536686    2.620663
     10          6           0       -0.327590   -0.104924    0.757243
     11          6           0        0.161049   -2.709273   -0.336618
     12          6           0       -1.110551   -2.125038   -0.416532
     13          6           0       -1.366563   -0.836811    0.116144
     14          1           0       -0.506361    0.876389    1.203135
     15          1           0        0.333628   -3.701573   -0.760587
     16          1           0       -1.915541   -2.656529   -0.930176
     17          6           0        5.242141   -1.827604   -0.363151
     18          1           0        5.450891    1.025420   -2.219360
     19          1           0        4.159480    2.990100    0.460876
     20          1           0        6.347910   -1.298886   -2.140548
     21          1           0        4.022912   -2.077842    1.402557
     22          1           0        5.625918   -2.847650   -0.323690
     23         16           0        2.641644    0.489998    1.741439
     24          6           0       -2.680648   -0.257498    0.003764
     25          6           0       -4.054270   -0.413992   -0.132503
     26          6           0       -3.489875    0.870167   -0.052158
     27          7           0       -5.099740   -1.211802   -0.243141
     28          7           0       -3.607387    2.185094   -0.049886
     29          6           0       -4.958870   -2.662960   -0.086881
     30          1           0       -5.249390   -3.175063   -1.015650
     31          1           0       -3.921906   -2.911213    0.159186
     32          1           0       -5.607057   -3.011636    0.730112
     33          6           0       -6.456302   -0.708508   -0.463149
     34          1           0       -6.932296   -1.289768   -1.265044
     35          1           0       -7.062340   -0.804638    0.450448
     36          1           0       -6.424137    0.340187   -0.774131
     37          6           0       -2.422516    3.047015   -0.104701
     38          1           0       -2.374233    3.683098    0.791036
     39          1           0       -1.518165    2.434104   -0.168534
     40          1           0       -2.472812    3.689712   -0.995626
     41          6           0       -4.905946    2.859820   -0.071613
     42          1           0       -4.903422    3.671788    0.668659
     43          1           0       -5.109136    3.288120   -1.064906
     44          1           0       -5.701050    2.156915    0.195603
 ---------------------------------------------------------------------
 Rotational constants (GHZ):           0.4060159           0.0982633           0.0849802
 Leave Link  202 at Tue Jan 26 20:50:49 2021, MaxMem=  4026531840 cpu:               0.1 elap:               0.0
 (Enter /opt/ohpc/pub/libs/gaussian/g16-A.03/sandybridge/g16/l301.exe)
 Standard basis: TZVP (5D, 7F)
 Ernie: Thresh=  0.10000D-02 Tol=  0.10000D-05 Strict=F.
 There are   592 symmetry adapted cartesian basis functions of A   symmetry.
 There are   569 symmetry adapted basis functions of A   symmetry.
   569 basis functions,   997 primitive gaussians,   592 cartesian basis functions
    90 alpha electrons       90 beta electrons
       nuclear repulsion energy      2022.4848436690 Hartrees.
 IExCor=33909 DFT=T Ex+Corr=LC-wHPBE ExCW=0 ScaHFX=  1.000000
 ScaDFX=  1.000000  1.000000  1.000000  1.000000 ScalE2=  1.000000  1.000000
 IRadAn=      5 IRanWt=     -1 IRanGd=            0 ICorTp=0 IEmpDi=  4
 HFx  wShort=  0.000000 wLong=  0.172100 cFull=  0.000000 cShort=  0.000000 cLong=  1.000000
 DFx  wShort=  0.000000 wLong=  0.172100 cFull=  0.000000 cShort=  1.000000 cLong=  0.000000
 NAtoms=   44 NActive=   44 NUniq=   44 SFac= 1.00D+00 NAtFMM=   60 NAOKFM=F Big=F
 Integral buffers will be    131072 words long.
 Raffenetti 2 integral format.
 Two-electron integral symmetry is turned on.
 Leave Link  301 at Tue Jan 26 20:50:49 2021, MaxMem=  4026531840 cpu:               0.5 elap:               0.1
 (Enter /opt/ohpc/pub/libs/gaussian/g16-A.03/sandybridge/g16/l302.exe)
 NPDir=0 NMtPBC=     1 NCelOv=     1 NCel=       1 NClECP=     1 NCelD=      1
         NCelK=      1 NCelE2=     1 NClLst=     1 CellRange=     0.0.
 One-electron integrals computed using PRISM.
 One-electron integral symmetry used in STVInt
 NBasis=   569 RedAO= T EigKep=  9.00D-06  NBF=   569
 NBsUse=   569 1.00D-06 EigRej= -1.00D+00 NBFU=   569
 Precomputing XC quadrature grid using
 IXCGrd= 4 IRadAn=           5 IRanWt=          -1 IRanGd=           0 AccXCQ= 0.00D+00.
 Generated NRdTot=       0 NPtTot=           0 NUsed=           0 NTot=          32
 NSgBfM=   570   570   570   570   570 MxSgAt=    44 MxSgA2=    44.
 Leave Link  302 at Tue Jan 26 20:50:50 2021, MaxMem=  4026531840 cpu:               9.3 elap:               1.2
 (Enter /opt/ohpc/pub/libs/gaussian/g16-A.03/sandybridge/g16/l303.exe)
 DipDrv:  MaxL=1.
 Leave Link  303 at Tue Jan 26 20:50:50 2021, MaxMem=  4026531840 cpu:               0.9 elap:               0.1
 (Enter /opt/ohpc/pub/libs/gaussian/g16-A.03/sandybridge/g16/l401.exe)
 ExpMin= 9.52D-02 ExpMax= 6.07D+04 ExpMxC= 2.07D+03 IAcc=3 IRadAn=         5 AccDes= 0.00D+00
 Harris functional with IExCor=33909 and IRadAn=       5 diagonalized for initial guess.
 HarFok:  IExCor=33909 AccDes= 0.00D+00 IRadAn=         5 IDoV= 1 UseB2=F ITyADJ=14
 ICtDFT=  3500011 ScaDFX=  1.000000  1.000000  1.000000  1.000000
 FoFCou: FMM=F IPFlag=           0 FMFlag=      100000 FMFlg1=           0
         NFxFlg=           0 DoJE=T BraDBF=F KetDBF=T FulRan=T
         wScrn=  0.000000 ICntrl=       500 IOpCl=  0 I1Cent=   200000004 NGrid=           0
         NMat0=    1 NMatS0=      1 NMatT0=    0 NMatD0=    1 NMtDS0=    0 NMtDT0=    0
 Petite list used in FoFCou.
 Harris En= -1624.60908265671    
 JPrj=0 DoOrth=F DoCkMO=F.
 Leave Link  401 at Tue Jan 26 20:50:57 2021, MaxMem=  4026531840 cpu:              52.0 elap:               6.5
 (Enter /opt/ohpc/pub/libs/gaussian/g16-A.03/sandybridge/g16/l502.exe)
 Integral symmetry usage will be decided dynamically.
 Closed shell SCF:
 Using DIIS extrapolation, IDIIS=    10.
 NGot=  4026531840 LenX=  4025820226 LenY=  4025469170
 Requested convergence on RMS density matrix=1.00D-06 within  32 cycles.
 Requested convergence on MAX density matrix=1.00D-04.
 Requested convergence on             energy=1.00D-04.
 Virtual orbitals will be shifted by   0.500 hartree.
 No special actions if energy rises.
 Dynamic level shift is on during FON iterations.

 Cycle   1  Pass 1  IDiag  1:
 FoFJK:  IHMeth= 1 ICntrl=       0 DoSepK=T KAlg= 0 I1Cent=           0 FoldK=F
 IRaf=         1 NMat=       1 IRICut=       1 DoRegI=T DoRafI=F ISym2E= 0 IDoP0=0 IntGTp=1.
 FoFCou: FMM=F IPFlag=           0 FMFlag=      100000 FMFlg1=           0
         NFxFlg=           0 DoJE=T BraDBF=F KetDBF=F FulRan=T
         wScrn=  0.000000 ICntrl=       500 IOpCl=  0 I1Cent=           0 NGrid=           0
         NMat0=    1 NMatS0=      1 NMatT0=    0 NMatD0=    1 NMtDS0=    0 NMtDT0=    0
 Symmetry not used in FoFCou.
 E= -1640.79890245226    
 DIIS: error= 2.90D-02 at cycle   1 NSaved=   1.
 NSaved= 1 IEnMin= 1 EnMin= -1640.79890245226     IErMin= 1 ErrMin= 2.90D-02
 ErrMax= 2.90D-02  0.00D+00 EMaxC= 1.00D+00 BMatC= 4.88D-01 BMatP= 4.88D-01
 IDIUse=1 WtCom= 1.00D+00 WtEn= 0.00D+00
 Coeff-Com:  0.100D+01
 Coeff:      0.100D+01
 Gap=     0.407 Goal=   None    Shift=    0.500
 T= 1476. Gap= 0.511 NK=0 IS=   91 IE=  569 IFin=   90
          NO(<0.9)=   0  NV(>0.1)=   0     90.00e < EF      0.00e >EF  Err=0.0D+00
 GapD=    0.407 DampG=2.000 DampE=0.500 DampFc=1.0000 IDamp=-1.
 RMSDP=4.04D-03 MaxDP=2.43D-01              OVMax= 1.64D-01

 Cycle   2  Pass 1  IDiag  1:
 E= -1641.24266033357     Delta-E=       -0.443757881310 Rises=F Damp=F
 DIIS: error= 7.52D-03 at cycle   2 NSaved=   2.
 NSaved= 2 IEnMin= 2 EnMin= -1641.24266033357     IErMin= 2 ErrMin= 7.52D-03
 ErrMax= 7.52D-03  0.00D+00 EMaxC= 1.00D+00 BMatC= 8.16D-02 BMatP= 4.88D-01
 IDIUse=1 WtCom= 1.00D+00 WtEn= 0.00D+00
 Coeff-Com:  0.265D+00 0.735D+00
 Coeff:      0.265D+00 0.735D+00
 Gap=     0.305 Goal=   None    Shift=    0.500
 T= 1306. Gap= 0.731 NK=0 IS=   91 IE=  569 IFin=   90
          NO(<0.9)=   0  NV(>0.1)=   0     90.00e < EF      0.00e >EF  Err=0.0D+00
 GapD=    0.305 DampG=1.000 DampE=1.000 DampFc=1.0000 IDamp=-1.
 RMSDP=1.09D-03 MaxDP=7.94D-02 DE=-4.44D-01 OVMax= 2.39D-02

 Cycle   3  Pass 1  IDiag  1:
 E= -1641.30052048366     Delta-E=       -0.057860150085 Rises=F Damp=F
 DIIS: error= 2.71D-03 at cycle   3 NSaved=   3.
 NSaved= 3 IEnMin= 3 EnMin= -1641.30052048366     IErMin= 3 ErrMin= 2.71D-03
 ErrMax= 2.71D-03  0.00D+00 EMaxC= 1.00D+00 BMatC= 8.64D-03 BMatP= 8.16D-02
 IDIUse=1 WtCom= 1.00D+00 WtEn= 0.00D+00
 Coeff-Com:  0.881D-01-0.784D-01 0.990D+00
 Coeff:      0.881D-01-0.784D-01 0.990D+00
 Gap=     0.229 Goal=   None    Shift=    0.500
 T=  998. Gap= 0.728 NK=0 IS=   91 IE=  569 IFin=   90
          NO(<0.9)=   0  NV(>0.1)=   0     90.00e < EF      0.00e >EF  Err=0.0D+00
 GapD=    0.229 DampG=1.000 DampE=1.000 DampFc=1.0000 IDamp=-1.
 RMSDP=7.23D-04 MaxDP=5.92D-02 DE=-5.79D-02 OVMax= 1.43D-02

 Cycle   4  Pass 1  IDiag  1:
 E= -1641.30922972950     Delta-E=       -0.008709245844 Rises=F Damp=F
 DIIS: error= 1.62D-03 at cycle   4 NSaved=   4.
 NSaved= 4 IEnMin= 4 EnMin= -1641.30922972950     IErMin= 4 ErrMin= 1.62D-03
 ErrMax= 1.62D-03  0.00D+00 EMaxC= 1.00D+00 BMatC= 1.31D-03 BMatP= 8.64D-03
 IDIUse=1 WtCom= 1.00D+00 WtEn= 0.00D+00
 Coeff-Com:  0.153D-01-0.726D-01-0.358D-01 0.109D+01
 Coeff:      0.153D-01-0.726D-01-0.358D-01 0.109D+01
 Gap=     0.233 Goal=   None    Shift=    0.500
 T=  280. Gap= 0.733 NK=0 IS=   91 IE=  569 IFin=   90
          NO(<0.9)=   0  NV(>0.1)=   0     90.00e < EF      0.00e >EF  Err=0.0D+00
 GapD=    0.233 DampG=1.000 DampE=1.000 DampFc=1.0000 IDamp=-1.
 RMSDP=4.05D-04 MaxDP=3.12D-02 DE=-8.71D-03 OVMax= 8.63D-03

 Cycle   5  Pass 1  IDiag  1:
 E= -1641.31106502689     Delta-E=       -0.001835297382 Rises=F Damp=F
 DIIS: error= 1.44D-03 at cycle   5 NSaved=   5.
 NSaved= 5 IEnMin= 5 EnMin= -1641.31106502689     IErMin= 5 ErrMin= 1.44D-03
 ErrMax= 1.44D-03  0.00D+00 EMaxC= 1.00D+00 BMatC= 2.15D-04 BMatP= 1.31D-03
 IDIUse=1 WtCom= 1.00D+00 WtEn= 0.00D+00
 Coeff-Com: -0.629D-02-0.762D-03-0.179D+00 0.478D-01 0.114D+01
 Coeff:     -0.629D-02-0.762D-03-0.179D+00 0.478D-01 0.114D+01
 Gap=     0.233 Goal=   None    Shift=    0.500
 GapD=    0.233 DampG=1.000 DampE=1.000 DampFc=1.0000 IDamp=-1.
 RMSDP=2.27D-04 MaxDP=1.53D-02 DE=-1.84D-03 OVMax= 7.79D-03

 Cycle   6  Pass 1  IDiag  1:
 E= -1641.31161870568     Delta-E=       -0.000553678793 Rises=F Damp=F
 DIIS: error= 1.10D-03 at cycle   6 NSaved=   6.
 NSaved= 6 IEnMin= 6 EnMin= -1641.31161870568     IErMin= 6 ErrMin= 1.10D-03
 ErrMax= 1.10D-03  0.00D+00 EMaxC= 1.00D+00 BMatC= 6.30D-05 BMatP= 2.15D-04
 IDIUse=1 WtCom= 1.00D+00 WtEn= 0.00D+00
 Coeff-Com: -0.653D-02 0.121D-01-0.463D-02-0.295D+00-0.300D+00 0.159D+01
 Coeff:     -0.653D-02 0.121D-01-0.463D-02-0.295D+00-0.300D+00 0.159D+01
 Gap=     0.233 Goal=   None    Shift=    0.500
 GapD=    0.233 DampG=1.000 DampE=1.000 DampFc=1.0000 IDamp=-1.
 RMSDP=1.40D-04 MaxDP=9.31D-03 DE=-5.54D-04 OVMax= 6.57D-03

 Cycle   7  Pass 1  IDiag  1:
 E= -1641.31187520873     Delta-E=       -0.000256503051 Rises=F Damp=F
 DIIS: error= 8.12D-04 at cycle   7 NSaved=   7.
 NSaved= 7 IEnMin= 7 EnMin= -1641.31187520873     IErMin= 7 ErrMin= 8.12D-04
 ErrMax= 8.12D-04  0.00D+00 EMaxC= 1.00D+00 BMatC= 2.68D-05 BMatP= 6.30D-05
 IDIUse=1 WtCom= 1.00D+00 WtEn= 0.00D+00
 Coeff-Com: -0.319D-02 0.310D-02 0.426D-01-0.156D+00-0.442D+00 0.301D+00
 Coeff-Com:  0.125D+01
 Coeff:     -0.319D-02 0.310D-02 0.426D-01-0.156D+00-0.442D+00 0.301D+00
 Coeff:      0.125D+01
 Gap=     0.234 Goal=   None    Shift=    0.500
 RMSDP=7.42D-05 MaxDP=4.15D-03 DE=-2.57D-04 OVMax= 4.62D-03

 Cycle   8  Pass 1  IDiag  1:
 E= -1641.31199769081     Delta-E=       -0.000122482079 Rises=F Damp=F
 DIIS: error= 5.60D-04 at cycle   8 NSaved=   8.
 NSaved= 8 IEnMin= 8 EnMin= -1641.31199769081     IErMin= 8 ErrMin= 5.60D-04
 ErrMax= 5.60D-04  0.00D+00 EMaxC= 1.00D+00 BMatC= 1.11D-05 BMatP= 2.68D-05
 IDIUse=1 WtCom= 1.00D+00 WtEn= 0.00D+00
 Coeff-Com:  0.702D-03-0.439D-02 0.201D-01 0.904D-01-0.114D+00-0.718D+00
 Coeff-Com: -0.377D-01 0.176D+01
 Coeff:      0.702D-03-0.439D-02 0.201D-01 0.904D-01-0.114D+00-0.718D+00
 Coeff:     -0.377D-01 0.176D+01
 Gap=     0.234 Goal=   None    Shift=    0.500
 RMSDP=4.59D-05 MaxDP=2.28D-03 DE=-1.22D-04 OVMax= 3.74D-03

 Cycle   9  Pass 1  IDiag  1:
 E= -1641.31205815415     Delta-E=       -0.000060463342 Rises=F Damp=F
 DIIS: error= 4.07D-04 at cycle   9 NSaved=   9.
 NSaved= 9 IEnMin= 9 EnMin= -1641.31205815415     IErMin= 9 ErrMin= 4.07D-04
 ErrMax= 4.07D-04  0.00D+00 EMaxC= 1.00D+00 BMatC= 5.39D-06 BMatP= 1.11D-05
 IDIUse=1 WtCom= 1.00D+00 WtEn= 0.00D+00
 Coeff-Com:  0.113D-02-0.255D-02-0.712D-02 0.132D+00 0.556D-01-0.581D+00
 Coeff-Com: -0.448D+00 0.507D+00 0.134D+01
 Coeff:      0.113D-02-0.255D-02-0.712D-02 0.132D+00 0.556D-01-0.581D+00
 Coeff:     -0.448D+00 0.507D+00 0.134D+01
 Gap=     0.234 Goal=   None    Shift=    0.500
 RMSDP=2.60D-05 MaxDP=1.18D-03 DE=-6.05D-05 OVMax= 2.63D-03

 Cycle  10  Pass 1  IDiag  1:
 E= -1641.31208630160     Delta-E=       -0.000028147452 Rises=F Damp=F
 DIIS: error= 2.67D-04 at cycle  10 NSaved=  10.
 NSaved=10 IEnMin=10 EnMin= -1641.31208630160     IErMin=10 ErrMin= 2.67D-04
 ErrMax= 2.67D-04  0.00D+00 EMaxC= 1.00D+00 BMatC= 2.43D-06 BMatP= 5.39D-06
 IDIUse=1 WtCom= 1.00D+00 WtEn= 0.00D+00
 Coeff-Com: -0.150D-03 0.965D-03-0.935D-02 0.249D-01 0.218D-01 0.956D-01
 Coeff-Com: -0.165D+00-0.507D+00-0.761D+00 0.230D+01
 Coeff:     -0.150D-03 0.965D-03-0.935D-02 0.249D-01 0.218D-01 0.956D-01
 Coeff:     -0.165D+00-0.507D+00-0.761D+00 0.230D+01
 Gap=     0.234 Goal=   None    Shift=    0.500
 RMSDP=1.63D-05 MaxDP=8.26D-04 DE=-2.81D-05 OVMax= 1.90D-03

 Cycle  11  Pass 1  IDiag  1:
 E= -1641.31209905201     Delta-E=       -0.000012750407 Rises=F Damp=F
 DIIS: error= 1.82D-04 at cycle  11 NSaved=  11.
 NSaved=11 IEnMin=11 EnMin= -1641.31209905201     IErMin=11 ErrMin= 1.82D-04
 ErrMax= 1.82D-04  0.00D+00 EMaxC= 1.00D+00 BMatC= 1.27D-06 BMatP= 2.43D-06
 IDIUse=1 WtCom= 1.00D+00 WtEn= 0.00D+00
 Coeff-Com: -0.439D-03 0.116D-02-0.104D-02-0.170D-01-0.240D-01 0.231D+00
 Coeff-Com:  0.380D-01-0.421D+00-0.111D+01 0.922D+00 0.138D+01
 Coeff:     -0.439D-03 0.116D-02-0.104D-02-0.170D-01-0.240D-01 0.231D+00
 Coeff:      0.380D-01-0.421D+00-0.111D+01 0.922D+00 0.138D+01
 Gap=     0.235 Goal=   None    Shift=    0.500
 RMSDP=9.79D-06 MaxDP=4.39D-04 DE=-1.28D-05 OVMax= 1.28D-03

 Cycle  12  Pass 1  IDiag  1:
 E= -1641.31210476266     Delta-E=       -0.000005710649 Rises=F Damp=F
 DIIS: error= 1.18D-04 at cycle  12 NSaved=  12.
 NSaved=12 IEnMin=12 EnMin= -1641.31210476266     IErMin=12 ErrMin= 1.18D-04
 ErrMax= 1.18D-04  0.00D+00 EMaxC= 1.00D+00 BMatC= 5.93D-07 BMatP= 1.27D-06
 IDIUse=1 WtCom= 1.00D+00 WtEn= 0.00D+00
 Coeff-Com: -0.149D-03 0.174D-03 0.301D-02-0.615D-02-0.216D-01 0.250D-01
 Coeff-Com:  0.721D-01 0.112D+00-0.235D+00-0.594D+00-0.709D+00 0.235D+01
 Coeff:     -0.149D-03 0.174D-03 0.301D-02-0.615D-02-0.216D-01 0.250D-01
 Coeff:      0.721D-01 0.112D+00-0.235D+00-0.594D+00-0.709D+00 0.235D+01
 Gap=     0.235 Goal=   None    Shift=    0.500
 RMSDP=6.26D-06 MaxDP=2.65D-04 DE=-5.71D-06 OVMax= 8.59D-04

 Cycle  13  Pass 1  IDiag  1:
 E= -1641.31210719291     Delta-E=       -0.000002430254 Rises=F Damp=F
 DIIS: error= 7.79D-05 at cycle  13 NSaved=  13.
 NSaved=13 IEnMin=13 EnMin= -1641.31210719291     IErMin=13 ErrMin= 7.79D-05
 ErrMax= 7.79D-05  0.00D+00 EMaxC= 1.00D+00 BMatC= 3.35D-07 BMatP= 5.93D-07
 IDIUse=1 WtCom= 1.00D+00 WtEn= 0.00D+00
 Coeff-Com: -0.143D-04-0.438D-04 0.192D-02 0.389D-02-0.136D-01-0.453D-01
 Coeff-Com:  0.521D-01 0.213D+00 0.908D-01-0.710D+00-0.108D+01 0.137D+01
 Coeff-Com:  0.111D+01
 Coeff:     -0.143D-04-0.438D-04 0.192D-02 0.389D-02-0.136D-01-0.453D-01
 Coeff:      0.521D-01 0.213D+00 0.908D-01-0.710D+00-0.108D+01 0.137D+01
 Coeff:      0.111D+01
 Gap=     0.235 Goal=   None    Shift=    0.500
 RMSDP=3.76D-06 MaxDP=1.41D-04 DE=-2.43D-06 OVMax= 5.80D-04

 Cycle  14  Pass 1  IDiag  1:
 E= -1641.31210828354     Delta-E=       -0.000001090631 Rises=F Damp=F
 DIIS: error= 5.01D-05 at cycle  14 NSaved=  14.
 NSaved=14 IEnMin=14 EnMin= -1641.31210828354     IErMin=14 ErrMin= 5.01D-05
 ErrMax= 5.01D-05  0.00D+00 EMaxC= 1.00D+00 BMatC= 1.60D-07 BMatP= 3.35D-07
 IDIUse=1 WtCom= 1.00D+00 WtEn= 0.00D+00
 Coeff-Com:  0.357D-04-0.690D-04-0.321D-03 0.767D-02-0.589D-02-0.313D-01
 Coeff-Com:  0.103D-01 0.745D-01 0.968D-01-0.925D-01-0.389D+00-0.130D+00
 Coeff-Com: -0.793D+00 0.225D+01
 Coeff:      0.357D-04-0.690D-04-0.321D-03 0.767D-02-0.589D-02-0.313D-01
 Coeff:      0.103D-01 0.745D-01 0.968D-01-0.925D-01-0.389D+00-0.130D+00
 Coeff:     -0.793D+00 0.225D+01
 Gap=     0.235 Goal=   None    Shift=    0.500
 RMSDP=2.46D-06 MaxDP=9.91D-05 DE=-1.09D-06 OVMax= 3.88D-04

 Cycle  15  Pass 1  IDiag  1:
 E= -1641.31210875510     Delta-E=       -0.000000471553 Rises=F Damp=F
 DIIS: error= 3.22D-05 at cycle  15 NSaved=  15.
 NSaved=15 IEnMin=15 EnMin= -1641.31210875510     IErMin=15 ErrMin= 3.22D-05
 ErrMax= 3.22D-05  0.00D+00 EMaxC= 1.00D+00 BMatC= 7.48D-08 BMatP= 1.60D-07
 IDIUse=1 WtCom= 1.00D+00 WtEn= 0.00D+00
 Coeff-Com:  0.238D-05-0.224D-04-0.611D-03 0.298D-02-0.230D-02 0.365D-02
 Coeff-Com: -0.240D-02-0.316D-01-0.103D-01 0.206D+00 0.786D-01-0.402D+00
 Coeff-Com: -0.110D+01 0.530D+00 0.173D+01
 Coeff:      0.238D-05-0.224D-04-0.611D-03 0.298D-02-0.230D-02 0.365D-02
 Coeff:     -0.240D-02-0.316D-01-0.103D-01 0.206D+00 0.786D-01-0.402D+00
 Coeff:     -0.110D+01 0.530D+00 0.173D+01
 Gap=     0.235 Goal=   None    Shift=    0.500
 RMSDP=1.64D-06 MaxDP=7.74D-05 DE=-4.72D-07 OVMax= 2.55D-04

 Cycle  16  Pass 1  IDiag  1:
 E= -1641.31210895619     Delta-E=       -0.000000201091 Rises=F Damp=F
 DIIS: error= 2.06D-05 at cycle  16 NSaved=  16.
 NSaved=16 IEnMin=16 EnMin= -1641.31210895619     IErMin=16 ErrMin= 2.06D-05
 ErrMax= 2.06D-05  0.00D+00 EMaxC= 1.00D+00 BMatC= 3.43D-08 BMatP= 7.48D-08
 IDIUse=1 WtCom= 1.00D+00 WtEn= 0.00D+00
 Coeff-Com: -0.139D-04 0.538D-05-0.253D-03-0.269D-03 0.318D-03 0.106D-01
 Coeff-Com: -0.239D-02-0.395D-01-0.312D-01 0.154D+00 0.121D+00-0.153D+00
 Coeff-Com: -0.485D+00-0.574D+00 0.458D+00 0.154D+01
 Coeff:     -0.139D-04 0.538D-05-0.253D-03-0.269D-03 0.318D-03 0.106D-01
 Coeff:     -0.239D-02-0.395D-01-0.312D-01 0.154D+00 0.121D+00-0.153D+00
 Coeff:     -0.485D+00-0.574D+00 0.458D+00 0.154D+01
 Gap=     0.235 Goal=   None    Shift=    0.500
 RMSDP=1.04D-06 MaxDP=4.45D-05 DE=-2.01D-07 OVMax= 1.69D-04

 Cycle  17  Pass 1  IDiag  1:
 E= -1641.31210904292     Delta-E=       -0.000000086729 Rises=F Damp=F
 DIIS: error= 1.31D-05 at cycle  17 NSaved=  17.
 NSaved=17 IEnMin=17 EnMin= -1641.31210904292     IErMin=17 ErrMin= 1.31D-05
 ErrMax= 1.31D-05  0.00D+00 EMaxC= 1.00D+00 BMatC= 1.56D-08 BMatP= 3.43D-08
 IDIUse=1 WtCom= 1.00D+00 WtEn= 0.00D+00
 Coeff-Com: -0.799D-05 0.205D-04 0.200D-03-0.977D-03 0.103D-03 0.261D-02
 Coeff-Com:  0.379D-02-0.487D-02-0.779D-02-0.146D-01-0.741D-02 0.130D+00
 Coeff-Com:  0.171D+00-0.517D+00-0.487D+00-0.524D+00 0.226D+01
 Coeff:     -0.799D-05 0.205D-04 0.200D-03-0.977D-03 0.103D-03 0.261D-02
 Coeff:      0.379D-02-0.487D-02-0.779D-02-0.146D-01-0.741D-02 0.130D+00
 Coeff:      0.171D+00-0.517D+00-0.487D+00-0.524D+00 0.226D+01
 Gap=     0.235 Goal=   None    Shift=    0.500
 RMSDP=6.81D-07 MaxDP=3.28D-05 DE=-8.67D-08 OVMax= 1.12D-04

 SCF Done:  E(RLC-wHPBE) =  -1641.31210904     A.U. after   17 cycles
            NFock= 17  Conv=0.68D-06     -V/T= 2.0041
 KE= 1.634571010167D+03 PE=-7.878569472423D+03 EE= 2.580201509544D+03
 Leave Link  502 at Tue Jan 26 21:02:57 2021, MaxMem=  4026531840 cpu:            5756.9 elap:             720.5
 (Enter /opt/ohpc/pub/libs/gaussian/g16-A.03/sandybridge/g16/l508.exe)
 QCSCF skips out because SCF is already converged.
 Leave Link  508 at Tue Jan 26 21:02:57 2021, MaxMem=  4026531840 cpu:               0.0 elap:               0.0
 (Enter /opt/ohpc/pub/libs/gaussian/g16-A.03/sandybridge/g16/l601.exe)
 Copying SCF densities to generalized density rwf, IOpCl= 0 IROHF=0.

 **********************************************************************

            Population analysis using the SCF density.

 **********************************************************************

 Orbital symmetries:
       Occupied  (A) (A) (A) (A) (A) (A) (A) (A) (A) (A) (A) (A)
                 (A) (A) (A) (A) (A) (A) (A) (A) (A) (A) (A) (A)
                 (A) (A) (A) (A) (A) (A) (A) (A) (A) (A) (A) (A)
                 (A) (A) (A) (A) (A) (A) (A) (A) (A) (A) (A) (A)
                 (A) (A) (A) (A) (A) (A) (A) (A) (A) (A) (A) (A)
                 (A) (A) (A) (A) (A) (A) (A) (A) (A) (A) (A) (A)
                 (A) (A) (A) (A) (A) (A) (A) (A) (A) (A) (A) (A)
                 (A) (A) (A) (A) (A) (A)
       Virtual   (A) (A) (A) (A) (A) (A) (A) (A) (A) (A) (A) (A)
                 (A) (A) (A) (A) (A) (A) (A) (A) (A) (A) (A) (A)
                 (A) (A) (A) (A) (A) (A) (A) (A) (A) (A) (A) (A)
                 (A) (A) (A) (A) (A) (A) (A) (A) (A) (A) (A) (A)
                 (A) (A) (A) (A) (A) (A) (A) (A) (A) (A) (A) (A)
                 (A) (A) (A) (A) (A) (A) (A) (A) (A) (A) (A) (A)
                 (A) (A) (A) (A) (A) (A) (A) (A) (A) (A) (A) (A)
                 (A) (A) (A) (A) (A) (A) (A) (A) (A) (A) (A) (A)
                 (A) (A) (A) (A) (A) (A) (A) (A) (A) (A) (A) (A)
                 (A) (A) (A) (A) (A) (A) (A) (A) (A) (A) (A) (A)
                 (A) (A) (A) (A) (A) (A) (A) (A) (A) (A) (A) (A)
                 (A) (A) (A) (A) (A) (A) (A) (A) (A) (A) (A) (A)
                 (A) (A) (A) (A) (A) (A) (A) (A) (A) (A) (A) (A)
                 (A) (A) (A) (A) (A) (A) (A) (A) (A) (A) (A) (A)
                 (A) (A) (A) (A) (A) (A) (A) (A) (A) (A) (A) (A)
                 (A) (A) (A) (A) (A) (A) (A) (A) (A) (A) (A) (A)
                 (A) (A) (A) (A) (A) (A) (A) (A) (A) (A) (A) (A)
                 (A) (A) (A) (A) (A) (A) (A) (A) (A) (A) (A) (A)
                 (A) (A) (A) (A) (A) (A) (A) (A) (A) (A) (A) (A)
                 (A) (A) (A) (A) (A) (A) (A) (A) (A) (A) (A) (A)
                 (A) (A) (A) (A) (A) (A) (A) (A) (A) (A) (A) (A)
                 (A) (A) (A) (A) (A) (A) (A) (A) (A) (A) (A) (A)
                 (A) (A) (A) (A) (A) (A) (A) (A) (A) (A) (A) (A)
                 (A) (A) (A) (A) (A) (A) (A) (A) (A) (A) (A) (A)
                 (A) (A) (A) (A) (A) (A) (A) (A) (A) (A) (A) (A)
                 (A) (A) (A) (A) (A) (A) (A) (A) (A) (A) (A) (A)
                 (A) (A) (A) (A) (A) (A) (A) (A) (A) (A) (A) (A)
                 (A) (A) (A) (A) (A) (A) (A) (A) (A) (A) (A) (A)
                 (A) (A) (A) (A) (A) (A) (A) (A) (A) (A) (A) (A)
                 (A) (A) (A) (A) (A) (A) (A) (A) (A) (A) (A) (A)
                 (A) (A) (A) (A) (A) (A) (A) (A) (A) (A) (A) (A)
                 (A) (A) (A) (A) (A) (A) (A) (A) (A) (A) (A) (A)
                 (A) (A) (A) (A) (A) (A) (A) (A) (A) (A) (A) (A)
                 (A) (A) (A) (A) (A) (A) (A) (A) (A) (A) (A) (A)
                 (A) (A) (A) (A) (A) (A) (A) (A) (A) (A) (A) (A)
                 (A) (A) (A) (A) (A) (A) (A) (A) (A) (A) (A) (A)
                 (A) (A) (A) (A) (A) (A) (A) (A) (A) (A) (A) (A)
                 (A) (A) (A) (A) (A) (A) (A) (A) (A) (A) (A) (A)
                 (A) (A) (A) (A) (A) (A) (A) (A) (A) (A) (A) (A)
                 (A) (A) (A) (A) (A) (A) (A) (A) (A) (A) (A)
 The electronic state is 1-A.
 Alpha  occ. eigenvalues --  -88.32070 -88.27356 -14.27723 -14.27718 -10.20202
 Alpha  occ. eigenvalues --  -10.20169 -10.16596 -10.14807 -10.14782 -10.14315
 Alpha  occ. eigenvalues --  -10.14273 -10.12466 -10.12187 -10.11508 -10.11495
 Alpha  occ. eigenvalues --  -10.10173 -10.10043 -10.09711 -10.08432 -10.07730
 Alpha  occ. eigenvalues --  -10.07516 -10.07303 -10.06096  -7.91085  -7.86551
 Alpha  occ. eigenvalues --   -5.93192  -5.92763  -5.92347  -5.88773  -5.88348
 Alpha  occ. eigenvalues --   -5.87522  -1.14788  -1.12366  -1.06780  -0.99498
 Alpha  occ. eigenvalues --   -0.98976  -0.92355  -0.90205  -0.89969  -0.89408
 Alpha  occ. eigenvalues --   -0.89256  -0.88024  -0.87902  -0.86621  -0.84316
 Alpha  occ. eigenvalues --   -0.81932  -0.77368  -0.74519  -0.73657  -0.72338
 Alpha  occ. eigenvalues --   -0.72059  -0.71184  -0.69195  -0.66891  -0.66721
 Alpha  occ. eigenvalues --   -0.66263  -0.65024  -0.64458  -0.61894  -0.61062
 Alpha  occ. eigenvalues --   -0.60613  -0.59797  -0.59575  -0.59062  -0.58850
 Alpha  occ. eigenvalues --   -0.58057  -0.57952  -0.57779  -0.57288  -0.57065
 Alpha  occ. eigenvalues --   -0.56112  -0.55760  -0.55681  -0.54830  -0.53533
 Alpha  occ. eigenvalues --   -0.53182  -0.52717  -0.52217  -0.50019  -0.48470
 Alpha  occ. eigenvalues --   -0.48064  -0.47519  -0.46874  -0.44495  -0.42156
 Alpha  occ. eigenvalues --   -0.41061  -0.39954  -0.39028  -0.38210  -0.35286
 Alpha virt. eigenvalues --   -0.11829  -0.10393  -0.07188  -0.05932  -0.05699
 Alpha virt. eigenvalues --   -0.05426  -0.04410  -0.04197  -0.01698  -0.01491
 Alpha virt. eigenvalues --   -0.01063  -0.00425  -0.00393   0.00850   0.01226
 Alpha virt. eigenvalues --    0.01904   0.02805   0.02867   0.03255   0.04045
 Alpha virt. eigenvalues --    0.04469   0.04522   0.05035   0.05303   0.05482
 Alpha virt. eigenvalues --    0.05655   0.06620   0.06692   0.07218   0.07344
 Alpha virt. eigenvalues --    0.08361   0.08900   0.08979   0.09267   0.09545
 Alpha virt. eigenvalues --    0.10317   0.10855   0.10997   0.11961   0.12259
 Alpha virt. eigenvalues --    0.12515   0.12844   0.13006   0.13603   0.14278
 Alpha virt. eigenvalues --    0.14706   0.16152   0.16580   0.17095   0.17501
 Alpha virt. eigenvalues --    0.17840   0.17996   0.18420   0.19159   0.19425
 Alpha virt. eigenvalues --    0.19957   0.20516   0.20673   0.21080   0.21554
 Alpha virt. eigenvalues --    0.22194   0.22386   0.22529   0.22848   0.22979
 Alpha virt. eigenvalues --    0.23360   0.23534   0.24049   0.24218   0.24781
 Alpha virt. eigenvalues --    0.25030   0.25291   0.25380   0.26400   0.26678
 Alpha virt. eigenvalues --    0.26967   0.27704   0.28494   0.28738   0.29599
 Alpha virt. eigenvalues --    0.29747   0.30616   0.30680   0.31020   0.31762
 Alpha virt. eigenvalues --    0.32282   0.32444   0.32903   0.33244   0.33660
 Alpha virt. eigenvalues --    0.34013   0.35119   0.35372   0.35777   0.36037
 Alpha virt. eigenvalues --    0.36317   0.36440   0.36606   0.37326   0.37391
 Alpha virt. eigenvalues --    0.37759   0.38016   0.38408   0.38567   0.39022
 Alpha virt. eigenvalues --    0.39083   0.39723   0.39995   0.40316   0.40613
 Alpha virt. eigenvalues --    0.41033   0.41347   0.42025   0.42297   0.42661
 Alpha virt. eigenvalues --    0.43101   0.43797   0.44271   0.44422   0.44988
 Alpha virt. eigenvalues --    0.45460   0.45585   0.45871   0.46419   0.46792
 Alpha virt. eigenvalues --    0.47593   0.48098   0.48267   0.48670   0.49272
 Alpha virt. eigenvalues --    0.50406   0.51032   0.51304   0.51988   0.52468
 Alpha virt. eigenvalues --    0.53266   0.54344   0.55220   0.56079   0.56220
 Alpha virt. eigenvalues --    0.56517   0.57797   0.58640   0.59379   0.59634
 Alpha virt. eigenvalues --    0.60202   0.61966   0.62303   0.62650   0.63387
 Alpha virt. eigenvalues --    0.64114   0.64889   0.65148   0.65637   0.66102
 Alpha virt. eigenvalues --    0.66918   0.67595   0.68420   0.70564   0.71045
 Alpha virt. eigenvalues --    0.72009   0.72813   0.75166   0.75655   0.76349
 Alpha virt. eigenvalues --    0.76907   0.79425   0.80665   0.82522   0.82863
 Alpha virt. eigenvalues --    0.83572   0.85003   0.87214   0.87967   0.89506
 Alpha virt. eigenvalues --    0.91231   1.01404   1.04446   1.04809   1.09188
 Alpha virt. eigenvalues --    1.11497   1.12479   1.13207   1.13398   1.14901
 Alpha virt. eigenvalues --    1.15294   1.16536   1.16795   1.17290   1.17913
 Alpha virt. eigenvalues --    1.18945   1.19264   1.20051   1.20550   1.21263
 Alpha virt. eigenvalues --    1.22326   1.22707   1.23281   1.23484   1.23688
 Alpha virt. eigenvalues --    1.24015   1.25070   1.25243   1.25944   1.26079
 Alpha virt. eigenvalues --    1.26446   1.27602   1.27767   1.28048   1.28337
 Alpha virt. eigenvalues --    1.29575   1.29909   1.30748   1.31457   1.32448
 Alpha virt. eigenvalues --    1.33094   1.34073   1.34835   1.34879   1.35439
 Alpha virt. eigenvalues --    1.35887   1.36730   1.37215   1.37228   1.37435
 Alpha virt. eigenvalues --    1.37916   1.38515   1.38534   1.39070   1.39294
 Alpha virt. eigenvalues --    1.39662   1.40258   1.40400   1.41649   1.42256
 Alpha virt. eigenvalues --    1.42686   1.42936   1.43447   1.43564   1.44005
 Alpha virt. eigenvalues --    1.44648   1.45115   1.45496   1.45592   1.46096
 Alpha virt. eigenvalues --    1.46386   1.46503   1.47499   1.47878   1.48236
 Alpha virt. eigenvalues --    1.49345   1.49627   1.50025   1.51830   1.52172
 Alpha virt. eigenvalues --    1.52667   1.53134   1.54471   1.54959   1.55206
 Alpha virt. eigenvalues --    1.55693   1.56095   1.57088   1.58461   1.59240
 Alpha virt. eigenvalues --    1.59347   1.59837   1.60340   1.61790   1.62143
 Alpha virt. eigenvalues --    1.62896   1.63515   1.64490   1.65005   1.65899
 Alpha virt. eigenvalues --    1.66172   1.66584   1.66754   1.66837   1.67881
 Alpha virt. eigenvalues --    1.68228   1.68445   1.68925   1.69225   1.69602
 Alpha virt. eigenvalues --    1.69954   1.70718   1.71080   1.71764   1.71934
 Alpha virt. eigenvalues --    1.72485   1.72772   1.74061   1.74289   1.74614
 Alpha virt. eigenvalues --    1.75723   1.76525   1.76792   1.77461   1.78870
 Alpha virt. eigenvalues --    1.79940   1.80964   1.81198   1.82272   1.83260
 Alpha virt. eigenvalues --    1.83594   1.84333   1.85156   1.86135   1.87640
 Alpha virt. eigenvalues --    1.89077   1.90024   1.90796   1.91006   1.91625
 Alpha virt. eigenvalues --    1.91950   1.92133   1.92993   1.94971   1.95321
 Alpha virt. eigenvalues --    1.96040   1.96736   1.98626   1.99573   2.00285
 Alpha virt. eigenvalues --    2.00495   2.03086   2.04740   2.05338   2.06977
 Alpha virt. eigenvalues --    2.07373   2.08742   2.09723   2.10466   2.10907
 Alpha virt. eigenvalues --    2.11636   2.14169   2.16173   2.17134   2.17308
 Alpha virt. eigenvalues --    2.18370   2.18527   2.19036   2.19299   2.20086
 Alpha virt. eigenvalues --    2.21424   2.21630   2.22157   2.22250   2.22768
 Alpha virt. eigenvalues --    2.23292   2.24248   2.24844   2.25325   2.25488
 Alpha virt. eigenvalues --    2.25663   2.26587   2.26897   2.27089   2.27457
 Alpha virt. eigenvalues --    2.27699   2.29141   2.31330   2.32316   2.33098
 Alpha virt. eigenvalues --    2.33750   2.34982   2.37793   2.39623   2.39682
 Alpha virt. eigenvalues --    2.40149   2.40995   2.41111   2.42446   2.43877
 Alpha virt. eigenvalues --    2.44067   2.44375   2.45789   2.46367   2.46743
 Alpha virt. eigenvalues --    2.46757   2.47816   2.48211   2.48673   2.50778
 Alpha virt. eigenvalues --    2.52332   2.52997   2.53317   2.54318   2.55030
 Alpha virt. eigenvalues --    2.55390   2.55798   2.56664   2.57458   2.58664
 Alpha virt. eigenvalues --    2.60879   2.61095   2.61735   2.62038   2.62421
 Alpha virt. eigenvalues --    2.63456   2.63836   2.65331   2.65945   2.67953
 Alpha virt. eigenvalues --    2.70540   2.71882   2.73100   2.73708   2.73996
 Alpha virt. eigenvalues --    2.74748   2.76763   2.82142   2.87013   2.89750
 Alpha virt. eigenvalues --    2.90693   2.94266   2.96834   2.98303   2.99690
 Alpha virt. eigenvalues --    3.00837   3.01735   3.01926   3.03629   3.03709
 Alpha virt. eigenvalues --    3.04432   3.04993   3.05381   3.07507   3.08038
 Alpha virt. eigenvalues --    3.09575   3.12734   3.13562   3.15378   3.17638
 Alpha virt. eigenvalues --    3.18091   3.18276   3.18632   3.19027   3.20481
 Alpha virt. eigenvalues --    3.22961   3.25150   3.25710   3.27892   3.31419
 Alpha virt. eigenvalues --    3.32611   3.32979   3.34546   3.45361   3.50121
 Alpha virt. eigenvalues --    3.50549   3.59668   3.59734   3.67295   3.68130
 Alpha virt. eigenvalues --    3.85509  18.56668  18.87936  21.00925  21.11053
 Alpha virt. eigenvalues --   21.37443  21.45639  21.51180  21.57127  21.61209
 Alpha virt. eigenvalues --   21.63645  21.65294  21.73018  21.79669  21.81076
 Alpha virt. eigenvalues --   21.82912  21.83401  21.83754  21.97582  21.99660
 Alpha virt. eigenvalues --   22.03058  22.03565  31.51750  31.66698
          Condensed to atoms (all electrons):
               1          2          3          4          5          6
     1  C    5.406369   0.097327  -0.112544   0.114381  -0.001606  -0.000031
     2  C    0.097327   6.085453   0.502215  -0.465110  -0.006354   0.014883
     3  S   -0.112544   0.502215  15.545633  -0.220525  -0.007410  -0.000430
     4  C    0.114381  -0.465110  -0.220525   6.619080  -0.022097  -0.053683
     5  C   -0.001606  -0.006354  -0.007410  -0.022097   5.860160   0.311467
     6  C   -0.000031   0.014883  -0.000430  -0.053683   0.311467   5.524444
     7  C    0.268020   0.175661   0.015507  -0.295899  -0.001102   0.001642
     8  C   -0.226398   0.217187   0.033581  -0.184304   0.005888   0.009041
     9  H   -0.000282   0.020006   0.002351  -0.044156  -0.007147  -0.008803
    10  C   -0.000127   0.002008   0.006669  -0.022885  -0.005565  -0.145430
    11  C   -0.000121  -0.002537  -0.000299   0.013615   0.048627   0.405934
    12  C    0.000050   0.001360   0.000228  -0.005168  -0.277687   0.091709
    13  C    0.000014  -0.001968  -0.001155   0.003586   0.168292  -0.110549
    14  H    0.000029   0.000046   0.000718  -0.000381   0.003015   0.008006
    15  H    0.000012  -0.000127  -0.000002   0.000544   0.029560  -0.058074
    16  H    0.000000   0.000003   0.000001  -0.000022   0.000660   0.014908
    17  C    0.135315  -0.220552  -0.006609   0.221673   0.004399  -0.013829
    18  H    0.416772  -0.084035  -0.001036   0.045458  -0.000012  -0.000023
    19  H   -0.003874  -0.027950   0.317282  -0.009435  -0.000024   0.000048
    20  H   -0.073803   0.024262  -0.000272  -0.005194  -0.000006  -0.000003
    21  H   -0.002679   0.022475   0.000003  -0.088929  -0.001187   0.011264
    22  H    0.018809  -0.004533  -0.000000   0.026032  -0.000073  -0.000407
    23  S    0.013920  -0.113470   0.006264   0.350198   0.077810  -0.147468
    24  C    0.000001  -0.000320  -0.000140   0.000386   0.008942   0.016862
    25  C   -0.000000  -0.000003  -0.000005   0.000005  -0.017022  -0.002875
    26  C    0.000000  -0.000010  -0.000023   0.000011   0.022949   0.001984
    27  N   -0.000000  -0.000000  -0.000000   0.000000  -0.000074   0.000020
    28  N    0.000000  -0.000000   0.000003  -0.000000  -0.000121   0.000016
    29  C   -0.000000   0.000000  -0.000000  -0.000000  -0.000132   0.000072
    30  H    0.000000  -0.000000   0.000000   0.000000   0.000006   0.000000
    31  H    0.000000  -0.000000   0.000000   0.000000   0.000133  -0.000062
    32  H   -0.000000  -0.000000   0.000000  -0.000000  -0.000003  -0.000000
    33  C   -0.000000  -0.000000  -0.000000   0.000000  -0.000015  -0.000001
    34  H    0.000000  -0.000000   0.000000   0.000000   0.000000   0.000000
    35  H   -0.000000   0.000000  -0.000000  -0.000000  -0.000000  -0.000000
    36  H    0.000000   0.000000   0.000000  -0.000000  -0.000000   0.000000
    37  C   -0.000000  -0.000002  -0.000230   0.000012  -0.000331   0.000027
    38  H   -0.000000   0.000000   0.000008  -0.000000  -0.000127  -0.000006
    39  H    0.000003   0.000002   0.000681  -0.000028  -0.000026  -0.000046
    40  H    0.000000  -0.000000   0.000012   0.000000   0.000081   0.000003
    41  C    0.000000  -0.000000  -0.000000   0.000000   0.000027   0.000001
    42  H   -0.000000   0.000000  -0.000000  -0.000000  -0.000002  -0.000000
    43  H    0.000000  -0.000000   0.000000   0.000000   0.000001   0.000000
    44  H    0.000000   0.000000   0.000000   0.000000   0.000000   0.000000
               7          8          9         10         11         12
     1  C    0.268020  -0.226398  -0.000282  -0.000127  -0.000121   0.000050
     2  C    0.175661   0.217187   0.020006   0.002008  -0.002537   0.001360
     3  S    0.015507   0.033581   0.002351   0.006669  -0.000299   0.000228
     4  C   -0.295899  -0.184304  -0.044156  -0.022885   0.013615  -0.005168
     5  C   -0.001102   0.005888  -0.007147  -0.005565   0.048627  -0.277687
     6  C    0.001642   0.009041  -0.008803  -0.145430   0.405934   0.091709
     7  C    5.121804   0.128707   0.000247   0.000109  -0.000815   0.000088
     8  C    0.128707   5.549456  -0.005357   0.013491   0.000308   0.001065
     9  H    0.000247  -0.005357   0.585555  -0.001236  -0.000907   0.000301
    10  C    0.000109   0.013491  -0.001236   5.845561  -0.080059  -0.061589
    11  C   -0.000815   0.000308  -0.000907  -0.080059   5.141323   0.203217
    12  C    0.000088   0.001065   0.000301  -0.061589   0.203217   5.668090
    13  C   -0.000047  -0.001666  -0.001188   0.232084   0.074366   0.333953
    14  H   -0.000002   0.000048   0.000143   0.361036  -0.001790   0.005957
    15  H   -0.000053  -0.000208  -0.000000  -0.000048   0.418924  -0.111287
    16  H    0.000000   0.000003   0.000002   0.010921  -0.020294   0.403268
    17  C    0.332930   0.167698   0.000437  -0.000243  -0.000699  -0.000178
    18  H   -0.066627  -0.007018  -0.000001  -0.000004   0.000005  -0.000002
    19  H   -0.000458   0.001868  -0.000049   0.000061  -0.000001   0.000001
    20  H    0.434855   0.021416   0.000001   0.000001  -0.000001   0.000000
    21  H    0.014058   0.414697   0.001481   0.000885  -0.000705   0.000380
    22  H   -0.062861  -0.066147  -0.000033  -0.000014  -0.000008  -0.000006
    23  S   -0.000570  -0.093492   0.318712   0.033536  -0.003442  -0.008434
    24  C   -0.000003  -0.000080  -0.000119  -0.066520   0.057851  -0.180984
    25  C    0.000000   0.000001  -0.000005   0.061694   0.014608  -0.059851
    26  C   -0.000000  -0.000008   0.000001  -0.073649  -0.001954   0.032367
    27  N    0.000000   0.000000  -0.000000   0.000386   0.000226   0.001046
    28  N    0.000000  -0.000000  -0.000000   0.001580   0.000011   0.000155
    29  C    0.000000   0.000000  -0.000000   0.000162  -0.000364  -0.002421
    30  H   -0.000000  -0.000000  -0.000000  -0.000034  -0.000074   0.000094
    31  H   -0.000000  -0.000000   0.000000  -0.000415   0.000129   0.005702
    32  H    0.000000  -0.000000   0.000000   0.000028   0.000054  -0.000099
    33  C    0.000000   0.000000  -0.000000   0.000090   0.000015  -0.000032
    34  H   -0.000000  -0.000000  -0.000000  -0.000002  -0.000002  -0.000002
    35  H    0.000000   0.000000   0.000000  -0.000000   0.000001  -0.000010
    36  H    0.000000  -0.000000   0.000000   0.000006   0.000000   0.000010
    37  C   -0.000000  -0.000000  -0.000002  -0.002036  -0.000015  -0.000137
    38  H    0.000000   0.000000   0.000000   0.000156   0.000005  -0.000029
    39  H    0.000000  -0.000001   0.000006   0.006143   0.000027  -0.000051
    40  H   -0.000000  -0.000000   0.000000  -0.000146  -0.000003   0.000023
    41  C   -0.000000  -0.000000   0.000000  -0.000012  -0.000003   0.000062
    42  H    0.000000   0.000000   0.000000  -0.000004   0.000000  -0.000001
    43  H   -0.000000  -0.000000  -0.000000  -0.000011  -0.000000  -0.000001
    44  H   -0.000000   0.000000   0.000000   0.000009  -0.000000   0.000007
              13         14         15         16         17         18
     1  C    0.000014   0.000029   0.000012   0.000000   0.135315   0.416772
     2  C   -0.001968   0.000046  -0.000127   0.000003  -0.220552  -0.084035
     3  S   -0.001155   0.000718  -0.000002   0.000001  -0.006609  -0.001036
     4  C    0.003586  -0.000381   0.000544  -0.000022   0.221673   0.045458
     5  C    0.168292   0.003015   0.029560   0.000660   0.004399  -0.000012
     6  C   -0.110549   0.008006  -0.058074   0.014908  -0.013829  -0.000023
     7  C   -0.000047  -0.000002  -0.000053   0.000000   0.332930  -0.066627
     8  C   -0.001666   0.000048  -0.000208   0.000003   0.167698  -0.007018
     9  H   -0.001188   0.000143  -0.000000   0.000002   0.000437  -0.000001
    10  C    0.232084   0.361036  -0.000048   0.010921  -0.000243  -0.000004
    11  C    0.074366  -0.001790   0.418924  -0.020294  -0.000699   0.000005
    12  C    0.333953   0.005957  -0.111287   0.403268  -0.000178  -0.000002
    13  C    6.702174  -0.086897   0.019390  -0.107432   0.000162   0.000002
    14  H   -0.086897   0.530422   0.000055  -0.000025   0.000010   0.000000
    15  H    0.019390   0.000055   0.574319  -0.003842   0.000150   0.000000
    16  H   -0.107432  -0.000025  -0.003842   0.554969   0.000001  -0.000000
    17  C    0.000162   0.000010   0.000150   0.000001   5.142886   0.017999
    18  H    0.000002   0.000000   0.000000  -0.000000   0.017999   0.545878
    19  H    0.000001  -0.000011  -0.000000  -0.000000  -0.000202  -0.000321
    20  H   -0.000000  -0.000000  -0.000000  -0.000000  -0.066588  -0.008054
    21  H   -0.000269  -0.000009  -0.000145  -0.000000  -0.024457  -0.000042
    22  H    0.000003   0.000000   0.000014   0.000000   0.426012  -0.000119
    23  S    0.002629   0.011425   0.000375   0.000048   0.021288  -0.000375
    24  C   -0.418960   0.013895   0.002430   0.002709   0.000016   0.000000
    25  C   -0.420903   0.005137   0.000306   0.002549  -0.000000   0.000000
    26  C   -0.348711   0.005858   0.000100   0.004763   0.000000   0.000000
    27  N   -0.025689   0.000055   0.000007   0.000241   0.000000   0.000000
    28  N   -0.023412   0.000471   0.000000   0.000036   0.000000   0.000000
    29  C   -0.011743   0.000004  -0.000041  -0.001564  -0.000000  -0.000000
    30  H   -0.000258   0.000000  -0.000000   0.000026   0.000000   0.000000
    31  H   -0.016151  -0.000016   0.000033  -0.000166   0.000000   0.000000
    32  H    0.000656   0.000000   0.000001   0.000298  -0.000000  -0.000000
    33  C   -0.002785   0.000004   0.000000   0.000017  -0.000000   0.000000
    34  H    0.000020   0.000000  -0.000000   0.000010   0.000000   0.000000
    35  H    0.000056  -0.000000   0.000000   0.000001  -0.000000  -0.000000
    36  H   -0.000157  -0.000001  -0.000000  -0.000001  -0.000000  -0.000000
    37  C   -0.013785  -0.001435  -0.000000  -0.000009   0.000000   0.000000
    38  H   -0.000509   0.000162   0.000000   0.000000  -0.000000  -0.000000
    39  H   -0.015006   0.000687  -0.000000  -0.000006   0.000000  -0.000000
    40  H    0.000892   0.000245   0.000000   0.000000   0.000000   0.000000
    41  C   -0.002761   0.000035   0.000000   0.000003   0.000000   0.000000
    42  H   -0.000009   0.000009   0.000000   0.000000  -0.000000  -0.000000
    43  H    0.000105  -0.000000  -0.000000  -0.000000   0.000000   0.000000
    44  H   -0.000174  -0.000000  -0.000000  -0.000001   0.000000   0.000000
              19         20         21         22         23         24
     1  C   -0.003874  -0.073803  -0.002679   0.018809   0.013920   0.000001
     2  C   -0.027950   0.024262   0.022475  -0.004533  -0.113470  -0.000320
     3  S    0.317282  -0.000272   0.000003  -0.000000   0.006264  -0.000140
     4  C   -0.009435  -0.005194  -0.088929   0.026032   0.350198   0.000386
     5  C   -0.000024  -0.000006  -0.001187  -0.000073   0.077810   0.008942
     6  C    0.000048  -0.000003   0.011264  -0.000407  -0.147468   0.016862
     7  C   -0.000458   0.434855   0.014058  -0.062861  -0.000570  -0.000003
     8  C    0.001868   0.021416   0.414697  -0.066147  -0.093492  -0.000080
     9  H   -0.000049   0.000001   0.001481  -0.000033   0.318712  -0.000119
    10  C    0.000061   0.000001   0.000885  -0.000014   0.033536  -0.066520
    11  C   -0.000001  -0.000001  -0.000705  -0.000008  -0.003442   0.057851
    12  C    0.000001   0.000000   0.000380  -0.000006  -0.008434  -0.180984
    13  C    0.000001  -0.000000  -0.000269   0.000003   0.002629  -0.418960
    14  H   -0.000011  -0.000000  -0.000009   0.000000   0.011425   0.013895
    15  H   -0.000000  -0.000000  -0.000145   0.000014   0.000375   0.002430
    16  H   -0.000000  -0.000000  -0.000000   0.000000   0.000048   0.002709
    17  C   -0.000202  -0.066588  -0.024457   0.426012   0.021288   0.000016
    18  H   -0.000321  -0.008054  -0.000042  -0.000119  -0.000375   0.000000
    19  H    0.596315   0.000009   0.000029  -0.000003   0.002912  -0.000001
    20  H    0.000009   0.550271  -0.000229  -0.008613   0.000036  -0.000000
    21  H    0.000029  -0.000229   0.546164  -0.007747  -0.014400  -0.000021
    22  H   -0.000003  -0.008613  -0.007747   0.550990  -0.000294   0.000000
    23  S    0.002912   0.000036  -0.014400  -0.000294  15.418868   0.008670
    24  C   -0.000001  -0.000000  -0.000021   0.000000   0.008670   7.215135
    25  C    0.000000   0.000000   0.000000  -0.000000   0.000189  -0.001738
    26  C    0.000000  -0.000000  -0.000000   0.000000   0.000229   0.077988
    27  N   -0.000000   0.000000  -0.000000   0.000000   0.000000  -0.153562
    28  N   -0.000000   0.000000  -0.000000   0.000000   0.000011  -0.146058
    29  C    0.000000   0.000000   0.000000  -0.000000  -0.000000  -0.002760
    30  H   -0.000000  -0.000000  -0.000000   0.000000   0.000000   0.005652
    31  H   -0.000000  -0.000000  -0.000000   0.000000   0.000001   0.009096
    32  H   -0.000000   0.000000   0.000000  -0.000000   0.000000  -0.003320
    33  C    0.000000   0.000000   0.000000  -0.000000   0.000000  -0.014266
    34  H    0.000000  -0.000000  -0.000000   0.000000  -0.000000   0.001159
    35  H   -0.000000   0.000000   0.000000  -0.000000  -0.000000  -0.002347
    36  H    0.000000   0.000000   0.000000   0.000000  -0.000000   0.007296
    37  C    0.000004  -0.000000   0.000000   0.000000  -0.000062  -0.002851
    38  H   -0.000000   0.000000   0.000000  -0.000000   0.000009   0.005266
    39  H   -0.000010   0.000000  -0.000000   0.000000   0.000137   0.007487
    40  H   -0.000000  -0.000000  -0.000000   0.000000   0.000002  -0.003030
    41  C    0.000000  -0.000000  -0.000000   0.000000   0.000000  -0.012848
    42  H    0.000000   0.000000   0.000000  -0.000000  -0.000000   0.000830
    43  H   -0.000000  -0.000000  -0.000000   0.000000   0.000000  -0.001845
    44  H   -0.000000  -0.000000  -0.000000   0.000000  -0.000000   0.006779
              25         26         27         28         29         30
     1  C   -0.000000   0.000000  -0.000000   0.000000  -0.000000   0.000000
     2  C   -0.000003  -0.000010  -0.000000  -0.000000   0.000000  -0.000000
     3  S   -0.000005  -0.000023  -0.000000   0.000003  -0.000000   0.000000
     4  C    0.000005   0.000011   0.000000  -0.000000  -0.000000   0.000000
     5  C   -0.017022   0.022949  -0.000074  -0.000121  -0.000132   0.000006
     6  C   -0.002875   0.001984   0.000020   0.000016   0.000072   0.000000
     7  C    0.000000  -0.000000   0.000000   0.000000   0.000000  -0.000000
     8  C    0.000001  -0.000008   0.000000  -0.000000   0.000000  -0.000000
     9  H   -0.000005   0.000001  -0.000000  -0.000000  -0.000000  -0.000000
    10  C    0.061694  -0.073649   0.000386   0.001580   0.000162  -0.000034
    11  C    0.014608  -0.001954   0.000226   0.000011  -0.000364  -0.000074
    12  C   -0.059851   0.032367   0.001046   0.000155  -0.002421   0.000094
    13  C   -0.420903  -0.348711  -0.025689  -0.023412  -0.011743  -0.000258
    14  H    0.005137   0.005858   0.000055   0.000471   0.000004   0.000000
    15  H    0.000306   0.000100   0.000007   0.000000  -0.000041  -0.000000
    16  H    0.002549   0.004763   0.000241   0.000036  -0.001564   0.000026
    17  C   -0.000000   0.000000   0.000000   0.000000  -0.000000   0.000000
    18  H    0.000000   0.000000   0.000000   0.000000  -0.000000   0.000000
    19  H    0.000000   0.000000  -0.000000  -0.000000   0.000000  -0.000000
    20  H    0.000000  -0.000000   0.000000   0.000000   0.000000  -0.000000
    21  H    0.000000  -0.000000  -0.000000  -0.000000   0.000000  -0.000000
    22  H   -0.000000   0.000000   0.000000   0.000000  -0.000000   0.000000
    23  S    0.000189   0.000229   0.000000   0.000011  -0.000000   0.000000
    24  C   -0.001738   0.077988  -0.153562  -0.146058  -0.002760   0.005652
    25  C    6.217491  -0.211818   0.554831  -0.075317  -0.047818  -0.000883
    26  C   -0.211818   6.111289  -0.079544   0.542641  -0.001513  -0.001242
    27  N    0.554831  -0.079544   6.424288  -0.000910   0.229367  -0.035901
    28  N   -0.075317   0.542641  -0.000910   6.425786  -0.000669   0.000004
    29  C   -0.047818  -0.001513   0.229367  -0.000669   4.940400   0.405757
    30  H   -0.000883  -0.001242  -0.035901   0.000004   0.405757   0.512689
    31  H   -0.017366   0.018018  -0.026274   0.000082   0.390711  -0.017072
    32  H    0.005927  -0.001149  -0.041015  -0.000003   0.407428  -0.031956
    33  C   -0.059314  -0.008756   0.248158   0.000413  -0.061975  -0.009775
    34  H    0.008735  -0.001083  -0.038951  -0.000022  -0.002082   0.006334
    35  H   -0.002784   0.002982  -0.039774  -0.000072  -0.005803  -0.001187
    36  H   -0.013374   0.000456  -0.026982  -0.001898   0.009707  -0.000052
    37  C    0.002548  -0.051111  -0.000622   0.228044   0.000020  -0.000002
    38  H   -0.001313  -0.000467   0.000004  -0.035516  -0.000002  -0.000000
    39  H    0.015687  -0.015055   0.000060  -0.026197   0.000006  -0.000000
    40  H   -0.001326   0.006012  -0.000006  -0.041505  -0.000000   0.000000
    41  C   -0.007617  -0.060879   0.000366   0.247588  -0.000150   0.000004
    42  H   -0.001010   0.008891  -0.000018  -0.038331   0.000000  -0.000000
    43  H    0.002999  -0.002835  -0.000087  -0.040613   0.000007   0.000001
    44  H   -0.000132  -0.013381  -0.001810  -0.026377   0.000002   0.000001
              31         32         33         34         35         36
     1  C    0.000000  -0.000000  -0.000000   0.000000  -0.000000   0.000000
     2  C   -0.000000  -0.000000  -0.000000  -0.000000   0.000000   0.000000
     3  S    0.000000   0.000000  -0.000000   0.000000  -0.000000   0.000000
     4  C    0.000000  -0.000000   0.000000   0.000000  -0.000000  -0.000000
     5  C    0.000133  -0.000003  -0.000015   0.000000  -0.000000  -0.000000
     6  C   -0.000062  -0.000000  -0.000001   0.000000  -0.000000   0.000000
     7  C   -0.000000   0.000000   0.000000  -0.000000   0.000000   0.000000
     8  C   -0.000000  -0.000000   0.000000  -0.000000   0.000000  -0.000000
     9  H    0.000000   0.000000  -0.000000  -0.000000   0.000000   0.000000
    10  C   -0.000415   0.000028   0.000090  -0.000002  -0.000000   0.000006
    11  C    0.000129   0.000054   0.000015  -0.000002   0.000001   0.000000
    12  C    0.005702  -0.000099  -0.000032  -0.000002  -0.000010   0.000010
    13  C   -0.016151   0.000656  -0.002785   0.000020   0.000056  -0.000157
    14  H   -0.000016   0.000000   0.000004   0.000000  -0.000000  -0.000001
    15  H    0.000033   0.000001   0.000000  -0.000000   0.000000  -0.000000
    16  H   -0.000166   0.000298   0.000017   0.000010   0.000001  -0.000001
    17  C    0.000000  -0.000000  -0.000000   0.000000  -0.000000  -0.000000
    18  H    0.000000  -0.000000   0.000000   0.000000  -0.000000  -0.000000
    19  H   -0.000000  -0.000000   0.000000   0.000000  -0.000000   0.000000
    20  H   -0.000000   0.000000   0.000000  -0.000000   0.000000   0.000000
    21  H   -0.000000   0.000000   0.000000  -0.000000   0.000000   0.000000
    22  H    0.000000  -0.000000  -0.000000   0.000000  -0.000000   0.000000
    23  S    0.000001   0.000000   0.000000  -0.000000  -0.000000  -0.000000
    24  C    0.009096  -0.003320  -0.014266   0.001159  -0.002347   0.007296
    25  C   -0.017366   0.005927  -0.059314   0.008735  -0.002784  -0.013374
    26  C    0.018018  -0.001149  -0.008756  -0.001083   0.002982   0.000456
    27  N   -0.026274  -0.041015   0.248158  -0.038951  -0.039774  -0.026982
    28  N    0.000082  -0.000003   0.000413  -0.000022  -0.000072  -0.001898
    29  C    0.390711   0.407428  -0.061975  -0.002082  -0.005803   0.009707
    30  H   -0.017072  -0.031956  -0.009775   0.006334  -0.001187  -0.000052
    31  H    0.510682  -0.021043   0.008416   0.000429  -0.000277  -0.000491
    32  H   -0.021043   0.517330   0.000930  -0.003142   0.005410   0.000099
    33  C    0.008416   0.000930   4.943040   0.398986   0.415727   0.392549
    34  H    0.000429  -0.003142   0.398986   0.513885  -0.030276  -0.020036
    35  H   -0.000277   0.005410   0.415727  -0.030276   0.509211  -0.023593
    36  H   -0.000491   0.000099   0.392549  -0.020036  -0.023593   0.535737
    37  C    0.000006  -0.000000  -0.000137  -0.000000   0.000007   0.000010
    38  H   -0.000000   0.000000   0.000004  -0.000000   0.000001   0.000001
    39  H   -0.000001   0.000000   0.000022  -0.000000   0.000000   0.000004
    40  H    0.000000  -0.000000  -0.000006   0.000000  -0.000000   0.000000
    41  C    0.000029  -0.000004  -0.003454   0.000186  -0.000099  -0.002078
    42  H   -0.000001   0.000000   0.000192  -0.000007   0.000014   0.000252
    43  H    0.000000  -0.000000  -0.000115   0.000017  -0.000025  -0.000142
    44  H    0.000005   0.000001  -0.002380   0.000249  -0.000107   0.002830
              37         38         39         40         41         42
     1  C   -0.000000  -0.000000   0.000003   0.000000   0.000000  -0.000000
     2  C   -0.000002   0.000000   0.000002  -0.000000  -0.000000   0.000000
     3  S   -0.000230   0.000008   0.000681   0.000012  -0.000000  -0.000000
     4  C    0.000012  -0.000000  -0.000028   0.000000   0.000000  -0.000000
     5  C   -0.000331  -0.000127  -0.000026   0.000081   0.000027  -0.000002
     6  C    0.000027  -0.000006  -0.000046   0.000003   0.000001  -0.000000
     7  C   -0.000000   0.000000   0.000000  -0.000000  -0.000000   0.000000
     8  C   -0.000000   0.000000  -0.000001  -0.000000  -0.000000   0.000000
     9  H   -0.000002   0.000000   0.000006   0.000000   0.000000   0.000000
    10  C   -0.002036   0.000156   0.006143  -0.000146  -0.000012  -0.000004
    11  C   -0.000015   0.000005   0.000027  -0.000003  -0.000003   0.000000
    12  C   -0.000137  -0.000029  -0.000051   0.000023   0.000062  -0.000001
    13  C   -0.013785  -0.000509  -0.015006   0.000892  -0.002761  -0.000009
    14  H   -0.001435   0.000162   0.000687   0.000245   0.000035   0.000009
    15  H   -0.000000   0.000000  -0.000000   0.000000   0.000000   0.000000
    16  H   -0.000009   0.000000  -0.000006   0.000000   0.000003   0.000000
    17  C    0.000000  -0.000000   0.000000   0.000000   0.000000  -0.000000
    18  H    0.000000  -0.000000  -0.000000   0.000000   0.000000  -0.000000
    19  H    0.000004  -0.000000  -0.000010  -0.000000   0.000000   0.000000
    20  H   -0.000000   0.000000   0.000000  -0.000000  -0.000000   0.000000
    21  H    0.000000   0.000000  -0.000000  -0.000000  -0.000000   0.000000
    22  H    0.000000  -0.000000   0.000000   0.000000   0.000000  -0.000000
    23  S   -0.000062   0.000009   0.000137   0.000002   0.000000  -0.000000
    24  C   -0.002851   0.005266   0.007487  -0.003030  -0.012848   0.000830
    25  C    0.002548  -0.001313   0.015687  -0.001326  -0.007617  -0.001010
    26  C   -0.051111  -0.000467  -0.015055   0.006012  -0.060879   0.008891
    27  N   -0.000622   0.000004   0.000060  -0.000006   0.000366  -0.000018
    28  N    0.228044  -0.035516  -0.026197  -0.041505   0.247588  -0.038331
    29  C    0.000020  -0.000002   0.000006  -0.000000  -0.000150   0.000000
    30  H   -0.000002  -0.000000  -0.000000   0.000000   0.000004  -0.000000
    31  H    0.000006  -0.000000  -0.000001   0.000000   0.000029  -0.000001
    32  H   -0.000000   0.000000   0.000000  -0.000000  -0.000004   0.000000
    33  C   -0.000137   0.000004   0.000022  -0.000006  -0.003454   0.000192
    34  H   -0.000000  -0.000000  -0.000000   0.000000   0.000186  -0.000007
    35  H    0.000007   0.000001   0.000000  -0.000000  -0.000099   0.000014
    36  H    0.000010   0.000001   0.000004   0.000000  -0.002078   0.000252
    37  C    4.948631   0.404573   0.388735   0.407314  -0.061803  -0.002218
    38  H    0.404573   0.515363  -0.017003  -0.031957  -0.009952   0.006373
    39  H    0.388735  -0.017003   0.508922  -0.020581   0.008444   0.000453
    40  H    0.407314  -0.031957  -0.020581   0.516284   0.001052  -0.003143
    41  C   -0.061803  -0.009952   0.008444   0.001052   4.943915   0.398300
    42  H   -0.002218   0.006373   0.000453  -0.003143   0.398300   0.514707
    43  H   -0.005746  -0.001188  -0.000277   0.005365   0.416021  -0.030181
    44  H    0.009630  -0.000033  -0.000480   0.000080   0.393424  -0.020027
              43         44
     1  C    0.000000   0.000000
     2  C   -0.000000   0.000000
     3  S    0.000000   0.000000
     4  C    0.000000   0.000000
     5  C    0.000001   0.000000
     6  C    0.000000   0.000000
     7  C   -0.000000  -0.000000
     8  C   -0.000000   0.000000
     9  H   -0.000000   0.000000
    10  C   -0.000011   0.000009
    11  C   -0.000000  -0.000000
    12  C   -0.000001   0.000007
    13  C    0.000105  -0.000174
    14  H   -0.000000  -0.000000
    15  H   -0.000000  -0.000000
    16  H   -0.000000  -0.000001
    17  C    0.000000   0.000000
    18  H    0.000000   0.000000
    19  H   -0.000000  -0.000000
    20  H   -0.000000  -0.000000
    21  H   -0.000000  -0.000000
    22  H    0.000000   0.000000
    23  S    0.000000  -0.000000
    24  C   -0.001845   0.006779
    25  C    0.002999  -0.000132
    26  C   -0.002835  -0.013381
    27  N   -0.000087  -0.001810
    28  N   -0.040613  -0.026377
    29  C    0.000007   0.000002
    30  H    0.000001   0.000001
    31  H    0.000000   0.000005
    32  H   -0.000000   0.000001
    33  C   -0.000115  -0.002380
    34  H    0.000017   0.000249
    35  H   -0.000025  -0.000107
    36  H   -0.000142   0.002830
    37  C   -0.005746   0.009630
    38  H   -0.001188  -0.000033
    39  H   -0.000277  -0.000480
    40  H    0.005365   0.000080
    41  C    0.416021   0.393424
    42  H   -0.030181  -0.020027
    43  H    0.508989  -0.023866
    44  H   -0.023866   0.534438
 Mulliken charges:
               1
     1  C   -0.049558
     2  C   -0.235917
     3  S   -0.080473
     4  C    0.022838
     5  C   -0.193895
     6  C    0.129386
     7  C   -0.065191
     8  C    0.020223
     9  H    0.140044
    10  C   -0.116584
    11  C   -0.265152
    12  C   -0.041162
    13  C    0.073801
    14  H    0.143093
    15  H    0.127607
    16  H    0.137923
    17  C   -0.137620
    18  H    0.141556
    19  H    0.123810
    20  H    0.131910
    21  H    0.129385
    22  H    0.128999
    23  S    0.114740
    24  C   -0.436676
    25  C    0.049762
    26  C    0.036648
    27  N    0.012165
    28  N    0.010181
    29  C   -0.244606
    30  H    0.167869
    31  H    0.155861
    32  H    0.163571
    33  C   -0.245550
    34  H    0.165595
    35  H    0.172947
    36  H    0.139844
    37  C   -0.247027
    38  H    0.166179
    39  H    0.157263
    40  H    0.164338
    41  C   -0.247798
    42  H    0.164929
    43  H    0.173427
    44  H    0.141315
 Sum of Mulliken charges =   1.00000
 Mulliken charges with hydrogens summed into heavy atoms:
               1
     1  C    0.091998
     2  C   -0.235917
     3  S    0.043337
     4  C    0.022838
     5  C   -0.193895
     6  C    0.129386
     7  C    0.066719
     8  C    0.149608
    10  C    0.026509
    11  C   -0.137545
    12  C    0.096762
    13  C    0.073801
    17  C   -0.008621
    23  S    0.254785
    24  C   -0.436676
    25  C    0.049762
    26  C    0.036648
    27  N    0.012165
    28  N    0.010181
    29  C    0.242695
    33  C    0.232836
    37  C    0.240752
    41  C    0.231873
 Electronic spatial extent (au):  <R**2>=          12335.3621
 Charge=              1.0000 electrons
 Dipole moment (field-independent basis, Debye):
    X=            -12.4753    Y=              1.2028    Z=              0.5036  Tot=             12.5432
 Quadrupole moment (field-independent basis, Debye-Ang):
   XX=            -28.2429   YY=           -114.6672   ZZ=           -141.3573
   XY=             -6.8605   XZ=              4.8097   YZ=              3.2418
 Traceless Quadrupole moment (field-independent basis, Debye-Ang):
   XX=             66.5129   YY=            -19.9114   ZZ=            -46.6015
   XY=             -6.8605   XZ=              4.8097   YZ=              3.2418
 Octapole moment (field-independent basis, Debye-Ang**2):
  XXX=           -403.0213  YYY=             37.3643  ZZZ=              9.2973  XYY=            -90.9148
  XXY=            -38.6692  XXZ=            -51.3496  XZZ=             11.6798  YZZ=              1.5635
  YYZ=             -3.0174  XYZ=              1.5590
 Hexadecapole moment (field-independent basis, Debye-Ang**3):
 XXXX=          -9413.1590 YYYY=          -2558.8229 ZZZZ=           -705.4305 XXXY=            -30.8226
 XXXZ=            -97.8415 YYYX=            -91.8495 YYYZ=             61.4695 ZZZX=             20.9303
 ZZZY=            -11.9204 XXYY=          -2024.6228 XXZZ=          -2138.6828 YYZZ=           -598.9870
 XXYZ=             59.6247 YYXZ=             52.8292 ZZXY=            -18.9569
 N-N= 2.022484843669D+03 E-N=-7.878569441692D+03  KE= 1.634571010167D+03
 No NMR shielding tensors so no spin-rotation constants.
 Leave Link  601 at Tue Jan 26 21:02:58 2021, MaxMem=  4026531840 cpu:               3.3 elap:               0.5
 (Enter /opt/ohpc/pub/libs/gaussian/g16-A.03/sandybridge/g16/l9999.exe)

 Test job not archived.
 1\1\GINC-GNODE020\SP\RLC-wHPBE\TZVP\C19H21N2S2(1+)\RDU230\26-Jan-2021\
 0\\#P LC-wHPBE/TZVP iop(3/107=0172100000, 3/108=0172100000) scf=(conve
 r=6,fermi,ndamp=35,noincfock,novaracc,vshift=500,xqc)\\H21 C19 S2 N2\\
 1,1\C,0,5.141333,0.341453,-1.428653\C,0,4.24633,0.793113,-0.45792\S,0,
 3.527427,2.438238,-0.612926\C,0,3.85258,-0.085202,0.570411\C,0,0.86370
 8,-0.787434,0.770822\C,0,1.152588,-1.949541,0.292605\C,0,5.641454,-0.9
 63707,-1.38032\C,0,4.337968,-1.397272,0.611701\H,0,2.805747,-0.536686,
 2.620663\C,0,-0.32759,-0.104924,0.757243\C,0,0.161049,-2.709273,-0.336
 618\C,0,-1.110551,-2.125038,-0.416532\C,0,-1.366563,-0.836811,0.116144
 \H,0,-0.506361,0.876389,1.203135\H,0,0.333628,-3.701573,-0.760587\H,0,
 -1.915541,-2.656529,-0.930176\C,0,5.242141,-1.827604,-0.363151\H,0,5.4
 50891,1.02542,-2.21936\H,0,4.15948,2.9901,0.460876\H,0,6.34791,-1.2988
 86,-2.140548\H,0,4.022912,-2.077842,1.402557\H,0,5.625918,-2.84765,-0.
 32369\S,0,2.641644,0.489998,1.741439\C,0,-2.680648,-0.257498,0.003764\
 C,0,-4.05427,-0.413992,-0.132503\C,0,-3.489875,0.870167,-0.052158\N,0,
 -5.09974,-1.211802,-0.243141\N,0,-3.607387,2.185094,-0.049886\C,0,-4.9
 5887,-2.66296,-0.086881\H,0,-5.24939,-3.175063,-1.01565\H,0,-3.921906,
 -2.911213,0.159186\H,0,-5.607057,-3.011636,0.730112\C,0,-6.456302,-0.7
 08508,-0.463149\H,0,-6.932296,-1.289768,-1.265044\H,0,-7.06234,-0.8046
 38,0.450448\H,0,-6.424137,0.340187,-0.774131\C,0,-2.422516,3.047015,-0
 .104701\H,0,-2.374233,3.683098,0.791036\H,0,-1.518165,2.434104,-0.1685
 34\H,0,-2.472812,3.689712,-0.995626\C,0,-4.905946,2.85982,-0.071613\H,
 0,-4.903422,3.671788,0.668659\H,0,-5.109136,3.28812,-1.064906\H,0,-5.7
 0105,2.156915,0.195603\\Version=EM64L-G16RevA.03\State=1-A\HF=-1641.31
 2109\RMSD=6.811e-07\Dipole=-4.9081524,0.4732096,0.1981229\Quadrupole=4
 9.4507142,-14.8036239,-34.6470904,-5.1005794,3.5758708,2.4102296\PG=C0
 1 [X(C19H21N2S2)]\\@


 GROWING OLD ISN'T SO BAD -- WHEN YOU CONSIDER THE ALTERNATIVE.

                     -- MAURICE CHEVALIER
 Job cpu time:       0 days  1 hours 37 minutes  6.2 seconds.
 Elapsed time:       0 days  0 hours 12 minutes  9.4 seconds.
 File lengths (MBytes):  RWF=    156 Int=      0 D2E=      0 Chk=     24 Scr=      8
 Normal termination of Gaussian 16 at Tue Jan 26 21:02:58 2021.
