 Entering Gaussian System, Link 0=g16
 Input=mol_ta_cp_half_tune_c10.gjf
 Output=mol_ta_cp_half_tune_c10.log
 Initial command:
 /opt/ohpc/pub/libs/gaussian/g16-A.03/sandybridge/g16/l1.exe "/mnt/gpfs2_4m/scratch/rdu230/ondemand/projects/init_structures/gaussian/wtuning/mol_ta_cp_half/tuning_mol_ta_cp_half_ocycle0/Gau-19431.inp" -scrdir="/mnt/gpfs2_4m/scratch/rdu230/ondemand/projects/init_structures/gaussian/wtuning/mol_ta_cp_half/tuning_mol_ta_cp_half_ocycle0/"
 Entering Link 1 = /opt/ohpc/pub/libs/gaussian/g16-A.03/sandybridge/g16/l1.exe PID=     19432.
  
 Copyright (c) 1988,1990,1992,1993,1995,1998,2003,2009,2016,
            Gaussian, Inc.  All Rights Reserved.
  
 This is part of the Gaussian(R) 16 program.  It is based on
 the Gaussian(R) 09 system (copyright 2009, Gaussian, Inc.),
 the Gaussian(R) 03 system (copyright 2003, Gaussian, Inc.),
 the Gaussian(R) 98 system (copyright 1998, Gaussian, Inc.),
 the Gaussian(R) 94 system (copyright 1995, Gaussian, Inc.),
 the Gaussian 92(TM) system (copyright 1992, Gaussian, Inc.),
 the Gaussian 90(TM) system (copyright 1990, Gaussian, Inc.),
 the Gaussian 88(TM) system (copyright 1988, Gaussian, Inc.),
 the Gaussian 86(TM) system (copyright 1986, Carnegie Mellon
 University), and the Gaussian 82(TM) system (copyright 1983,
 Carnegie Mellon University). Gaussian is a federally registered
 trademark of Gaussian, Inc.
  
 This software contains proprietary and confidential information,
 including trade secrets, belonging to Gaussian, Inc.
  
 This software is provided under written license and may be
 used, copied, transmitted, or stored only in accord with that
 written license.
  
 The following legend is applicable only to US Government
 contracts under FAR:
  
                    RESTRICTED RIGHTS LEGEND
  
 Use, reproduction and disclosure by the US Government is
 subject to restrictions as set forth in subparagraphs (a)
 and (c) of the Commercial Computer Software - Restricted
 Rights clause in FAR 52.227-19.
  
 Gaussian, Inc.
 340 Quinnipiac St., Bldg. 40, Wallingford CT 06492
  
  
 ---------------------------------------------------------------
 Warning -- This program may not be used in any manner that
 competes with the business of Gaussian, Inc. or will provide
 assistance to any competitor of Gaussian, Inc.  The licensee
 of this program is prohibited from giving any competitor of
 Gaussian, Inc. access to this program.  By using this program,
 the user acknowledges that Gaussian, Inc. is engaged in the
 business of creating and licensing software in the field of
 computational chemistry and represents and warrants to the
 licensee that it is not a competitor of Gaussian, Inc. and that
 it will not use this program in any manner prohibited above.
 ---------------------------------------------------------------
  

 Cite this work as:
 Gaussian 16, Revision A.03,
 M. J. Frisch, G. W. Trucks, H. B. Schlegel, G. E. Scuseria, 
 M. A. Robb, J. R. Cheeseman, G. Scalmani, V. Barone, 
 G. A. Petersson, H. Nakatsuji, X. Li, M. Caricato, A. V. Marenich, 
 J. Bloino, B. G. Janesko, R. Gomperts, B. Mennucci, H. P. Hratchian, 
 J. V. Ortiz, A. F. Izmaylov, J. L. Sonnenberg, D. Williams-Young, 
 F. Ding, F. Lipparini, F. Egidi, J. Goings, B. Peng, A. Petrone, 
 T. Henderson, D. Ranasinghe, V. G. Zakrzewski, J. Gao, N. Rega, 
 G. Zheng, W. Liang, M. Hada, M. Ehara, K. Toyota, R. Fukuda, 
 J. Hasegawa, M. Ishida, T. Nakajima, Y. Honda, O. Kitao, H. Nakai, 
 T. Vreven, K. Throssell, J. A. Montgomery, Jr., J. E. Peralta, 
 F. Ogliaro, M. J. Bearpark, J. J. Heyd, E. N. Brothers, K. N. Kudin, 
 V. N. Staroverov, T. A. Keith, R. Kobayashi, J. Normand, 
 K. Raghavachari, A. P. Rendell, J. C. Burant, S. S. Iyengar, 
 J. Tomasi, M. Cossi, J. M. Millam, M. Klene, C. Adamo, R. Cammi, 
 J. W. Ochterski, R. L. Martin, K. Morokuma, O. Farkas, 
 J. B. Foresman, and D. J. Fox, Gaussian, Inc., Wallingford CT, 2016.
 
 ******************************************
 Gaussian 16:  EM64L-G16RevA.03 25-Dec-2016
                26-Jan-2021 
 ******************************************
 %mem=30GB
 %nproc=8
 Will use up to    8 processors via shared memory.
 ----------------------------------------------------------------------
 #P LC-wHPBE/TZVP iop(3/107=0172700000, 3/108=0172700000) scf=(conver=6
 ,fermi,ndamp=35,noincfock,novaracc,vshift=500,xqc)
 ----------------------------------------------------------------------
 1/38=1,172=1/1;
 2/12=2,17=6,18=5,40=1/2;
 3/5=19,7=101,11=2,25=1,30=1,74=-71,107=172700000,108=172700000/1,2,3;
 4//1;
 5/5=100002,6=6,8=3,10=500,13=1,18=-1,22=13,38=1,93=35/2,8;
 6/7=2,8=2,9=2,10=2,28=1/1;
 99/5=1,9=1/99;
 Leave Link    1 at Tue Jan 26 23:50:28 2021, MaxMem=  4026531840 cpu:               1.8 elap:               0.3
 (Enter /opt/ohpc/pub/libs/gaussian/g16-A.03/sandybridge/g16/l101.exe)
 -------------
 H21 C19 S2 N2
 -------------
 Symbolic Z-matrix:
 Charge =  2 Multiplicity = 2
 C                     5.14133   0.34145  -1.42865 
 C                     4.24633   0.79311  -0.45792 
 S                     3.52743   2.43824  -0.61293 
 C                     3.85258  -0.0852    0.57041 
 C                     0.86371  -0.78743   0.77082 
 C                     1.15259  -1.94954   0.29261 
 C                     5.64145  -0.96371  -1.38032 
 C                     4.33797  -1.39727   0.6117 
 H                     2.80575  -0.53669   2.62066 
 C                    -0.32759  -0.10492   0.75724 
 C                     0.16105  -2.70927  -0.33662 
 C                    -1.11055  -2.12504  -0.41653 
 C                    -1.36656  -0.83681   0.11614 
 H                    -0.50636   0.87639   1.20314 
 H                     0.33363  -3.70157  -0.76059 
 H                    -1.91554  -2.65653  -0.93018 
 C                     5.24214  -1.8276   -0.36315 
 H                     5.45089   1.02542  -2.21936 
 H                     4.15948   2.9901    0.46088 
 H                     6.34791  -1.29889  -2.14055 
 H                     4.02291  -2.07784   1.40256 
 H                     5.62592  -2.84765  -0.32369 
 S                     2.64164   0.49      1.74144 
 C                    -2.68065  -0.2575    0.00376 
 C                    -4.05427  -0.41399  -0.1325 
 C                    -3.48988   0.87017  -0.05216 
 N                    -5.09974  -1.2118   -0.24314 
 N                    -3.60739   2.18509  -0.04989 
 C                    -4.95887  -2.66296  -0.08688 
 H                    -5.24939  -3.17506  -1.01565 
 H                    -3.92191  -2.91121   0.15919 
 H                    -5.60706  -3.01164   0.73011 
 C                    -6.4563   -0.70851  -0.46315 
 H                    -6.9323   -1.28977  -1.26504 
 H                    -7.06234  -0.80464   0.45045 
 H                    -6.42414   0.34019  -0.77413 
 C                    -2.42252   3.04702  -0.1047 
 H                    -2.37423   3.6831    0.79104 
 H                    -1.51817   2.4341   -0.16853 
 H                    -2.47281   3.68971  -0.99563 
 C                    -4.90595   2.85982  -0.07161 
 H                    -4.90342   3.67179   0.66866 
 H                    -5.10914   3.28812  -1.06491 
 H                    -5.70105   2.15692   0.1956 
 
 ITRead=  0  0  0  0  0  0  0  0  0  0  0  0  0  0  0  0  0  0  0  0
 ITRead=  0  0  0  0  0  0  0  0  0  0  0  0  0  0  0  0  0  0  0  0
 ITRead=  0  0  0  0
 MicOpt= -1 -1 -1 -1 -1 -1 -1 -1 -1 -1 -1 -1 -1 -1 -1 -1 -1 -1 -1 -1
 MicOpt= -1 -1 -1 -1 -1 -1 -1 -1 -1 -1 -1 -1 -1 -1 -1 -1 -1 -1 -1 -1
 MicOpt= -1 -1 -1 -1
 NAtoms=     44 NQM=       44 NQMF=       0 NMMI=      0 NMMIF=      0
                NMic=       0 NMicF=      0.
                    Isotopes and Nuclear Properties:
 (Nuclear quadrupole moments (NQMom) in fm**2, nuclear magnetic moments (NMagM)
  in nuclear magnetons)

  Atom         1           2           3           4           5           6           7           8           9          10
 IAtWgt=          12          12          32          12          12          12          12          12           1          12
 AtmWgt=  12.0000000  12.0000000  31.9720718  12.0000000  12.0000000  12.0000000  12.0000000  12.0000000   1.0078250  12.0000000
 NucSpn=           0           0           0           0           0           0           0           0           1           0
 AtZEff=  -0.0000000  -0.0000000  -0.0000000  -0.0000000  -0.0000000  -0.0000000  -0.0000000  -0.0000000  -0.0000000  -0.0000000
 NQMom=    0.0000000   0.0000000   0.0000000   0.0000000   0.0000000   0.0000000   0.0000000   0.0000000   0.0000000   0.0000000
 NMagM=    0.0000000   0.0000000   0.0000000   0.0000000   0.0000000   0.0000000   0.0000000   0.0000000   2.7928460   0.0000000
 AtZNuc=   6.0000000   6.0000000  16.0000000   6.0000000   6.0000000   6.0000000   6.0000000   6.0000000   1.0000000   6.0000000

  Atom        11          12          13          14          15          16          17          18          19          20
 IAtWgt=          12          12          12           1           1           1          12           1           1           1
 AtmWgt=  12.0000000  12.0000000  12.0000000   1.0078250   1.0078250   1.0078250  12.0000000   1.0078250   1.0078250   1.0078250
 NucSpn=           0           0           0           1           1           1           0           1           1           1
 AtZEff=  -0.0000000  -0.0000000  -0.0000000  -0.0000000  -0.0000000  -0.0000000  -0.0000000  -0.0000000  -0.0000000  -0.0000000
 NQMom=    0.0000000   0.0000000   0.0000000   0.0000000   0.0000000   0.0000000   0.0000000   0.0000000   0.0000000   0.0000000
 NMagM=    0.0000000   0.0000000   0.0000000   2.7928460   2.7928460   2.7928460   0.0000000   2.7928460   2.7928460   2.7928460
 AtZNuc=   6.0000000   6.0000000   6.0000000   1.0000000   1.0000000   1.0000000   6.0000000   1.0000000   1.0000000   1.0000000

  Atom        21          22          23          24          25          26          27          28          29          30
 IAtWgt=           1           1          32          12          12          12          14          14          12           1
 AtmWgt=   1.0078250   1.0078250  31.9720718  12.0000000  12.0000000  12.0000000  14.0030740  14.0030740  12.0000000   1.0078250
 NucSpn=           1           1           0           0           0           0           2           2           0           1
 AtZEff=  -0.0000000  -0.0000000  -0.0000000  -0.0000000  -0.0000000  -0.0000000  -0.0000000  -0.0000000  -0.0000000  -0.0000000
 NQMom=    0.0000000   0.0000000   0.0000000   0.0000000   0.0000000   0.0000000   2.0440000   2.0440000   0.0000000   0.0000000
 NMagM=    2.7928460   2.7928460   0.0000000   0.0000000   0.0000000   0.0000000   0.4037610   0.4037610   0.0000000   2.7928460
 AtZNuc=   1.0000000   1.0000000  16.0000000   6.0000000   6.0000000   6.0000000   7.0000000   7.0000000   6.0000000   1.0000000

  Atom        31          32          33          34          35          36          37          38          39          40
 IAtWgt=           1           1          12           1           1           1          12           1           1           1
 AtmWgt=   1.0078250   1.0078250  12.0000000   1.0078250   1.0078250   1.0078250  12.0000000   1.0078250   1.0078250   1.0078250
 NucSpn=           1           1           0           1           1           1           0           1           1           1
 AtZEff=  -0.0000000  -0.0000000  -0.0000000  -0.0000000  -0.0000000  -0.0000000  -0.0000000  -0.0000000  -0.0000000  -0.0000000
 NQMom=    0.0000000   0.0000000   0.0000000   0.0000000   0.0000000   0.0000000   0.0000000   0.0000000   0.0000000   0.0000000
 NMagM=    2.7928460   2.7928460   0.0000000   2.7928460   2.7928460   2.7928460   0.0000000   2.7928460   2.7928460   2.7928460
 AtZNuc=   1.0000000   1.0000000   6.0000000   1.0000000   1.0000000   1.0000000   6.0000000   1.0000000   1.0000000   1.0000000

  Atom        41          42          43          44
 IAtWgt=          12           1           1           1
 AtmWgt=  12.0000000   1.0078250   1.0078250   1.0078250
 NucSpn=           0           1           1           1
 AtZEff=  -0.0000000  -0.0000000  -0.0000000  -0.0000000
 NQMom=    0.0000000   0.0000000   0.0000000   0.0000000
 NMagM=    0.0000000   2.7928460   2.7928460   2.7928460
 AtZNuc=   6.0000000   1.0000000   1.0000000   1.0000000
 Leave Link  101 at Tue Jan 26 23:50:28 2021, MaxMem=  4026531840 cpu:               0.7 elap:               0.1
 (Enter /opt/ohpc/pub/libs/gaussian/g16-A.03/sandybridge/g16/l202.exe)
                          Input orientation:                          
 ---------------------------------------------------------------------
 Center     Atomic      Atomic             Coordinates (Angstroms)
 Number     Number       Type             X           Y           Z
 ---------------------------------------------------------------------
      1          6           0        5.141333    0.341453   -1.428653
      2          6           0        4.246330    0.793113   -0.457920
      3         16           0        3.527427    2.438238   -0.612926
      4          6           0        3.852580   -0.085202    0.570411
      5          6           0        0.863708   -0.787434    0.770822
      6          6           0        1.152588   -1.949541    0.292605
      7          6           0        5.641454   -0.963707   -1.380320
      8          6           0        4.337968   -1.397272    0.611701
      9          1           0        2.805747   -0.536686    2.620663
     10          6           0       -0.327590   -0.104924    0.757243
     11          6           0        0.161049   -2.709273   -0.336618
     12          6           0       -1.110551   -2.125038   -0.416532
     13          6           0       -1.366563   -0.836811    0.116144
     14          1           0       -0.506361    0.876389    1.203135
     15          1           0        0.333628   -3.701573   -0.760587
     16          1           0       -1.915541   -2.656529   -0.930176
     17          6           0        5.242141   -1.827604   -0.363151
     18          1           0        5.450891    1.025420   -2.219360
     19          1           0        4.159480    2.990100    0.460876
     20          1           0        6.347910   -1.298886   -2.140548
     21          1           0        4.022912   -2.077842    1.402557
     22          1           0        5.625918   -2.847650   -0.323690
     23         16           0        2.641644    0.489998    1.741439
     24          6           0       -2.680648   -0.257498    0.003764
     25          6           0       -4.054270   -0.413992   -0.132503
     26          6           0       -3.489875    0.870167   -0.052158
     27          7           0       -5.099740   -1.211802   -0.243141
     28          7           0       -3.607387    2.185094   -0.049886
     29          6           0       -4.958870   -2.662960   -0.086881
     30          1           0       -5.249390   -3.175063   -1.015650
     31          1           0       -3.921906   -2.911213    0.159186
     32          1           0       -5.607057   -3.011636    0.730112
     33          6           0       -6.456302   -0.708508   -0.463149
     34          1           0       -6.932296   -1.289768   -1.265044
     35          1           0       -7.062340   -0.804638    0.450448
     36          1           0       -6.424137    0.340187   -0.774131
     37          6           0       -2.422516    3.047015   -0.104701
     38          1           0       -2.374233    3.683098    0.791036
     39          1           0       -1.518165    2.434104   -0.168534
     40          1           0       -2.472812    3.689712   -0.995626
     41          6           0       -4.905946    2.859820   -0.071613
     42          1           0       -4.903422    3.671788    0.668659
     43          1           0       -5.109136    3.288120   -1.064906
     44          1           0       -5.701050    2.156915    0.195603
 ---------------------------------------------------------------------
                    Distance matrix (angstroms):
                    1          2          3          4          5
     1  C    0.000000
     2  C    1.395475   0.000000
     3  S    2.768864   1.802022   0.000000
     4  C    2.416439   1.408524   2.806022   0.000000
     5  C    4.940663   3.930657   4.406259   3.076792   0.000000
     6  C    4.911361   4.201985   5.070745   3.292855   1.289432
     7  C    1.398535   2.425615   4.078141   2.788762   5.242646
     8  C    2.798500   2.439318   4.107046   1.399584   3.530964
     9  H    4.756369   3.649838   4.452762   2.345897   2.693752
    10  C    5.906481   4.817036   4.817281   4.184390   1.373024
    11  C    5.941607   5.382466   6.156762   4.619075   2.326718
    12  C    6.796618   6.100286   6.509447   5.455974   2.663962
    13  C    6.791717   5.872884   5.933686   5.292516   2.324898
    14  H    6.253712   5.035287   4.691364   4.508366   2.198247
    15  H    6.317151   5.966829   6.922387   5.218498   3.334427
    16  H    7.683479   7.077550   7.462118   6.491125   3.756479
    17  C    2.418732   2.805134   4.604350   2.416275   4.640962
    18  H    1.090346   2.146533   2.876873   3.401603   5.768004
    19  H    3.398483   2.382956   1.362752   3.092518   5.022743
    20  H    2.157159   3.409448   4.924921   3.879304   6.230099
    21  H    3.888393   3.428363   4.970177   2.166124   3.470564
    22  H    3.409713   3.895695   5.694553   3.402244   5.302932
    23  S    4.039801   2.739357   3.181711   1.780036   2.394783
    24  C    7.974581   7.021393   6.796138   6.560019   3.664924
    25  C    9.317179   8.394222   8.114687   7.944839   5.014176
    26  C    8.756257   7.747222   7.212200   7.430476   4.730605
    27  N   10.425815   9.561111   9.374836   9.059532   6.063903
    28  N    9.046553   7.986550   7.161471   7.822411   5.431406
    29  C   10.622662   9.839605   9.915452   9.204266   6.177027
    30  H   10.977412  10.306609  10.426114   9.742109   6.801634
    31  H    9.759271   8.990157   9.203551   8.282396   5.271303
    32  H   11.464352  10.629053  10.721179   9.903245   6.842480
    33  C   11.685023  10.807462  10.468968  10.379297   7.423709
    34  H   12.184423  11.399628  11.123358  11.006063   8.073089
    35  H   12.400572  11.457048  11.126103  10.939262   7.932539
    36  H   11.583976  10.684755  10.171599  10.373026   7.534659
    37  C    8.141543   7.048287   6.002560   7.045807   5.125311
    38  H    8.519234   7.331013   6.192768   7.281618   5.519993
    39  H    7.093377   6.000500   5.065126   5.978114   4.115096
    40  H    8.329079   7.336640   6.141296   7.530806   5.856410
    41  C   10.446604   9.390669   8.461237   9.262674   6.877577
    42  H   10.788278   9.657842   8.616456   9.528494   7.290740
    43  H   10.671798   9.701455   8.690041   9.714212   7.460221
    44  H   11.112667  10.061681   9.268098   9.820357   7.217764
                    6          7          8          9         10
     6  C    0.000000
     7  C    4.890855   0.000000
     8  C    3.248610   2.419752   0.000000
     9  H    3.185741   4.922545   2.669127   0.000000
    10  C    2.410275   6.398138   4.843426   3.671043   0.000000
    11  C    1.398665   5.845610   4.479655   4.523281   2.866694
    12  C    2.378124   6.918609   5.592251   5.204306   2.464069
    13  C    2.759607   7.167134   5.753379   4.875537   1.423422
    14  H    3.401038   6.917790   5.383944   3.869913   1.092590
    15  H    2.202164   6.004415   4.819514   5.249832   3.959407
    16  H    3.377638   7.757348   6.562735   6.276365   3.446688
    17  C    4.143589   1.392983   1.397516   4.062712   5.936734
    18  H    5.799635   2.167240   3.888823   5.732607   6.597627
    19  H    5.785306   4.606391   4.393591   4.351493   5.459011
    20  H    5.773643   1.090583   3.409461   5.983059   7.374621
    21  H    3.080132   3.406667   1.089903   2.310938   4.820343
    22  H    4.604031   2.160081   2.153455   4.686484   6.643434
    23  S    3.204334   4.567001   2.777699   1.361633   3.184168
    24  C    4.200016   8.465920   7.136501   6.084952   2.475458
    25  C    5.445181   9.791134   8.482354   7.392889   3.843867
    26  C    5.442617   9.407884   8.176620   6.982697   3.406755
    27  N    6.318456  10.804072   9.478158   8.435276   4.999936
    28  N    6.314259   9.860328   8.740693   7.461113   4.080773
    29  C    6.164649  10.813293   9.408569   8.493592   5.357691
    30  H    6.648215  11.119063   9.885659   9.223288   6.065725
    31  H    5.166537   9.880319   8.409656   7.547090   4.599134
    32  H    6.856549  11.626562  10.075898   8.970777   6.026814
    33  C    7.746388  12.135157  10.869497   9.763451   6.278119
    34  H    8.259959  12.578505  11.425961  10.511676   7.008255
    35  H    8.295828  12.836019  11.416840  10.107461   6.777948
    36  H    7.986710  12.150971  10.989186   9.873413   6.301676
    37  C    6.156687   9.096192   8.122134   6.899656   3.881544
    38  H    6.664347   9.516240   8.419974   6.927215   4.305694
    39  H    5.153825   8.017087   7.041484   5.941500   2.953167
    40  H    6.826730   9.361817   8.651453   7.668323   4.698275
    41  C    7.743929  11.295119  10.199985   8.846175   5.517069
    42  H    8.271397  11.699596  10.540489   8.997381   5.933771
    43  H    8.275573  11.565150  10.677625   9.531943   6.139720
    44  H    7.990291  11.869044  10.657733   9.246729   5.857084
                   11         12         13         14         15
    11  C    0.000000
    12  C    1.401672   0.000000
    13  C    2.458598   1.417327   0.000000
    14  H    3.958945   3.463659   2.203758   0.000000
    15  H    1.092791   2.165523   3.444730   5.051685   0.000000
    16  H    2.160398   1.092850   2.169686   4.360999   2.485888
    17  C    5.157086   6.359875   6.699729   6.542943   5.269081
    18  H    6.743521   7.498540   7.443129   6.872011   7.117504
    19  H    7.007589   7.396466   6.730620   5.175789   7.804332
    20  H    6.597015   7.699571   8.051041   7.930515   6.621842
    21  H    4.282221   5.446444   5.678156   5.411244   4.574550
    22  H    5.466636   6.775751   7.289151   7.335156   5.378513
    23  S    4.550495   5.057096   4.524127   3.216987   5.399661
    24  C    3.768594   2.475795   1.440504   2.729783   4.640231
    25  C    4.804050   3.416699   2.732100   4.004581   5.518725
    26  C    5.120796   3.842552   2.729570   3.236843   6.001821
    27  N    5.470563   4.096058   3.769126   5.248941   5.999016
    28  N    6.183701   4.994583   3.765736   3.591536   7.119659
    29  C    5.126215   3.899691   4.034936   5.832321   5.435359
    30  H    5.472741   4.311784   4.671694   6.620694   5.613587
    31  H    4.117903   2.975439   3.291622   5.205930   4.424954
    32  H    5.873703   4.724343   4.805061   6.430987   6.163598
    33  C    6.914362   5.530442   5.124206   6.378887   7.426308
    34  H    7.293320   5.942252   5.752411   7.216425   7.672349
    35  H    7.511621   6.157833   5.705670   6.809791   8.034873
    36  H    7.270165   5.868510   5.268488   6.262361   7.874223
    37  C    6.313750   5.344962   4.030870   3.177059   7.319150
    38  H    6.968620   6.065440   4.679792   3.396526   8.017070
    39  H    5.413163   4.584041   3.286778   2.309047   6.436319
    40  H    6.951153   6.000202   4.790535   4.076305   7.909642
    41  C    7.533888   6.274775   5.121286   4.991526   8.424945
    42  H    8.208373   7.011897   5.756918   5.237754   9.156194
    43  H    8.017105   6.761017   5.693574   5.669744   8.864090
    44  H    7.637228   6.307338   5.268443   5.444232   8.464840
                   16         17         18         19         20
    16  H    0.000000
    17  C    7.227797   0.000000
    18  H    8.335650   3.410108   0.000000
    19  H    8.409835   5.006141   3.565302   0.000000
    20  H    8.461254   2.159029   2.492640   5.472845   0.000000
    21  H    6.406383   2.160292   4.978719   5.156496   4.308826
    22  H    7.568220   1.090567   4.315654   6.070034   2.494176
    23  S    6.148666   4.069787   4.885333   3.192832   5.657414
    24  C    2.685700   8.085199   8.527021   7.585723   9.337956
    25  C    3.199909   9.406102   9.837427   8.910984  10.631116
    26  C    3.960685   9.144550   9.200987   7.954241  10.288254
    27  N    3.563478  10.360894  10.964781  10.192388  11.604156
    28  N    5.203707   9.721832   9.386366   7.825160  10.752531
    29  C    3.158012  10.238885  11.247877  10.742506  11.572447
    30  H    3.375016  10.597812  11.558070  11.345316  11.801814
    31  H    2.297188   9.242662  10.440493  10.011259  10.646948
    32  H    4.063243  10.968238  12.135708  11.466410  12.413518
    33  C    4.963004  11.752274  12.160264  11.279555  12.927106
    34  H    5.210375  12.219640  12.633849  12.013474  13.309037
    35  H    5.641380  12.373708  12.925089  11.846071  13.667200
    36  H    5.415911  11.873090  11.982259  10.979992  12.949086
    37  C    5.785227   9.087116   8.399355   6.606496   9.997595
    38  H    6.585123   9.471491   8.795357   6.578652  10.463753
    39  H    5.162611   7.993858   7.399866   5.739420   8.927440
    40  H    6.370998   9.505856   8.448730   6.826284  10.198142
    41  C    6.333227  11.182156  10.735079   9.081986  12.174753
    42  H    7.178531  11.586216  11.070488   9.090878  12.617120
    43  H    6.749522  11.567715  10.861250   9.398089  12.387959
    44  H    6.226291  11.659418  11.466391   9.899223  12.750592
                   21         22         23         24         25
    21  H    0.000000
    22  H    2.478338   0.000000
    23  S    2.935395   4.930572   0.000000
    24  C    7.085760   8.707190   5.648456   0.000000
    25  C    8.388425   9.983250   7.011713   1.389207   0.000000
    26  C    8.200544   9.848532   6.399769   1.389102   1.405013
    27  N    9.310270  10.849987   8.170906   2.612214   1.319753
    28  N    8.860230  10.519382   6.718079   2.613040   2.638518
    29  C    9.123223  10.589047   8.429218   3.314326   2.424508
    30  H    9.645061  10.902217   9.127027   4.018685   3.135566
    31  H    8.084591   9.560238   7.559891   2.933783   2.517681
    32  H    9.698477  11.283489   9.018054   4.083715   3.146904
    33  C   10.731722  12.270918   9.437650   3.831055   2.442504
    34  H   11.302820  12.689440  10.191508   4.555433   3.214447
    35  H   11.198677  12.874979   9.874717   4.438256   3.088838
    36  H   10.941922  12.472731   9.409512   3.869891   2.568412
    37  C    8.371352   9.978593   5.965927   3.316354   3.826482
    38  H    8.630519  10.387285   6.021476   4.030135   4.523449
    39  H    7.316387   8.885883   4.973083   2.936967   3.813762
    40  H    9.011681  10.429671   6.624753   4.077063   4.481783
    41  C   10.309131  11.981607   8.115992   3.830836   3.383327
    42  H   10.643133  12.423962   8.258491   4.563124   4.249296
    43  H   10.875487  12.387028   8.705151   4.428433   3.960777
    44  H   10.674518  12.394174   8.646893   3.871566   3.070684
                   26         27         28         29         30
    26  C    0.000000
    27  N    2.638699   0.000000
    28  N    1.320169   3.715288   0.000000
    29  C    3.826505   1.466329   5.033041   0.000000
    30  H    4.515318   2.115079   5.688599   1.099665   0.000000
    31  H    3.811844   2.106456   5.110282   1.094291   1.792225
    32  H    4.490301   2.108078   5.622551   1.099636   1.789502
    33  C    3.385383   1.463547   4.081671   2.490735   2.801033
    34  H    4.241070   2.099673   4.960473   2.677337   2.539430
    35  H    3.977448   2.121001   4.596252   2.857738   3.324928
    36  H    3.067901   2.108233   3.444168   3.411482   3.714208
    37  C    2.425012   5.032317   1.466230   6.247978   6.894585
    38  H    3.141371   5.697188   2.114671   6.908223   7.652778
    39  H    2.519342   5.111348   2.107352   6.150218   6.789875
    40  H    3.142353   5.611758   2.108450   6.882060   7.405061
    41  C    2.442203   4.079839   1.463551   5.523055   6.117922
    42  H    3.219747   4.971858   2.099112   6.379886   7.059459
    43  H    3.081260   4.574351   2.121835   6.032783   6.464892
    44  H    2.570292   3.449975   2.108194   4.884857   5.486449
                   31         32         33         34         35
    31  H    0.000000
    32  H    1.782070   0.000000
    33  C    3.415022   2.729375   0.000000
    34  H    3.704047   2.949870   1.098849   0.000000
    35  H    3.792732   2.658364   1.100537   1.787505   0.000000
    36  H    4.207593   3.763653   1.094306   1.776506   1.793745
    37  C    6.149658   6.895322   5.523031   6.363348   6.055691
    38  H    6.802901   7.434671   6.125559   7.052149   6.498778
    39  H    5.870075   6.868965   5.860717   6.662010   6.450617
    40  H    6.856068   7.596692   5.957857   6.689903   6.584381
    41  C    5.858876   5.967270   3.910226   4.769639   4.283787
    42  H    6.675241   6.720642   4.783244   5.698471   4.974629
    43  H    6.429591   6.569394   4.260282   4.931635   4.781419
    44  H    5.371462   5.196966   3.035623   3.940695   3.269381
                   36         37         38         39         40
    36  H    0.000000
    37  C    4.877297   0.000000
    38  H    5.479646   1.099672   0.000000
    39  H    5.368407   1.094342   1.792655   0.000000
    40  H    5.184722   1.099698   1.789392   1.781006   0.000000
    41  C    3.024398   2.490695   2.798485   3.415800   2.731787
    42  H    3.936214   2.672699   2.532173   3.700367   2.945850
    43  H    3.241001   2.863224   3.328697   3.798407   2.667636
    44  H    2.182599   3.410461   3.708300   4.207845   3.766963
                   41         42         43         44
    41  C    0.000000
    42  H    1.098773   0.000000
    43  H    1.100617   1.787391   0.000000
    44  H    1.094381   1.776185   1.794121   0.000000
 Stoichiometry    C19H21N2S2(2+,2)
 Framework group  C1[X(C19H21N2S2)]
 Deg. of freedom   126
 Full point group                 C1      NOp   1
 Largest Abelian subgroup         C1      NOp   1
 Largest concise Abelian subgroup C1      NOp   1
                         Standard orientation:                         
 ---------------------------------------------------------------------
 Center     Atomic      Atomic             Coordinates (Angstroms)
 Number     Number       Type             X           Y           Z
 ---------------------------------------------------------------------
      1          6           0        5.141333    0.341453   -1.428653
      2          6           0        4.246330    0.793113   -0.457920
      3         16           0        3.527427    2.438238   -0.612926
      4          6           0        3.852580   -0.085202    0.570411
      5          6           0        0.863708   -0.787434    0.770822
      6          6           0        1.152588   -1.949541    0.292605
      7          6           0        5.641454   -0.963707   -1.380320
      8          6           0        4.337968   -1.397272    0.611701
      9          1           0        2.805747   -0.536686    2.620663
     10          6           0       -0.327590   -0.104924    0.757243
     11          6           0        0.161049   -2.709273   -0.336618
     12          6           0       -1.110551   -2.125038   -0.416532
     13          6           0       -1.366563   -0.836811    0.116144
     14          1           0       -0.506361    0.876389    1.203135
     15          1           0        0.333628   -3.701573   -0.760587
     16          1           0       -1.915541   -2.656529   -0.930176
     17          6           0        5.242141   -1.827604   -0.363151
     18          1           0        5.450891    1.025420   -2.219360
     19          1           0        4.159480    2.990100    0.460876
     20          1           0        6.347910   -1.298886   -2.140548
     21          1           0        4.022912   -2.077842    1.402557
     22          1           0        5.625918   -2.847650   -0.323690
     23         16           0        2.641644    0.489998    1.741439
     24          6           0       -2.680648   -0.257498    0.003764
     25          6           0       -4.054270   -0.413992   -0.132503
     26          6           0       -3.489875    0.870167   -0.052158
     27          7           0       -5.099740   -1.211802   -0.243141
     28          7           0       -3.607387    2.185094   -0.049886
     29          6           0       -4.958870   -2.662960   -0.086881
     30          1           0       -5.249390   -3.175063   -1.015650
     31          1           0       -3.921906   -2.911213    0.159186
     32          1           0       -5.607057   -3.011636    0.730112
     33          6           0       -6.456302   -0.708508   -0.463149
     34          1           0       -6.932296   -1.289768   -1.265044
     35          1           0       -7.062340   -0.804638    0.450448
     36          1           0       -6.424137    0.340187   -0.774131
     37          6           0       -2.422516    3.047015   -0.104701
     38          1           0       -2.374233    3.683098    0.791036
     39          1           0       -1.518165    2.434104   -0.168534
     40          1           0       -2.472812    3.689712   -0.995626
     41          6           0       -4.905946    2.859820   -0.071613
     42          1           0       -4.903422    3.671788    0.668659
     43          1           0       -5.109136    3.288120   -1.064906
     44          1           0       -5.701050    2.156915    0.195603
 ---------------------------------------------------------------------
 Rotational constants (GHZ):           0.4060159           0.0982633           0.0849802
 Leave Link  202 at Tue Jan 26 23:50:28 2021, MaxMem=  4026531840 cpu:               0.2 elap:               0.0
 (Enter /opt/ohpc/pub/libs/gaussian/g16-A.03/sandybridge/g16/l301.exe)
 Standard basis: TZVP (5D, 7F)
 Ernie: Thresh=  0.10000D-02 Tol=  0.10000D-05 Strict=F.
 There are   592 symmetry adapted cartesian basis functions of A   symmetry.
 There are   569 symmetry adapted basis functions of A   symmetry.
   569 basis functions,   997 primitive gaussians,   592 cartesian basis functions
    90 alpha electrons       89 beta electrons
       nuclear repulsion energy      2022.4848436690 Hartrees.
 IExCor=33909 DFT=T Ex+Corr=LC-wHPBE ExCW=0 ScaHFX=  1.000000
 ScaDFX=  1.000000  1.000000  1.000000  1.000000 ScalE2=  1.000000  1.000000
 IRadAn=      5 IRanWt=     -1 IRanGd=            0 ICorTp=0 IEmpDi=  4
 HFx  wShort=  0.000000 wLong=  0.172700 cFull=  0.000000 cShort=  0.000000 cLong=  1.000000
 DFx  wShort=  0.000000 wLong=  0.172700 cFull=  0.000000 cShort=  1.000000 cLong=  0.000000
 NAtoms=   44 NActive=   44 NUniq=   44 SFac= 1.00D+00 NAtFMM=   60 NAOKFM=F Big=F
 Integral buffers will be    131072 words long.
 Raffenetti 2 integral format.
 Two-electron integral symmetry is turned on.
 Leave Link  301 at Tue Jan 26 23:50:28 2021, MaxMem=  4026531840 cpu:               0.4 elap:               0.1
 (Enter /opt/ohpc/pub/libs/gaussian/g16-A.03/sandybridge/g16/l302.exe)
 NPDir=0 NMtPBC=     1 NCelOv=     1 NCel=       1 NClECP=     1 NCelD=      1
         NCelK=      1 NCelE2=     1 NClLst=     1 CellRange=     0.0.
 One-electron integrals computed using PRISM.
 One-electron integral symmetry used in STVInt
 NBasis=   569 RedAO= T EigKep=  9.00D-06  NBF=   569
 NBsUse=   569 1.00D-06 EigRej= -1.00D+00 NBFU=   569
 Precomputing XC quadrature grid using
 IXCGrd= 4 IRadAn=           5 IRanWt=          -1 IRanGd=           0 AccXCQ= 0.00D+00.
 Generated NRdTot=       0 NPtTot=           0 NUsed=           0 NTot=          32
 NSgBfM=   570   570   570   570   570 MxSgAt=    44 MxSgA2=    44.
 Leave Link  302 at Tue Jan 26 23:50:29 2021, MaxMem=  4026531840 cpu:               8.9 elap:               1.1
 (Enter /opt/ohpc/pub/libs/gaussian/g16-A.03/sandybridge/g16/l303.exe)
 DipDrv:  MaxL=1.
 Leave Link  303 at Tue Jan 26 23:50:29 2021, MaxMem=  4026531840 cpu:               0.8 elap:               0.2
 (Enter /opt/ohpc/pub/libs/gaussian/g16-A.03/sandybridge/g16/l401.exe)
 ExpMin= 9.52D-02 ExpMax= 6.07D+04 ExpMxC= 2.07D+03 IAcc=3 IRadAn=         5 AccDes= 0.00D+00
 Harris functional with IExCor=33909 and IRadAn=       5 diagonalized for initial guess.
 HarFok:  IExCor=33909 AccDes= 0.00D+00 IRadAn=         5 IDoV= 1 UseB2=F ITyADJ=14
 ICtDFT=  3500011 ScaDFX=  1.000000  1.000000  1.000000  1.000000
 FoFCou: FMM=F IPFlag=           0 FMFlag=      100000 FMFlg1=           0
         NFxFlg=           0 DoJE=T BraDBF=F KetDBF=T FulRan=T
         wScrn=  0.000000 ICntrl=       500 IOpCl=  0 I1Cent=   200000004 NGrid=           0
         NMat0=    1 NMatS0=      1 NMatT0=    0 NMatD0=    1 NMtDS0=    0 NMtDT0=    0
 Petite list used in FoFCou.
 Harris En= -1624.38274407403    
 JPrj=0 DoOrth=F DoCkMO=F.
 Initial guess <Sx>= 0.0000 <Sy>= 0.0000 <Sz>= 0.5000 <S**2>= 0.7500 S= 0.5000
 Leave Link  401 at Tue Jan 26 23:50:35 2021, MaxMem=  4026531840 cpu:              50.0 elap:               6.3
 (Enter /opt/ohpc/pub/libs/gaussian/g16-A.03/sandybridge/g16/l502.exe)
 Integral symmetry usage will be decided dynamically.
 UHF open shell SCF:
 Using DIIS extrapolation, IDIIS=    10.
 NGot=  4026531840 LenX=  4025820226 LenY=  4025469170
 Requested convergence on RMS density matrix=1.00D-06 within  32 cycles.
 Requested convergence on MAX density matrix=1.00D-04.
 Requested convergence on             energy=1.00D-04.
 Virtual orbitals will be shifted by   0.500 hartree.
 No special actions if energy rises.
 Dynamic level shift is on during FON iterations.

 Cycle   1  Pass 1  IDiag  1:
 FoFJK:  IHMeth= 1 ICntrl=       0 DoSepK=T KAlg= 0 I1Cent=           0 FoldK=F
 IRaf=         1 NMat=       1 IRICut=       1 DoRegI=T DoRafI=F ISym2E= 0 IDoP0=0 IntGTp=1.
 FoFCou: FMM=F IPFlag=           0 FMFlag=      100000 FMFlg1=           0
         NFxFlg=           0 DoJE=T BraDBF=F KetDBF=F FulRan=T
         wScrn=  0.000000 ICntrl=       500 IOpCl=  0 I1Cent=           0 NGrid=           0
         NMat0=    1 NMatS0=      1 NMatT0=    0 NMatD0=    1 NMtDS0=    0 NMtDT0=    0
 Symmetry not used in FoFCou.
 E= -1640.31865457059    
 DIIS: error= 2.85D-02 at cycle   1 NSaved=   1.
 NSaved= 1 IEnMin= 1 EnMin= -1640.31865457059     IErMin= 1 ErrMin= 2.85D-02
 ErrMax= 2.85D-02  0.00D+00 EMaxC= 1.00D+00 BMatC= 2.19D+00 BMatP= 2.19D+00
 IDIUse=1 WtCom= 1.00D+00 WtEn= 0.00D+00
 Coeff-Com:  0.100D+01
 Coeff:      0.100D+01
 Gap=     0.601 Goal=   None    Shift=    0.500
 T= 1466. Gap= 0.430 NK=0 IS=   91 IE=  569 IFin=   90
          NO(<0.9)=   0  NV(>0.1)=   0     90.00e < EF      0.00e >EF  Err=0.0D+00
 Gap=    -0.103 Goal=   None    Shift=    0.500
 T= 1466. Gap= 0.267 NK=0 IS=   90 IE=  569 IFin=   89
          NO(<0.9)=   0  NV(>0.1)=   0     89.00e < EF      0.00e >EF  Err=0.0D+00
 GapD=   -0.103 DampG=0.250 DampE=0.500 DampFc=0.1250 IDamp=-1.
 Damping current iteration by 1.25D-01
 RMSDP=4.71D-03 MaxDP=3.42D-01              OVMax= 2.95D-01

 Cycle   2  Pass 1  IDiag  1:
 E= -1640.44442450615     Delta-E=       -0.125769935566 Rises=F Damp=T
 DIIS: error= 2.43D-02 at cycle   2 NSaved=   2.
 NSaved= 2 IEnMin= 2 EnMin= -1640.44442450615     IErMin= 2 ErrMin= 2.43D-02
 ErrMax= 2.43D-02  0.00D+00 EMaxC= 1.00D+00 BMatC= 1.51D+00 BMatP= 2.19D+00
 IDIUse=1 WtCom= 1.00D+00 WtEn= 0.00D+00
 Coeff-Com: -0.463D+01 0.563D+01
 Coeff:     -0.463D+01 0.563D+01
 Gap=     0.279 Goal=   None    Shift=    0.500
 T= 1435. Gap= 0.718 NK=0 IS=   91 IE=  569 IFin=   90
          NO(<0.9)=   0  NV(>0.1)=   0     90.00e < EF      0.00e >EF  Err=0.0D+00
 Gap=     0.095 Goal=   None    Shift=    0.500
 T= 1435. Gap= 0.547 NK=0 IS=   90 IE=  569 IFin=   89
          NO(<0.9)=   0  NV(>0.1)=   0     89.00e < EF      0.00e >EF  Err=0.0D+00
 GapD=    0.095 DampG=0.500 DampE=0.500 DampFc=0.2500 IDamp=-1.
 Damping current iteration by 2.50D-01
 RMSDP=3.67D-03 MaxDP=2.25D-01 DE=-1.26D-01 OVMax= 5.36D-02

 Cycle   3  Pass 1  IDiag  1:
 E= -1640.62038650127     Delta-E=       -0.175961995115 Rises=F Damp=T
 DIIS: error= 1.90D-02 at cycle   3 NSaved=   3.
 NSaved= 3 IEnMin= 3 EnMin= -1640.62038650127     IErMin= 3 ErrMin= 1.90D-02
 ErrMax= 1.90D-02  0.00D+00 EMaxC= 1.00D+00 BMatC= 7.56D-01 BMatP= 1.51D+00
 IDIUse=1 WtCom= 1.00D+00 WtEn= 0.00D+00
 Coeff-Com:  0.812D+00-0.373D+01 0.392D+01
 Coeff:      0.812D+00-0.373D+01 0.392D+01
 Gap=     0.239 Goal=   None    Shift=    0.500
 T= 1361. Gap= 0.732 NK=0 IS=   91 IE=  569 IFin=   90
          NO(<0.9)=   0  NV(>0.1)=   0     90.00e < EF      0.00e >EF  Err=0.0D+00
 Gap=     0.089 Goal=   None    Shift=    0.500
 T= 1361. Gap= 0.590 NK=0 IS=   90 IE=  569 IFin=   89
          NO(<0.9)=   0  NV(>0.1)=   0     89.00e < EF      0.00e >EF  Err=0.0D+00
 GapD=    0.089 DampG=0.500 DampE=0.500 DampFc=0.2500 IDamp=-1.
 Damping current iteration by 2.50D-01
 RMSDP=2.44D-03 MaxDP=1.40D-01 DE=-1.76D-01 OVMax= 4.00D-02

 Cycle   4  Pass 1  IDiag  1:
 E= -1640.72401748184     Delta-E=       -0.103630980576 Rises=F Damp=T
 DIIS: error= 1.69D-02 at cycle   4 NSaved=   4.
 NSaved= 4 IEnMin= 4 EnMin= -1640.72401748184     IErMin= 4 ErrMin= 1.69D-02
 ErrMax= 1.69D-02  0.00D+00 EMaxC= 1.00D+00 BMatC= 3.99D-01 BMatP= 7.56D-01
 IDIUse=1 WtCom= 1.00D+00 WtEn= 0.00D+00
 Coeff-Com:  0.552D+00 0.163D+00-0.497D+01 0.526D+01
 Coeff:      0.552D+00 0.163D+00-0.497D+01 0.526D+01
 Gap=     0.234 Goal=   None    Shift=    0.500
 T= 1255. Gap= 0.734 NK=4 IS=   91 IE=  102 IFin=   90
          NO(<0.9)=   0  NV(>0.1)=   0     90.00e < EF      0.00e >EF  Err=0.0D+00
 Gap=     0.099 Goal=   None    Shift=    0.500
 T= 1255. Gap= 0.600 NK=4 IS=   90 IE=  102 IFin=   89
          NO(<0.9)=   0  NV(>0.1)=   0     89.00e < EF      0.00e >EF  Err=0.0D+00
 GapD=    0.099 DampG=0.500 DampE=0.500 DampFc=0.2500 IDamp=-1.
 Damping current iteration by 2.50D-01
 RMSDP=1.82D-03 MaxDP=1.27D-01 DE=-1.04D-01 OVMax= 3.61D-02

 Cycle   5  Pass 1  IDiag  1:
 E= -1640.78947583126     Delta-E=       -0.065458349412 Rises=F Damp=T
 DIIS: error= 1.49D-02 at cycle   5 NSaved=   5.
 NSaved= 5 IEnMin= 5 EnMin= -1640.78947583126     IErMin= 5 ErrMin= 1.49D-02
 ErrMax= 1.49D-02  0.00D+00 EMaxC= 1.00D+00 BMatC= 2.18D-01 BMatP= 3.99D-01
 IDIUse=1 WtCom= 1.00D+00 WtEn= 0.00D+00
 Coeff-Com: -0.168D+00 0.133D+01-0.190D+01-0.325D+01 0.499D+01
 Coeff:     -0.168D+00 0.133D+01-0.190D+01-0.325D+01 0.499D+01
 Gap=     0.235 Goal=   None    Shift=    0.500
 T= 1154. Gap= 0.735 NK=4 IS=   91 IE=  102 IFin=   90
          NO(<0.9)=   0  NV(>0.1)=   0     90.00e < EF      0.00e >EF  Err=0.0D+00
 Gap=     0.107 Goal=   None    Shift=    0.500
 T= 1154. Gap= 0.608 NK=4 IS=   90 IE=  102 IFin=   89
          NO(<0.9)=   0  NV(>0.1)=   0     89.00e < EF      0.00e >EF  Err=0.0D+00
 GapD=    0.107 DampG=1.000 DampE=0.500 DampFc=0.5000 IDamp=-1.
 Damping current iteration by 5.00D-01
 RMSDP=1.45D-03 MaxDP=1.07D-01 DE=-6.55D-02 OVMax= 3.91D-02

 Cycle   6  Pass 1  IDiag  1:
 E= -1640.87351325881     Delta-E=       -0.084037427556 Rises=F Damp=T
 DIIS: error= 1.08D-02 at cycle   6 NSaved=   6.
 NSaved= 6 IEnMin= 6 EnMin= -1640.87351325881     IErMin= 6 ErrMin= 1.08D-02
 ErrMax= 1.08D-02  0.00D+00 EMaxC= 1.00D+00 BMatC= 5.26D-02 BMatP= 2.18D-01
 IDIUse=1 WtCom= 1.00D+00 WtEn= 0.00D+00
 Coeff-Com: -0.123D+00 0.598D-01 0.146D+01-0.673D+00-0.333D+01 0.361D+01
 Coeff:     -0.123D+00 0.598D-01 0.146D+01-0.673D+00-0.333D+01 0.361D+01
 Gap=     0.235 Goal=   None    Shift=    0.500
 T= 1048. Gap= 0.735 NK=4 IS=   91 IE=  102 IFin=   90
          NO(<0.9)=   0  NV(>0.1)=   0     90.00e < EF      0.00e >EF  Err=0.0D+00
 Gap=     0.114 Goal=   None    Shift=    0.500
 T= 1048. Gap= 0.616 NK=4 IS=   90 IE=  102 IFin=   89
          NO(<0.9)=   0  NV(>0.1)=   0     89.00e < EF      0.00e >EF  Err=0.0D+00
 GapD=    0.114 DampG=1.000 DampE=0.500 DampFc=0.5000 IDamp=-1.
 Damping current iteration by 5.00D-01
 RMSDP=8.69D-04 MaxDP=5.96D-02 DE=-8.40D-02 OVMax= 3.99D-02

 Cycle   7  Pass 1  IDiag  1:
 E= -1640.91045468012     Delta-E=       -0.036941421308 Rises=F Damp=T
 DIIS: error= 8.18D-03 at cycle   7 NSaved=   7.
 NSaved= 7 IEnMin= 7 EnMin= -1640.91045468012     IErMin= 7 ErrMin= 8.18D-03
 ErrMax= 8.18D-03  0.00D+00 EMaxC= 1.00D+00 BMatC= 1.37D-02 BMatP= 5.26D-02
 IDIUse=1 WtCom= 1.00D+00 WtEn= 0.00D+00
 Coeff-Com: -0.175D-01-0.237D+00 0.120D+01 0.233D+00-0.226D+01-0.430D+00
 Coeff-Com:  0.251D+01
 Coeff:     -0.175D-01-0.237D+00 0.120D+01 0.233D+00-0.226D+01-0.430D+00
 Coeff:      0.251D+01
 Gap=     0.234 Goal=   None    Shift=    0.500
 T=  910. Gap= 0.734 NK=4 IS=   91 IE=  102 IFin=   90
          NO(<0.9)=   0  NV(>0.1)=   0     90.00e < EF      0.00e >EF  Err=0.0D+00
 Gap=     0.118 Goal=   None    Shift=    0.500
 T=  910. Gap= 0.619 NK=4 IS=   90 IE=  102 IFin=   89
          NO(<0.9)=   0  NV(>0.1)=   0     89.00e < EF      0.00e >EF  Err=0.0D+00
 GapD=    0.118 DampG=1.000 DampE=1.000 DampFc=1.0000 IDamp=-1.
 RMSDP=5.78D-04 MaxDP=3.66D-02 DE=-3.69D-02 OVMax= 3.68D-02

 Cycle   8  Pass 1  IDiag  1:
 E= -1640.94669916744     Delta-E=       -0.036244487325 Rises=F Damp=F
 DIIS: error= 5.05D-03 at cycle   8 NSaved=   8.
 NSaved= 8 IEnMin= 8 EnMin= -1640.94669916744     IErMin= 8 ErrMin= 5.05D-03
 ErrMax= 5.05D-03  0.00D+00 EMaxC= 1.00D+00 BMatC= 1.06D-03 BMatP= 1.37D-02
 IDIUse=1 WtCom= 1.00D+00 WtEn= 0.00D+00
 Coeff-Com:  0.271D-01-0.131D+00-0.427D-01 0.678D+00 0.289D+00-0.164D+01
 Coeff-Com: -0.298D+00 0.212D+01
 Coeff:      0.271D-01-0.131D+00-0.427D-01 0.678D+00 0.289D+00-0.164D+01
 Coeff:     -0.298D+00 0.212D+01
 Gap=     0.233 Goal=   None    Shift=    0.500
 T=  703. Gap= 0.733 NK=4 IS=   91 IE=  102 IFin=   90
          NO(<0.9)=   0  NV(>0.1)=   0     90.00e < EF      0.00e >EF  Err=0.0D+00
 Gap=     0.124 Goal=   None    Shift=    0.500
 T=  703. Gap= 0.626 NK=4 IS=   90 IE=  102 IFin=   89
          NO(<0.9)=   0  NV(>0.1)=   0     89.00e < EF      0.00e >EF  Err=0.0D+00
 GapD=    0.124 DampG=1.000 DampE=1.000 DampFc=1.0000 IDamp=-1.
 RMSDP=2.35D-04 MaxDP=1.75D-02 DE=-3.62D-02 OVMax= 4.17D-02

 Cycle   9  Pass 1  IDiag  1:
 E= -1640.94905720070     Delta-E=       -0.002358033257 Rises=F Damp=F
 DIIS: error= 5.04D-03 at cycle   9 NSaved=   9.
 NSaved= 9 IEnMin= 9 EnMin= -1640.94905720070     IErMin= 9 ErrMin= 5.04D-03
 ErrMax= 5.04D-03  0.00D+00 EMaxC= 1.00D+00 BMatC= 9.37D-04 BMatP= 1.06D-03
 IDIUse=1 WtCom= 1.00D+00 WtEn= 0.00D+00
 Coeff-Com:  0.729D-02-0.102D+00 0.240D-01 0.761D+00-0.382D+00-0.635D+00
 Coeff-Com: -0.617D+00 0.117D+01 0.771D+00
 Coeff:      0.729D-02-0.102D+00 0.240D-01 0.761D+00-0.382D+00-0.635D+00
 Coeff:     -0.617D+00 0.117D+01 0.771D+00
 Gap=     0.234 Goal=   None    Shift=    0.500
 T=  539. Gap= 0.734 NK=4 IS=   91 IE=  102 IFin=   90
          NO(<0.9)=   0  NV(>0.1)=   0     90.00e < EF      0.00e >EF  Err=0.0D+00
 Gap=     0.128 Goal=   None    Shift=    0.500
 T=  539. Gap= 0.629 NK=4 IS=   90 IE=  102 IFin=   89
          NO(<0.9)=   0  NV(>0.1)=   0     89.00e < EF      0.00e >EF  Err=0.0D+00
 GapD=    0.128 DampG=1.000 DampE=1.000 DampFc=1.0000 IDamp=-1.
 RMSDP=1.50D-04 MaxDP=9.31D-03 DE=-2.36D-03 OVMax= 3.55D-02

 Cycle  10  Pass 1  IDiag  1:
 E= -1640.95081637844     Delta-E=       -0.001759177737 Rises=F Damp=F
 DIIS: error= 4.63D-03 at cycle  10 NSaved=  10.
 NSaved=10 IEnMin=10 EnMin= -1640.95081637844     IErMin=10 ErrMin= 4.63D-03
 ErrMax= 4.63D-03  0.00D+00 EMaxC= 1.00D+00 BMatC= 7.66D-04 BMatP= 9.37D-04
 IDIUse=1 WtCom= 1.00D+00 WtEn= 0.00D+00
 Coeff-Com:  0.389D-02-0.649D-01 0.142D+00 0.102D+01-0.205D+01 0.141D+01
 Coeff-Com: -0.573D+00-0.435D+00-0.228D+01 0.383D+01
 Coeff:      0.389D-02-0.649D-01 0.142D+00 0.102D+01-0.205D+01 0.141D+01
 Coeff:     -0.573D+00-0.435D+00-0.228D+01 0.383D+01
 Gap=     0.231 Goal=   None    Shift=    0.500
 T=  409. Gap= 0.731 NK=4 IS=   91 IE=  102 IFin=   90
          NO(<0.9)=   0  NV(>0.1)=   0     90.00e < EF      0.00e >EF  Err=0.0D+00
 Gap=     0.136 Goal=   None    Shift=    0.500
 T=  409. Gap= 0.637 NK=4 IS=   90 IE=  101 IFin=   89
          NO(<0.9)=   0  NV(>0.1)=   0     89.00e < EF      0.00e >EF  Err=0.0D+00
 GapD=    0.136 DampG=1.000 DampE=1.000 DampFc=1.0000 IDamp=-1.
 RMSDP=2.83D-04 MaxDP=2.21D-02 DE=-1.76D-03 OVMax= 4.64D-02

 Cycle  11  Pass 1  IDiag  1:
 E= -1640.95278936088     Delta-E=       -0.001972982436 Rises=F Damp=F
 DIIS: error= 4.91D-03 at cycle  11 NSaved=  11.
 NSaved=11 IEnMin=11 EnMin= -1640.95278936088     IErMin=10 ErrMin= 4.63D-03
 ErrMax= 4.91D-03  0.00D+00 EMaxC= 1.00D+00 BMatC= 1.25D-03 BMatP= 7.66D-04
 IDIUse=1 WtCom= 1.00D+00 WtEn= 0.00D+00
 Coeff-Com:  0.196D-01-0.207D+00 0.786D+00 0.886D+00-0.334D+01 0.182D+01
 Coeff-Com:  0.109D+01-0.341D+00-0.540D+01 0.471D+01 0.970D+00
 Coeff:      0.196D-01-0.207D+00 0.786D+00 0.886D+00-0.334D+01 0.182D+01
 Coeff:      0.109D+01-0.341D+00-0.540D+01 0.471D+01 0.970D+00
 Gap=     0.231 Goal=   None    Shift=    0.500
 T=  404. Gap= 0.731 NK=4 IS=   91 IE=  102 IFin=   90
          NO(<0.9)=   0  NV(>0.1)=   0     90.00e < EF      0.00e >EF  Err=0.0D+00
 Gap=     0.137 Goal=   None    Shift=    0.500
 T=  404. Gap= 0.638 NK=4 IS=   90 IE=  101 IFin=   89
          NO(<0.9)=   0  NV(>0.1)=   0     89.00e < EF      0.00e >EF  Err=0.0D+00
 GapD=    0.137 DampG=1.000 DampE=1.000 DampFc=1.0000 IDamp=-1.
 RMSDP=1.65D-04 MaxDP=1.10D-02 DE=-1.97D-03 OVMax= 3.96D-02

 Cycle  12  Pass 1  IDiag  1:
 E= -1640.95428703219     Delta-E=       -0.001497671313 Rises=F Damp=F
 DIIS: error= 4.49D-03 at cycle  12 NSaved=  12.
 NSaved=12 IEnMin=12 EnMin= -1640.95428703219     IErMin=12 ErrMin= 4.49D-03
 ErrMax= 4.49D-03  0.00D+00 EMaxC= 1.00D+00 BMatC= 1.09D-03 BMatP= 7.66D-04
 IDIUse=1 WtCom= 1.00D+00 WtEn= 0.00D+00
 Coeff-Com:  0.396D-01-0.186D+00 0.484D+00 0.281D+00-0.108D+01-0.340D+00
 Coeff-Com:  0.137D+01 0.167D+01-0.571D+01 0.317D+01-0.153D+01 0.283D+01
 Coeff:      0.396D-01-0.186D+00 0.484D+00 0.281D+00-0.108D+01-0.340D+00
 Coeff:      0.137D+01 0.167D+01-0.571D+01 0.317D+01-0.153D+01 0.283D+01
 Gap=     0.232 Goal=   None    Shift=    0.500
 T=  381. Gap= 0.732 NK=4 IS=   91 IE=  102 IFin=   90
          NO(<0.9)=   0  NV(>0.1)=   0     90.00e < EF      0.00e >EF  Err=0.0D+00
 Gap=     0.140 Goal=   None    Shift=    0.500
 T=  381. Gap= 0.641 NK=4 IS=   90 IE=  101 IFin=   89
          NO(<0.9)=   0  NV(>0.1)=   0     89.00e < EF      0.00e >EF  Err=0.0D+00
 GapD=    0.140 DampG=1.000 DampE=1.000 DampFc=1.0000 IDamp=-1.
 RMSDP=1.51D-04 MaxDP=1.01D-02 DE=-1.50D-03 OVMax= 4.02D-02

 Cycle  13  Pass 1  IDiag  1:
 E= -1640.95560353149     Delta-E=       -0.001316499305 Rises=F Damp=F
 DIIS: error= 4.00D-03 at cycle  13 NSaved=  13.
 NSaved=13 IEnMin=13 EnMin= -1640.95560353149     IErMin=13 ErrMin= 4.00D-03
 ErrMax= 4.00D-03  0.00D+00 EMaxC= 1.00D+00 BMatC= 8.97D-04 BMatP= 7.66D-04
 IDIUse=1 WtCom= 1.00D+00 WtEn= 0.00D+00
 Coeff-Com:  0.123D-01-0.732D-01 0.272D+00-0.160D+00 0.654D-01-0.773D+00
 Coeff-Com:  0.730D+00 0.167D+01-0.301D+01 0.139D+01-0.222D+01 0.121D+01
 Coeff-Com:  0.189D+01
 Coeff:      0.123D-01-0.732D-01 0.272D+00-0.160D+00 0.654D-01-0.773D+00
 Coeff:      0.730D+00 0.167D+01-0.301D+01 0.139D+01-0.222D+01 0.121D+01
 Coeff:      0.189D+01
 Gap=     0.232 Goal=   None    Shift=    0.500
 T=  353. Gap= 0.732 NK=4 IS=   91 IE=  102 IFin=   90
          NO(<0.9)=   0  NV(>0.1)=   0     90.00e < EF      0.00e >EF  Err=0.0D+00
 Gap=     0.142 Goal=   None    Shift=    0.500
 T=  353. Gap= 0.643 NK=4 IS=   90 IE=  101 IFin=   89
          NO(<0.9)=   0  NV(>0.1)=   0     89.00e < EF      0.00e >EF  Err=0.0D+00
 GapD=    0.142 DampG=1.000 DampE=1.000 DampFc=1.0000 IDamp=-1.
 RMSDP=1.27D-04 MaxDP=9.07D-03 DE=-1.32D-03 OVMax= 3.57D-02

 Cycle  14  Pass 1  IDiag  1:
 E= -1640.95661130613     Delta-E=       -0.001007774640 Rises=F Damp=F
 DIIS: error= 3.51D-03 at cycle  14 NSaved=  14.
 NSaved=14 IEnMin=14 EnMin= -1640.95661130613     IErMin=14 ErrMin= 3.51D-03
 ErrMax= 3.51D-03  0.00D+00 EMaxC= 1.00D+00 BMatC= 6.69D-04 BMatP= 7.66D-04
 IDIUse=1 WtCom= 1.00D+00 WtEn= 0.00D+00
 Coeff-Com:  0.309D-02-0.202D-01 0.133D+00-0.752D-01 0.238D-01-0.271D+00
 Coeff-Com:  0.186D-01 0.583D+00-0.224D+00 0.368D+00-0.115D+01-0.726D+00
 Coeff-Com:  0.529D-01 0.229D+01
 Coeff:      0.309D-02-0.202D-01 0.133D+00-0.752D-01 0.238D-01-0.271D+00
 Coeff:      0.186D-01 0.583D+00-0.224D+00 0.368D+00-0.115D+01-0.726D+00
 Coeff:      0.529D-01 0.229D+01
 Gap=     0.232 Goal=   None    Shift=    0.500
 T=  287. Gap= 0.732 NK=4 IS=   91 IE=  102 IFin=   90
          NO(<0.9)=   0  NV(>0.1)=   0     90.00e < EF      0.00e >EF  Err=0.0D+00
 Gap=     0.144 Goal=   None    Shift=    0.500
 T=  287. Gap= 0.645 NK=4 IS=   90 IE=  101 IFin=   89
          NO(<0.9)=   0  NV(>0.1)=   0     89.00e < EF      0.00e >EF  Err=0.0D+00
 GapD=    0.144 DampG=1.000 DampE=1.000 DampFc=1.0000 IDamp=-1.
 RMSDP=1.16D-04 MaxDP=8.57D-03 DE=-1.01D-03 OVMax= 3.23D-02

 Cycle  15  Pass 1  IDiag  1:
 E= -1640.95735304743     Delta-E=       -0.000741741294 Rises=F Damp=F
 DIIS: error= 3.09D-03 at cycle  15 NSaved=  15.
 NSaved=15 IEnMin=15 EnMin= -1640.95735304743     IErMin=15 ErrMin= 3.09D-03
 ErrMax= 3.09D-03  0.00D+00 EMaxC= 1.00D+00 BMatC= 5.82D-04 BMatP= 6.69D-04
 IDIUse=1 WtCom= 1.00D+00 WtEn= 0.00D+00
 Coeff-Com:  0.691D-02-0.488D-01 0.116D+00 0.268D+00-0.486D+00-0.307D-01
 Coeff-Com:  0.104D+00 0.298D+00-0.747D+00 0.108D+01-0.404D+00-0.243D+00
 Coeff-Com: -0.904D+00-0.603D+00 0.260D+01
 Coeff:      0.691D-02-0.488D-01 0.116D+00 0.268D+00-0.486D+00-0.307D-01
 Coeff:      0.104D+00 0.298D+00-0.747D+00 0.108D+01-0.404D+00-0.243D+00
 Coeff:     -0.904D+00-0.603D+00 0.260D+01
 Gap=     0.231 Goal=   None    Shift=    0.500
 T=  213. Gap= 0.731 NK=4 IS=   91 IE=  103 IFin=   90
          NO(<0.9)=   0  NV(>0.1)=   0     90.00e < EF      0.00e >EF  Err=0.0D+00
 Gap=     0.145 Goal=   None    Shift=    0.500
 T=  213. Gap= 0.646 NK=4 IS=   90 IE=  101 IFin=   89
          NO(<0.9)=   0  NV(>0.1)=   0     89.00e < EF      0.00e >EF  Err=0.0D+00
 GapD=    0.145 DampG=1.000 DampE=1.000 DampFc=1.0000 IDamp=-1.
 RMSDP=8.91D-05 MaxDP=6.12D-03 DE=-7.42D-04 OVMax= 2.74D-02

 Cycle  16  Pass 1  IDiag  1:
 E= -1640.95790111213     Delta-E=       -0.000548064701 Rises=F Damp=F
 DIIS: error= 2.69D-03 at cycle  16 NSaved=  16.
 NSaved=16 IEnMin=16 EnMin= -1640.95790111213     IErMin=16 ErrMin= 2.69D-03
 ErrMax= 2.69D-03  0.00D+00 EMaxC= 1.00D+00 BMatC= 4.64D-04 BMatP= 5.82D-04
 IDIUse=1 WtCom= 1.00D+00 WtEn= 0.00D+00
 Coeff-Com:  0.240D-03-0.223D-01-0.293D-01 0.471D+00-0.497D+00-0.146D+00
 Coeff-Com:  0.169D+00 0.386D+00-0.147D+01 0.157D+01-0.561D-01 0.675D+00
 Coeff-Com: -0.742D+00-0.304D+01 0.120D+01 0.253D+01
 Coeff:      0.240D-03-0.223D-01-0.293D-01 0.471D+00-0.497D+00-0.146D+00
 Coeff:      0.169D+00 0.386D+00-0.147D+01 0.157D+01-0.561D-01 0.675D+00
 Coeff:     -0.742D+00-0.304D+01 0.120D+01 0.253D+01
 Gap=     0.230 Goal=   None    Shift=    0.500
 T=  134. Gap= 0.731 NK=4 IS=   91 IE=  103 IFin=   90
          NO(<0.9)=   0  NV(>0.1)=   0     90.00e < EF      0.00e >EF  Err=0.0D+00
 Gap=     0.146 Goal=   None    Shift=    0.500
 T=  134. Gap= 0.647 NK=4 IS=   90 IE=  101 IFin=   89
          NO(<0.9)=   0  NV(>0.1)=   0     89.00e < EF      0.00e >EF  Err=0.0D+00
 GapD=    0.146 DampG=1.000 DampE=1.000 DampFc=1.0000 IDamp=-1.
 RMSDP=8.14D-05 MaxDP=5.09D-03 DE=-5.48D-04 OVMax= 2.51D-02

 Cycle  17  Pass 1  IDiag  1:
 E= -1640.95834121806     Delta-E=       -0.000440105935 Rises=F Damp=F
 DIIS: error= 2.34D-03 at cycle  17 NSaved=  17.
 NSaved=17 IEnMin=17 EnMin= -1640.95834121806     IErMin=17 ErrMin= 2.34D-03
 ErrMax= 2.34D-03  0.00D+00 EMaxC= 1.00D+00 BMatC= 3.66D-04 BMatP= 4.64D-04
 IDIUse=1 WtCom= 1.00D+00 WtEn= 0.00D+00
 Coeff-Com:  0.112D-02-0.958D-02-0.727D-01 0.416D+00-0.356D+00-0.135D+00
 Coeff-Com:  0.554D-01 0.275D+00-0.109D+01 0.133D+01-0.548D-01 0.382D+00
 Coeff-Com: -0.109D+00-0.223D+01-0.387D+00 0.149D+01 0.149D+01
 Coeff:      0.112D-02-0.958D-02-0.727D-01 0.416D+00-0.356D+00-0.135D+00
 Coeff:      0.554D-01 0.275D+00-0.109D+01 0.133D+01-0.548D-01 0.382D+00
 Coeff:     -0.109D+00-0.223D+01-0.387D+00 0.149D+01 0.149D+01
 Gap=     0.230 Goal=   None    Shift=    0.500
 T=   53. Gap= 0.730 NK=4 IS=   91 IE=  103 IFin=   90
          NO(<0.9)=   0  NV(>0.1)=   0     90.00e < EF      0.00e >EF  Err=0.0D+00
 Gap=     0.147 Goal=   None    Shift=    0.500
 T=   53. Gap= 0.648 NK=4 IS=   90 IE=  101 IFin=   89
          NO(<0.9)=   0  NV(>0.1)=   0     89.00e < EF      0.00e >EF  Err=0.0D+00
 GapD=    0.147 DampG=1.000 DampE=1.000 DampFc=1.0000 IDamp=-1.
 RMSDP=6.97D-05 MaxDP=4.52D-03 DE=-4.40D-04 OVMax= 2.19D-02

 Cycle  18  Pass 1  IDiag  1:
 E= -1640.95867444059     Delta-E=       -0.000333222527 Rises=F Damp=F
 DIIS: error= 2.02D-03 at cycle  18 NSaved=  18.
 NSaved=18 IEnMin=18 EnMin= -1640.95867444059     IErMin=18 ErrMin= 2.02D-03
 ErrMax= 2.02D-03  0.00D+00 EMaxC= 1.00D+00 BMatC= 2.87D-04 BMatP= 3.66D-04
 IDIUse=1 WtCom= 1.00D+00 WtEn= 0.00D+00
 Coeff-Com:  0.662D-02-0.155D-01-0.256D-01 0.211D+00-0.189D+00-0.320D-01
 Coeff-Com: -0.666D-01-0.553D-01 0.779D-01 0.503D+00-0.113D+00-0.713D+00
 Coeff-Com:  0.378D+00 0.345D+00-0.637D+00-0.463D+00-0.128D+01 0.307D+01
 Coeff:      0.662D-02-0.155D-01-0.256D-01 0.211D+00-0.189D+00-0.320D-01
 Coeff:     -0.666D-01-0.553D-01 0.779D-01 0.503D+00-0.113D+00-0.713D+00
 Coeff:      0.378D+00 0.345D+00-0.637D+00-0.463D+00-0.128D+01 0.307D+01
 Gap=     0.229 Goal=   None    Shift=    0.500
 Gap=     0.148 Goal=   None    Shift=    0.500
 GapD=    0.148 DampG=1.000 DampE=1.000 DampFc=1.0000 IDamp=-1.
 RMSDP=6.97D-05 MaxDP=4.38D-03 DE=-3.33D-04 OVMax= 2.07D-02

 Cycle  19  Pass 1  IDiag  1:
 E= -1640.95893982781     Delta-E=       -0.000265387221 Rises=F Damp=F
 DIIS: error= 1.76D-03 at cycle  19 NSaved=  19.
 NSaved=19 IEnMin=19 EnMin= -1640.95893982781     IErMin=19 ErrMin= 1.76D-03
 ErrMax= 1.76D-03  0.00D+00 EMaxC= 1.00D+00 BMatC= 2.59D-04 BMatP= 2.87D-04
 IDIUse=1 WtCom= 1.00D+00 WtEn= 0.00D+00
 Coeff-Com:  0.459D-02-0.199D-01 0.936D-02 0.124D+00-0.118D+00-0.340D-01
 Coeff-Com: -0.681D-01-0.752D-01 0.348D+00 0.283D+00-0.220D+00-0.103D+01
 Coeff-Com:  0.355D+00 0.925D+00 0.557D+00-0.854D+00-0.324D+01 0.240D+01
 Coeff-Com:  0.166D+01
 Coeff:      0.459D-02-0.199D-01 0.936D-02 0.124D+00-0.118D+00-0.340D-01
 Coeff:     -0.681D-01-0.752D-01 0.348D+00 0.283D+00-0.220D+00-0.103D+01
 Coeff:      0.355D+00 0.925D+00 0.557D+00-0.854D+00-0.324D+01 0.240D+01
 Coeff:      0.166D+01
 Gap=     0.229 Goal=   None    Shift=    0.500
 Gap=     0.148 Goal=   None    Shift=    0.500
 GapD=    0.148 DampG=1.000 DampE=1.000 DampFc=1.0000 IDamp=-1.
 RMSDP=5.41D-05 MaxDP=2.74D-03 DE=-2.65D-04 OVMax= 1.80D-02

 Cycle  20  Pass 1  IDiag  1:
 E= -1640.95915389252     Delta-E=       -0.000214064706 Rises=F Damp=F
 DIIS: error= 1.50D-03 at cycle  20 NSaved=  20.
 NSaved=20 IEnMin=20 EnMin= -1640.95915389252     IErMin=20 ErrMin= 1.50D-03
 ErrMax= 1.50D-03  0.00D+00 EMaxC= 1.00D+00 BMatC= 1.93D-04 BMatP= 2.59D-04
 IDIUse=1 WtCom= 1.00D+00 WtEn= 0.00D+00
 Coeff-Com: -0.486D-02 0.311D-02-0.366D-01 0.236D+00-0.275D+00 0.699D-01
 Coeff-Com: -0.336D-01 0.567D-02-0.502D+00 0.782D+00 0.161D+00-0.172D-01
 Coeff-Com: -0.427D+00-0.160D+01 0.190D+01 0.120D+01-0.693D+00-0.143D+01
 Coeff-Com: -0.362D+01 0.529D+01
 Coeff:     -0.486D-02 0.311D-02-0.366D-01 0.236D+00-0.275D+00 0.699D-01
 Coeff:     -0.336D-01 0.567D-02-0.502D+00 0.782D+00 0.161D+00-0.172D-01
 Coeff:     -0.427D+00-0.160D+01 0.190D+01 0.120D+01-0.693D+00-0.143D+01
 Coeff:     -0.362D+01 0.529D+01
 Gap=     0.228 Goal=   None    Shift=    0.500
 Gap=     0.149 Goal=   None    Shift=    0.500
 GapD=    0.149 DampG=1.000 DampE=1.000 DampFc=1.0000 IDamp=-1.
 RMSDP=6.13D-05 MaxDP=4.14D-03 DE=-2.14D-04 OVMax= 1.78D-02

 Cycle  21  Pass 1  IDiag  1:
 E= -1640.95932561217     Delta-E=       -0.000171719651 Rises=F Damp=F
 DIIS: error= 1.31D-03 at cycle  21 NSaved=  20.
 NSaved=20 IEnMin=20 EnMin= -1640.95932561217     IErMin=20 ErrMin= 1.31D-03
 ErrMax= 1.31D-03  0.00D+00 EMaxC= 1.00D+00 BMatC= 1.84D-04 BMatP= 1.93D-04
 IDIUse=1 WtCom= 1.00D+00 WtEn= 0.00D+00
 Coeff-Com: -0.529D-02-0.524D-01 0.288D+00-0.319D+00 0.111D+00-0.743D-01
 Coeff-Com:  0.149D-01-0.685D+00 0.984D+00 0.196D+00 0.285D+00-0.596D+00
 Coeff-Com: -0.227D+01 0.171D+01 0.181D+01 0.651D+00-0.206D+01-0.482D+01
 Coeff-Com:  0.476D+01 0.107D+01
 Coeff:     -0.529D-02-0.524D-01 0.288D+00-0.319D+00 0.111D+00-0.743D-01
 Coeff:      0.149D-01-0.685D+00 0.984D+00 0.196D+00 0.285D+00-0.596D+00
 Coeff:     -0.227D+01 0.171D+01 0.181D+01 0.651D+00-0.206D+01-0.482D+01
 Coeff:      0.476D+01 0.107D+01
 Gap=     0.228 Goal=   None    Shift=    0.500
 Gap=     0.149 Goal=   None    Shift=    0.500
 GapD=    0.149 DampG=1.000 DampE=1.000 DampFc=1.0000 IDamp=-1.
 RMSDP=4.48D-05 MaxDP=2.64D-03 DE=-1.72D-04 OVMax= 1.46D-02

 Cycle  22  Pass 1  IDiag  1:
 E= -1640.95945401824     Delta-E=       -0.000128406067 Rises=F Damp=F
 DIIS: error= 1.12D-03 at cycle  22 NSaved=  20.
 NSaved=20 IEnMin=20 EnMin= -1640.95945401824     IErMin=20 ErrMin= 1.12D-03
 ErrMax= 1.12D-03  0.00D+00 EMaxC= 1.00D+00 BMatC= 1.46D-04 BMatP= 1.84D-04
 IDIUse=1 WtCom= 1.00D+00 WtEn= 0.00D+00
 Coeff-Com: -0.446D-01 0.197D+00-0.232D+00 0.183D+00-0.178D+00-0.131D+00
 Coeff-Com: -0.109D+00 0.635D+00 0.140D+00 0.364D-01-0.475D+00-0.126D+01
 Coeff-Com:  0.250D+00 0.124D+01 0.131D+01-0.519D+00-0.267D+01 0.103D+01
 Coeff-Com: -0.190D+01 0.350D+01
 Coeff:     -0.446D-01 0.197D+00-0.232D+00 0.183D+00-0.178D+00-0.131D+00
 Coeff:     -0.109D+00 0.635D+00 0.140D+00 0.364D-01-0.475D+00-0.126D+01
 Coeff:      0.250D+00 0.124D+01 0.131D+01-0.519D+00-0.267D+01 0.103D+01
 Coeff:     -0.190D+01 0.350D+01
 Gap=     0.227 Goal=   None    Shift=    0.500
 Gap=     0.149 Goal=   None    Shift=    0.500
 GapD=    0.149 DampG=1.000 DampE=1.000 DampFc=1.0000 IDamp=-1.
 RMSDP=4.16D-05 MaxDP=2.74D-03 DE=-1.28D-04 OVMax= 1.35D-02

 Cycle  23  Pass 1  IDiag  1:
 E= -1640.95955825822     Delta-E=       -0.000104239984 Rises=F Damp=F
 DIIS: error= 9.50D-04 at cycle  23 NSaved=  20.
 NSaved=20 IEnMin=20 EnMin= -1640.95955825822     IErMin=20 ErrMin= 9.50D-04
 ErrMax= 9.50D-04  0.00D+00 EMaxC= 1.00D+00 BMatC= 1.13D-04 BMatP= 1.46D-04
 IDIUse=1 WtCom= 1.00D+00 WtEn= 0.00D+00
 Coeff-Com:  0.926D-01-0.198D+00 0.189D+00-0.933D-01-0.238D+00 0.126D+00
 Coeff-Com:  0.395D+00 0.124D+00-0.345D+00-0.126D+00-0.318D+00-0.211D+00
 Coeff-Com:  0.395D+00 0.400D+00 0.800D+00-0.504D+00-0.510D+00-0.332D+01
 Coeff-Com:  0.286D+01 0.149D+01
 Coeff:      0.926D-01-0.198D+00 0.189D+00-0.933D-01-0.238D+00 0.126D+00
 Coeff:      0.395D+00 0.124D+00-0.345D+00-0.126D+00-0.318D+00-0.211D+00
 Coeff:      0.395D+00 0.400D+00 0.800D+00-0.504D+00-0.510D+00-0.332D+01
 Coeff:      0.286D+01 0.149D+01
 Gap=     0.227 Goal=   None    Shift=    0.500
 Gap=     0.149 Goal=   None    Shift=    0.500
 RMSDP=3.43D-05 MaxDP=2.11D-03 DE=-1.04D-04 OVMax= 1.15D-02

 Cycle  24  Pass 1  IDiag  1:
 E= -1640.95963486514     Delta-E=       -0.000076606922 Rises=F Damp=F
 DIIS: error= 7.90D-04 at cycle  24 NSaved=  20.
 NSaved=20 IEnMin=20 EnMin= -1640.95963486514     IErMin=20 ErrMin= 7.90D-04
 ErrMax= 7.90D-04  0.00D+00 EMaxC= 1.00D+00 BMatC= 8.08D-05 BMatP= 1.13D-04
 IDIUse=1 WtCom= 1.00D+00 WtEn= 0.00D+00
 Coeff-Com:  0.860D-02-0.256D-01 0.109D-01-0.157D+00 0.142D+00 0.141D+00
 Coeff-Com:  0.871D-01-0.499D+00 0.297D+00 0.849D-01-0.779D-02-0.204D+00
 Coeff-Com: -0.871D+00 0.131D+01 0.555D+00 0.792D-01-0.246D+01 0.712D+00
 Coeff-Com: -0.127D+01 0.307D+01
 Coeff:      0.860D-02-0.256D-01 0.109D-01-0.157D+00 0.142D+00 0.141D+00
 Coeff:      0.871D-01-0.499D+00 0.297D+00 0.849D-01-0.779D-02-0.204D+00
 Coeff:     -0.871D+00 0.131D+01 0.555D+00 0.792D-01-0.246D+01 0.712D+00
 Coeff:     -0.127D+01 0.307D+01
 Gap=     0.227 Goal=   None    Shift=    0.500
 Gap=     0.150 Goal=   None    Shift=    0.500
 RMSDP=3.57D-05 MaxDP=2.41D-03 DE=-7.66D-05 OVMax= 1.05D-02

 Cycle  25  Pass 1  IDiag  1:
 E= -1640.95968509489     Delta-E=       -0.000050229749 Rises=F Damp=F
 DIIS: error= 6.83D-04 at cycle  25 NSaved=  20.
 NSaved=20 IEnMin=20 EnMin= -1640.95968509489     IErMin=20 ErrMin= 6.83D-04
 ErrMax= 6.83D-04  0.00D+00 EMaxC= 1.00D+00 BMatC= 7.94D-05 BMatP= 8.08D-05
 IDIUse=1 WtCom= 1.00D+00 WtEn= 0.00D+00
 Coeff-Com: -0.520D-02 0.406D-02-0.442D-01-0.550D-01 0.228D+00-0.206D-01
 Coeff-Com: -0.315D+00 0.277D+00-0.165D+00 0.315D+00-0.677D-01-0.795D+00
 Coeff-Com:  0.715D+00-0.401D+00 0.119D+01-0.797D+00 0.333D-02-0.276D+01
 Coeff-Com:  0.208D+01 0.162D+01
 Coeff:     -0.520D-02 0.406D-02-0.442D-01-0.550D-01 0.228D+00-0.206D-01
 Coeff:     -0.315D+00 0.277D+00-0.165D+00 0.315D+00-0.677D-01-0.795D+00
 Coeff:      0.715D+00-0.401D+00 0.119D+01-0.797D+00 0.333D-02-0.276D+01
 Coeff:      0.208D+01 0.162D+01
 Gap=     0.227 Goal=   None    Shift=    0.500
 Gap=     0.150 Goal=   None    Shift=    0.500
 RMSDP=2.51D-05 MaxDP=1.32D-03 DE=-5.02D-05 OVMax= 8.52D-03

 Cycle  26  Pass 1  IDiag  1:
 E= -1640.95972678119     Delta-E=       -0.000041686301 Rises=F Damp=F
 DIIS: error= 5.58D-04 at cycle  26 NSaved=  20.
 NSaved=20 IEnMin=20 EnMin= -1640.95972678119     IErMin=20 ErrMin= 5.58D-04
 ErrMax= 5.58D-04  0.00D+00 EMaxC= 1.00D+00 BMatC= 5.37D-05 BMatP= 7.94D-05
 IDIUse=1 WtCom= 1.00D+00 WtEn= 0.00D+00
 Coeff-Com: -0.509D-02-0.463D-01-0.758D-01 0.193D+00 0.733D-01-0.995D-01
 Coeff-Com:  0.549D-02-0.419D+00 0.391D+00 0.240D+00-0.943D-01-0.978D-01
 Coeff-Com: -0.123D+01 0.147D+01 0.302D+00 0.464D-01-0.188D+01 0.760D+00
 Coeff-Com: -0.176D+01 0.322D+01
 Coeff:     -0.509D-02-0.463D-01-0.758D-01 0.193D+00 0.733D-01-0.995D-01
 Coeff:      0.549D-02-0.419D+00 0.391D+00 0.240D+00-0.943D-01-0.978D-01
 Coeff:     -0.123D+01 0.147D+01 0.302D+00 0.464D-01-0.188D+01 0.760D+00
 Coeff:     -0.176D+01 0.322D+01
 Gap=     0.227 Goal=   None    Shift=    0.500
 Gap=     0.150 Goal=   None    Shift=    0.500
 RMSDP=2.26D-05 MaxDP=1.24D-03 DE=-4.17D-05 OVMax= 7.44D-03

 Cycle  27  Pass 1  IDiag  1:
 E= -1640.95975503328     Delta-E=       -0.000028252085 Rises=F Damp=F
 DIIS: error= 4.59D-04 at cycle  27 NSaved=  20.
 NSaved=20 IEnMin=20 EnMin= -1640.95975503328     IErMin=20 ErrMin= 4.59D-04
 ErrMax= 4.59D-04  0.00D+00 EMaxC= 1.00D+00 BMatC= 4.03D-05 BMatP= 5.37D-05
 IDIUse=1 WtCom= 1.00D+00 WtEn= 0.00D+00
 Coeff-Com: -0.152D+00 0.104D+00 0.886D-01 0.191D+00-0.803D-01-0.168D+00
 Coeff-Com: -0.362D+00-0.301D-02 0.388D+00 0.494D+00-0.110D+00-0.793D+00
 Coeff-Com:  0.272D+00-0.588D+00 0.104D+01 0.464D+00 0.166D+00-0.425D+01
 Coeff-Com:  0.212D+01 0.218D+01
 Coeff:     -0.152D+00 0.104D+00 0.886D-01 0.191D+00-0.803D-01-0.168D+00
 Coeff:     -0.362D+00-0.301D-02 0.388D+00 0.494D+00-0.110D+00-0.793D+00
 Coeff:      0.272D+00-0.588D+00 0.104D+01 0.464D+00 0.166D+00-0.425D+01
 Coeff:      0.212D+01 0.218D+01
 Gap=     0.227 Goal=   None    Shift=    0.500
 Gap=     0.150 Goal=   None    Shift=    0.500
 RMSDP=1.99D-05 MaxDP=1.19D-03 DE=-2.83D-05 OVMax= 6.51D-03

 Cycle  28  Pass 1  IDiag  1:
 E= -1640.95977429529     Delta-E=       -0.000019262014 Rises=F Damp=F
 DIIS: error= 3.75D-04 at cycle  28 NSaved=  20.
 NSaved=20 IEnMin=20 EnMin= -1640.95977429529     IErMin=20 ErrMin= 3.75D-04
 ErrMax= 3.75D-04  0.00D+00 EMaxC= 1.00D+00 BMatC= 3.24D-05 BMatP= 4.03D-05
 IDIUse=1 WtCom= 1.00D+00 WtEn= 0.00D+00
 Coeff-Com: -0.165D+00 0.209D+00 0.330D-01-0.257D-02 0.269D-01-0.367D+00
 Coeff-Com:  0.127D+00 0.299D+00-0.556D-01 0.595D-01-0.323D+00 0.296D+00
 Coeff-Com: -0.828D+00 0.826D+00 0.265D+00 0.485D+00-0.208D+01-0.126D+00
 Coeff-Com:  0.155D+00 0.217D+01
 Coeff:     -0.165D+00 0.209D+00 0.330D-01-0.257D-02 0.269D-01-0.367D+00
 Coeff:      0.127D+00 0.299D+00-0.556D-01 0.595D-01-0.323D+00 0.296D+00
 Coeff:     -0.828D+00 0.826D+00 0.265D+00 0.485D+00-0.208D+01-0.126D+00
 Coeff:      0.155D+00 0.217D+01
 Gap=     0.227 Goal=   None    Shift=    0.500
 Gap=     0.150 Goal=   None    Shift=    0.500
 RMSDP=1.41D-05 MaxDP=7.77D-04 DE=-1.93D-05 OVMax= 4.74D-03

 Cycle  29  Pass 1  IDiag  1:
 E= -1640.95978901370     Delta-E=       -0.000014718408 Rises=F Damp=F
 DIIS: error= 2.93D-04 at cycle  29 NSaved=  20.
 NSaved=20 IEnMin=20 EnMin= -1640.95978901370     IErMin=20 ErrMin= 2.93D-04
 ErrMax= 2.93D-04  0.00D+00 EMaxC= 1.00D+00 BMatC= 1.82D-05 BMatP= 3.24D-05
 IDIUse=1 WtCom= 1.00D+00 WtEn= 0.00D+00
 Coeff-Com:  0.145D-01 0.499D-01-0.188D+00 0.154D+00 0.534D-01-0.692D-01
 Coeff-Com: -0.130D+00-0.442D+00 0.631D+00 0.767D+00-0.489D+00-0.125D+01
 Coeff-Com:  0.401D+00 0.267D+00 0.846D+00 0.961D+00-0.203D+01-0.136D+01
 Coeff-Com: -0.106D+00 0.292D+01
 Coeff:      0.145D-01 0.499D-01-0.188D+00 0.154D+00 0.534D-01-0.692D-01
 Coeff:     -0.130D+00-0.442D+00 0.631D+00 0.767D+00-0.489D+00-0.125D+01
 Coeff:      0.401D+00 0.267D+00 0.846D+00 0.961D+00-0.203D+01-0.136D+01
 Coeff:     -0.106D+00 0.292D+01
 Gap=     0.227 Goal=   None    Shift=    0.500
 Gap=     0.150 Goal=   None    Shift=    0.500
 RMSDP=1.19D-05 MaxDP=6.02D-04 DE=-1.47D-05 OVMax= 4.05D-03

 Cycle  30  Pass 1  IDiag  1:
 E= -1640.95979837032     Delta-E=       -0.000009356623 Rises=F Damp=F
 DIIS: error= 2.33D-04 at cycle  30 NSaved=  20.
 NSaved=20 IEnMin=20 EnMin= -1640.95979837032     IErMin=20 ErrMin= 2.33D-04
 ErrMax= 2.33D-04  0.00D+00 EMaxC= 1.00D+00 BMatC= 1.17D-05 BMatP= 1.82D-05
 IDIUse=1 WtCom= 1.00D+00 WtEn= 0.00D+00
 Coeff-Com:  0.129D-01-0.116D+00 0.158D+00 0.703D-01-0.129D+00-0.153D+00
 Coeff-Com: -0.202D+00 0.447D+00 0.359D+00-0.237D+00-0.549D+00 0.713D-01
 Coeff-Com: -0.350D+00 0.610D+00 0.154D+01-0.112D+01-0.114D+01-0.147D+01
 Coeff-Com:  0.152D+01 0.169D+01
 Coeff:      0.129D-01-0.116D+00 0.158D+00 0.703D-01-0.129D+00-0.153D+00
 Coeff:     -0.202D+00 0.447D+00 0.359D+00-0.237D+00-0.549D+00 0.713D-01
 Coeff:     -0.350D+00 0.610D+00 0.154D+01-0.112D+01-0.114D+01-0.147D+01
 Coeff:      0.152D+01 0.169D+01
 Gap=     0.227 Goal=   None    Shift=    0.500
 Gap=     0.150 Goal=   None    Shift=    0.500
 RMSDP=9.88D-06 MaxDP=5.61D-04 DE=-9.36D-06 OVMax= 3.29D-03

 Cycle  31  Pass 1  IDiag  1:
 E= -1640.95980413085     Delta-E=       -0.000005760523 Rises=F Damp=F
 DIIS: error= 1.86D-04 at cycle  31 NSaved=  20.
 NSaved=20 IEnMin=20 EnMin= -1640.95980413085     IErMin=20 ErrMin= 1.86D-04
 ErrMax= 1.86D-04  0.00D+00 EMaxC= 1.00D+00 BMatC= 8.75D-06 BMatP= 1.17D-05
 IDIUse=1 WtCom= 1.00D+00 WtEn= 0.00D+00
 Coeff-Com: -0.400D-01 0.799D-01-0.221D-01 0.162D-02-0.505D-01-0.116D-01
 Coeff-Com:  0.511D-01-0.310D+00 0.384D+00 0.332D+00-0.300D+00-0.852D+00
 Coeff-Com:  0.332D+00 0.570D+00 0.737D+00-0.227D+00-0.179D+01-0.274D+00
 Coeff-Com:  0.237D+00 0.215D+01
 Coeff:     -0.400D-01 0.799D-01-0.221D-01 0.162D-02-0.505D-01-0.116D-01
 Coeff:      0.511D-01-0.310D+00 0.384D+00 0.332D+00-0.300D+00-0.852D+00
 Coeff:      0.332D+00 0.570D+00 0.737D+00-0.227D+00-0.179D+01-0.274D+00
 Coeff:      0.237D+00 0.215D+01
 Gap=     0.227 Goal=   None    Shift=    0.500
 Gap=     0.150 Goal=   None    Shift=    0.500
 RMSDP=8.13D-06 MaxDP=4.30D-04 DE=-5.76D-06 OVMax= 2.76D-03

 Cycle  32  Pass 1  IDiag  1:
 E= -1640.95980834547     Delta-E=       -0.000004214619 Rises=F Damp=F
 DIIS: error= 1.47D-04 at cycle  32 NSaved=  20.
 NSaved=20 IEnMin=20 EnMin= -1640.95980834547     IErMin=20 ErrMin= 1.47D-04
 ErrMax= 1.47D-04  0.00D+00 EMaxC= 1.00D+00 BMatC= 6.06D-06 BMatP= 8.75D-06
 IDIUse=1 WtCom= 1.00D+00 WtEn= 0.00D+00
 Coeff-Com:  0.369D-01-0.798D-01-0.902D-02 0.700D-01 0.914D-01-0.349D-01
 Coeff-Com: -0.376D+00 0.319D+00 0.103D+00-0.561D-03-0.315D+00 0.163D+00
 Coeff-Com: -0.713D+00 0.108D+01 0.390D+00-0.759D+00-0.588D+00-0.496D+00
 Coeff-Com:  0.880D-01 0.203D+01
 Coeff:      0.369D-01-0.798D-01-0.902D-02 0.700D-01 0.914D-01-0.349D-01
 Coeff:     -0.376D+00 0.319D+00 0.103D+00-0.561D-03-0.315D+00 0.163D+00
 Coeff:     -0.713D+00 0.108D+01 0.390D+00-0.759D+00-0.588D+00-0.496D+00
 Coeff:      0.880D-01 0.203D+01
 Gap=     0.227 Goal=   None    Shift=    0.500
 Gap=     0.150 Goal=   None    Shift=    0.500
 RMSDP=6.52D-06 MaxDP=3.25D-04 DE=-4.21D-06 OVMax= 2.26D-03

 >>>>>>>>>> Convergence criterion not met.
 SCF Done:  E(ULC-wHPBE) =  -1640.95980835     A.U. after   33 cycles
            NFock= 32  Conv=0.65D-05     -V/T= 2.0041
 <Sx>= 0.0000 <Sy>= 0.0000 <Sz>= 0.5000 <S**2>= 0.7869 S= 0.5183
 <L.S>= 0.000000000000E+00
 KE= 1.634224113986D+03 PE=-7.855370948074D+03 EE= 2.557702182074D+03
 Annihilation of the first spin contaminant:
 S**2 before annihilation     0.7869,   after     0.7505
 Leave Link  502 at Wed Jan 27 00:16:40 2021, MaxMem=  4026531840 cpu:           12501.2 elap:            1564.5
 (Enter /opt/ohpc/pub/libs/gaussian/g16-A.03/sandybridge/g16/l508.exe)
 Integral symmetry usage will be decided dynamically.
 Tight linear equation convergence will be used.
 ULC-wHPBE wavefunction.
 Quadratic Convergence SCF Method.
 Line search only if initial step raises energy.
 FoFJK:  IHMeth= 1 ICntrl=       0 DoSepK=T KAlg= 0 I1Cent=           0 FoldK=F
 IRaf=         1 NMat=       1 IRICut=       1 DoRegI=T DoRafI=F ISym2E= 1 IDoP0=0 IntGTp=1.
 FoFCou: FMM=F IPFlag=           0 FMFlag=      100000 FMFlg1=           0
         NFxFlg=           0 DoJE=T BraDBF=F KetDBF=F FulRan=T
         wScrn=  0.000000 ICntrl=       500 IOpCl=  0 I1Cent=           0 NGrid=           0
         NMat0=    1 NMatS0=      1 NMatT0=    0 NMatD0=    1 NMtDS0=    0 NMtDT0=    0
 Petite list used in FoFCou.
 Iteration   1 EE= -1640.95981130693                                    Grad=1.365D-03 Max rot=    0.0233 deg.
 QCNR:  CnvC1=1.36D-08 CnvC2=1.36D-07
 LinEq1:  Iter=  0 NonCon=     1 RMS=1.35D-05 Max=2.71D-03 NDo=     1
 AX will form     1 AO Fock derivatives at one time.
 LinEq1:  Iter=  1 NonCon=     1 RMS=1.08D-05 Max=1.04D-03 NDo=     1
 LinEq1:  Iter=  2 NonCon=     1 RMS=5.96D-06 Max=3.05D-04 NDo=     1
 LinEq1:  Iter=  3 NonCon=     1 RMS=3.36D-06 Max=2.72D-04 NDo=     1
 LinEq1:  Iter=  4 NonCon=     1 RMS=2.08D-06 Max=1.17D-04 NDo=     1
 LinEq1:  Iter=  5 NonCon=     1 RMS=1.52D-06 Max=1.12D-04 NDo=     1
 LinEq1:  Iter=  6 NonCon=     1 RMS=9.39D-07 Max=9.81D-05 NDo=     1
 LinEq1:  Iter=  7 NonCon=     1 RMS=6.21D-07 Max=4.47D-05 NDo=     1
 LinEq1:  Iter=  8 NonCon=     1 RMS=3.79D-07 Max=2.86D-05 NDo=     1
 LinEq1:  Iter=  9 NonCon=     1 RMS=2.78D-07 Max=2.11D-05 NDo=     1
 LinEq1:  Iter= 10 NonCon=     1 RMS=1.84D-07 Max=1.46D-05 NDo=     1
 LinEq1:  Iter= 11 NonCon=     1 RMS=1.17D-07 Max=1.12D-05 NDo=     1
 LinEq1:  Iter= 12 NonCon=     1 RMS=7.25D-08 Max=5.73D-06 NDo=     1
 LinEq1:  Iter= 13 NonCon=     1 RMS=4.84D-08 Max=4.51D-06 NDo=     1
 LinEq1:  Iter= 14 NonCon=     1 RMS=2.52D-08 Max=2.42D-06 NDo=     1
 LinEq1:  Iter= 15 NonCon=     1 RMS=1.63D-08 Max=1.06D-06 NDo=     1
 LinEq1:  Iter= 16 NonCon=     1 RMS=9.72D-09 Max=6.56D-07 NDo=     1
 LinEq1:  Iter= 17 NonCon=     1 RMS=6.06D-09 Max=3.52D-07 NDo=     1
 LinEq1:  Iter= 18 NonCon=     1 RMS=3.44D-09 Max=3.14D-07 NDo=     1
 LinEq1:  Iter= 19 NonCon=     1 RMS=2.17D-09 Max=2.03D-07 NDo=     1
 LinEq1:  Iter= 20 NonCon=     0 RMS=1.11D-09 Max=8.49D-08 NDo=     1
 Linear equations converged to 1.365D-08 1.365D-07 after    20 iterations.
 Angle between quadratic step and gradient=  66.92 degrees.
     ILin= 1 X=0.000D+00 Y=-1.640959811307D+03 DE= 0.00D+00 F= -9.80D-06
     ILin= 2 X=1.000D+00 Y=-1.640959816260D+03 DE=-4.95D-06
 Iteration   2 EE= -1640.95981626045     Delta-E=       -0.000004953521 Grad=2.530D-05 Max rot=    0.0005 deg.
 Rotation gradient small -- convergence achieved.
 SCF Done:  E(ULC-wHPBE) =  -1640.95981626     a.u. after    2 cycles
            Convg  =    0.2530D-04                    22 Fock formations.
              S**2 =  0.7872                  -V/T =  2.0041
 <Sx>= 0.0000 <Sy>= 0.0000 <Sz>= 0.5000 <S**2>= 0.7872 S= 0.5184
 <L.S>= 0.000000000000E+00
 Annihilation of the first spin contaminant:
 S**2 before annihilation     0.7872,   after     0.7505
 Leave Link  508 at Wed Jan 27 00:32:23 2021, MaxMem=  4026531840 cpu:            7526.9 elap:             943.2
 (Enter /opt/ohpc/pub/libs/gaussian/g16-A.03/sandybridge/g16/l601.exe)
 Copying SCF densities to generalized density rwf, IOpCl= 1 IROHF=0.

 **********************************************************************

            Population analysis using the SCF density.

 **********************************************************************

 Orbital symmetries:
 Alpha Orbitals:
       Occupied  (A) (A) (A) (A) (A) (A) (A) (A) (A) (A) (A) (A)
                 (A) (A) (A) (A) (A) (A) (A) (A) (A) (A) (A) (A)
                 (A) (A) (A) (A) (A) (A) (A) (A) (A) (A) (A) (A)
                 (A) (A) (A) (A) (A) (A) (A) (A) (A) (A) (A) (A)
                 (A) (A) (A) (A) (A) (A) (A) (A) (A) (A) (A) (A)
                 (A) (A) (A) (A) (A) (A) (A) (A) (A) (A) (A) (A)
                 (A) (A) (A) (A) (A) (A) (A) (A) (A) (A) (A) (A)
                 (A) (A) (A) (A) (A) (A)
       Virtual   (A) (A) (A) (A) (A) (A) (A) (A) (A) (A) (A) (A)
                 (A) (A) (A) (A) (A) (A) (A) (A) (A) (A) (A) (A)
                 (A) (A) (A) (A) (A) (A) (A) (A) (A) (A) (A) (A)
                 (A) (A) (A) (A) (A) (A) (A) (A) (A) (A) (A) (A)
                 (A) (A) (A) (A) (A) (A) (A) (A) (A) (A) (A) (A)
                 (A) (A) (A) (A) (A) (A) (A) (A) (A) (A) (A) (A)
                 (A) (A) (A) (A) (A) (A) (A) (A) (A) (A) (A) (A)
                 (A) (A) (A) (A) (A) (A) (A) (A) (A) (A) (A) (A)
                 (A) (A) (A) (A) (A) (A) (A) (A) (A) (A) (A) (A)
                 (A) (A) (A) (A) (A) (A) (A) (A) (A) (A) (A) (A)
                 (A) (A) (A) (A) (A) (A) (A) (A) (A) (A) (A) (A)
                 (A) (A) (A) (A) (A) (A) (A) (A) (A) (A) (A) (A)
                 (A) (A) (A) (A) (A) (A) (A) (A) (A) (A) (A) (A)
                 (A) (A) (A) (A) (A) (A) (A) (A) (A) (A) (A) (A)
                 (A) (A) (A) (A) (A) (A) (A) (A) (A) (A) (A) (A)
                 (A) (A) (A) (A) (A) (A) (A) (A) (A) (A) (A) (A)
                 (A) (A) (A) (A) (A) (A) (A) (A) (A) (A) (A) (A)
                 (A) (A) (A) (A) (A) (A) (A) (A) (A) (A) (A) (A)
                 (A) (A) (A) (A) (A) (A) (A) (A) (A) (A) (A) (A)
                 (A) (A) (A) (A) (A) (A) (A) (A) (A) (A) (A) (A)
                 (A) (A) (A) (A) (A) (A) (A) (A) (A) (A) (A) (A)
                 (A) (A) (A) (A) (A) (A) (A) (A) (A) (A) (A) (A)
                 (A) (A) (A) (A) (A) (A) (A) (A) (A) (A) (A) (A)
                 (A) (A) (A) (A) (A) (A) (A) (A) (A) (A) (A) (A)
                 (A) (A) (A) (A) (A) (A) (A) (A) (A) (A) (A) (A)
                 (A) (A) (A) (A) (A) (A) (A) (A) (A) (A) (A) (A)
                 (A) (A) (A) (A) (A) (A) (A) (A) (A) (A) (A) (A)
                 (A) (A) (A) (A) (A) (A) (A) (A) (A) (A) (A) (A)
                 (A) (A) (A) (A) (A) (A) (A) (A) (A) (A) (A) (A)
                 (A) (A) (A) (A) (A) (A) (A) (A) (A) (A) (A) (A)
                 (A) (A) (A) (A) (A) (A) (A) (A) (A) (A) (A) (A)
                 (A) (A) (A) (A) (A) (A) (A) (A) (A) (A) (A) (A)
                 (A) (A) (A) (A) (A) (A) (A) (A) (A) (A) (A) (A)
                 (A) (A) (A) (A) (A) (A) (A) (A) (A) (A) (A) (A)
                 (A) (A) (A) (A) (A) (A) (A) (A) (A) (A) (A) (A)
                 (A) (A) (A) (A) (A) (A) (A) (A) (A) (A) (A) (A)
                 (A) (A) (A) (A) (A) (A) (A) (A) (A) (A) (A) (A)
                 (A) (A) (A) (A) (A) (A) (A) (A) (A) (A) (A) (A)
                 (A) (A) (A) (A) (A) (A) (A) (A) (A) (A) (A) (A)
                 (A) (A) (A) (A) (A) (A) (A) (A) (A) (A) (A)
 Beta  Orbitals:
       Occupied  (A) (A) (A) (A) (A) (A) (A) (A) (A) (A) (A) (A)
                 (A) (A) (A) (A) (A) (A) (A) (A) (A) (A) (A) (A)
                 (A) (A) (A) (A) (A) (A) (A) (A) (A) (A) (A) (A)
                 (A) (A) (A) (A) (A) (A) (A) (A) (A) (A) (A) (A)
                 (A) (A) (A) (A) (A) (A) (A) (A) (A) (A) (A) (A)
                 (A) (A) (A) (A) (A) (A) (A) (A) (A) (A) (A) (A)
                 (A) (A) (A) (A) (A) (A) (A) (A) (A) (A) (A) (A)
                 (A) (A) (A) (A) (A)
[...]
    40  H(1)              -0.00010      -0.44255      -0.15791      -0.14762
    41  C(13)              0.00008       0.08642       0.03084       0.02883
    42  H(1)              -0.00008      -0.35224      -0.12569      -0.11749
    43  H(1)              -0.00008      -0.34828      -0.12428      -0.11617
    44  H(1)              -0.00000      -0.00538      -0.00192      -0.00180
 --------------------------------------------------------
       Center         ----  Spin Dipole Couplings  ----
                      3XX-RR        3YY-RR        3ZZ-RR
 --------------------------------------------------------
     1   Atom       -0.007116      0.007329     -0.000213
     2   Atom        0.026869     -0.023906     -0.002963
     3   Atom        0.052065     -0.044786     -0.007279
     4   Atom       -0.003585      0.001508      0.002077
     5   Atom       -0.121116      0.150640     -0.029524
     6   Atom        0.597543     -0.238526     -0.359016
     7   Atom        0.022977     -0.019309     -0.003669
     8   Atom        0.007251     -0.005521     -0.001731
     9   Atom       -0.007520      0.004207      0.003314
    10   Atom       -0.000897     -0.001227      0.002124
    11   Atom        0.060444     -0.009948     -0.050496
    12   Atom        0.039971     -0.024914     -0.015057
    13   Atom        0.016078      0.009053     -0.025131
    14   Atom       -0.001040      0.003026     -0.001986
    15   Atom       -0.002104      0.005261     -0.003158
    16   Atom        0.004351     -0.002139     -0.002212
    17   Atom        0.011260     -0.010766     -0.000495
    18   Atom        0.000037     -0.000077      0.000040
    19   Atom       -0.001240      0.001567     -0.000327
    20   Atom        0.002312     -0.003709      0.001397
    21   Atom        0.006874     -0.003509     -0.003365
    22   Atom        0.001390      0.001118     -0.002508
    23   Atom        0.316473     -0.130438     -0.186035
    24   Atom       -0.004347     -0.002776      0.007122
    25   Atom        0.001890      0.001206     -0.003096
    26   Atom        0.001983      0.001405     -0.003389
    27   Atom        0.006155      0.004943     -0.011098
    28   Atom        0.005715      0.004940     -0.010655
    29   Atom        0.001355     -0.000769     -0.000586
    30   Atom        0.000813     -0.000483     -0.000330
    31   Atom        0.001772     -0.000980     -0.000792
    32   Atom        0.000712     -0.000415     -0.000297
    33   Atom        0.000263     -0.000095     -0.000168
    34   Atom        0.000316     -0.000157     -0.000159
    35   Atom        0.000288     -0.000136     -0.000152
    36   Atom        0.000330     -0.000180     -0.000150
    37   Atom        0.000281      0.000351     -0.000632
    38   Atom        0.000148      0.000275     -0.000423
    39   Atom        0.000176      0.000585     -0.000761
    40   Atom        0.000095      0.000197     -0.000292
    41   Atom        0.000204     -0.000024     -0.000180
    42   Atom        0.000202     -0.000025     -0.000177
    43   Atom        0.000187     -0.000028     -0.000160
    44   Atom        0.000235     -0.000076     -0.000159
 --------------------------------------------------------
                        XY            XZ            YZ
 --------------------------------------------------------
     1   Atom       -0.006071     -0.013607     -0.004071
     2   Atom        0.026459      0.044312      0.017747
     3   Atom        0.015231     -0.056480     -0.009135
     4   Atom        0.002369     -0.001053     -0.000148
     5   Atom       -0.077488     -0.056549      0.075030
     6   Atom       -0.443235      0.038977     -0.075014
     7   Atom        0.026744      0.036198      0.018757
     8   Atom        0.003201      0.002830      0.000305
     9   Atom        0.003239      0.006770     -0.004219
    10   Atom       -0.016725     -0.014618     -0.011488
    11   Atom       -0.008739      0.031754      0.027065
    12   Atom       -0.024371      0.004017     -0.016378
    13   Atom       -0.014435      0.007181      0.015925
    14   Atom       -0.001519     -0.000464      0.002788
    15   Atom        0.009285      0.006249      0.009257
    16   Atom        0.003526      0.004293      0.002183
    17   Atom        0.007452      0.014311      0.004818
    18   Atom        0.000003     -0.001554     -0.000206
    19   Atom        0.001597     -0.000392     -0.000440
    20   Atom       -0.000067     -0.003432      0.001916
    21   Atom        0.000277      0.005089     -0.000599
    22   Atom       -0.001262     -0.000079     -0.000585
    23   Atom        0.675890      0.601046      0.432693
    24   Atom        0.000841     -0.001303     -0.000355
    25   Atom        0.000223     -0.000928      0.000825
    26   Atom       -0.000571      0.002572     -0.000600
    27   Atom       -0.000109      0.001583     -0.001473
    28   Atom       -0.000578      0.000448     -0.001068
    29   Atom        0.000040      0.000033      0.000085
    30   Atom        0.000191      0.000203     -0.000012
    31   Atom        0.000481     -0.000151     -0.000011
    32   Atom        0.000115     -0.000068      0.000041
    33   Atom       -0.000069     -0.000026     -0.000009
    34   Atom       -0.000062      0.000042     -0.000022
    35   Atom       -0.000064      0.000039      0.000007
    36   Atom       -0.000111      0.000041      0.000004
    37   Atom       -0.001121      0.000231     -0.000107
    38   Atom       -0.000715     -0.000028     -0.000010
    39   Atom       -0.001296      0.000371     -0.000371
    40   Atom       -0.000587      0.000210     -0.000153
    41   Atom       -0.000199      0.000075     -0.000076
    42   Atom       -0.000244      0.000019     -0.000029
    43   Atom       -0.000217      0.000052     -0.000010
    44   Atom       -0.000228      0.000039     -0.000012
 --------------------------------------------------------


 ---------------------------------------------------------------------------------
              Anisotropic Spin Dipole Couplings in Principal Axis System
 ---------------------------------------------------------------------------------

       Atom             a.u.   MegaHertz   Gauss  10(-4) cm-1        Axes

              Baa    -0.0197    -2.640    -0.942    -0.881  0.7647  0.2608  0.5893
     1 C(13)  Bbb     0.0091     1.222     0.436     0.407  0.0310  0.8985 -0.4378
              Bcc     0.0106     1.418     0.506     0.473 -0.6437  0.3530  0.6790
 
              Baa    -0.0358    -4.797    -1.712    -1.600 -0.5988  0.6618  0.4510
     2 C(13)  Bbb    -0.0338    -4.537    -1.619    -1.513 -0.2184 -0.6768  0.7031
              Bcc     0.0696     9.334     3.331     3.113  0.7706  0.3225  0.5497
 
              Baa    -0.0472    -1.933    -0.690    -0.645 -0.1182  0.9912  0.0597
     3 S(33)  Bbb    -0.0414    -1.698    -0.606    -0.566  0.5160  0.0099  0.8566
              Bcc     0.0886     3.631     1.296     1.211  0.8484  0.1320 -0.5126
 
              Baa    -0.0046    -0.623    -0.222    -0.208  0.9255 -0.3530  0.1372
     4 C(13)  Bbb     0.0018     0.240     0.086     0.080  0.1227  0.6222  0.7732
              Bcc     0.0029     0.383     0.137     0.128  0.3583  0.6987 -0.6192
 
              Baa    -0.1541   -20.673    -7.377    -6.896  0.9314  0.1558  0.3290
     5 C(13)  Bbb    -0.0500    -6.715    -2.396    -2.240 -0.2391 -0.4197  0.8756
              Bcc     0.2041    27.389     9.773     9.136 -0.2745  0.8942  0.3536
 
              Baa    -0.4593   -61.628   -21.990   -20.557  0.3234  0.8136  0.4831
     6 C(13)  Bbb    -0.3333   -44.719   -15.957   -14.917 -0.2385 -0.4240  0.8737
              Bcc     0.7925   106.348    37.947    35.474  0.9157 -0.3978  0.0569
 
              Baa    -0.0325    -4.364    -1.557    -1.456 -0.2952  0.9268 -0.2322
     7 C(13)  Bbb    -0.0289    -3.880    -1.385    -1.294 -0.5789  0.0199  0.8152
              Bcc     0.0614     8.245     2.942     2.750  0.7601  0.3750  0.5306
 
              Baa    -0.0063    -0.847    -0.302    -0.282 -0.2462  0.9652  0.0878
     8 C(13)  Bbb    -0.0025    -0.330    -0.118    -0.110 -0.2319 -0.1466  0.9616
              Bcc     0.0088     1.177     0.420     0.393  0.9411  0.2164  0.2600
 
              Baa    -0.0122    -6.496    -2.318    -2.167  0.8482 -0.2830 -0.4478
     9 H(1)   Bbb     0.0037     1.990     0.710     0.664  0.4899  0.7407  0.4597
              Bcc     0.0084     4.506     1.608     1.503  0.2016 -0.6093  0.7669
 
              Baa    -0.0288    -3.868    -1.380    -1.290  0.6225  0.5908  0.5133
    10 C(13)  Bbb     0.0121     1.618     0.577     0.540  0.0142 -0.6642  0.7474
              Bcc     0.0168     2.250     0.803     0.751  0.7825 -0.4579 -0.4219
 
              Baa    -0.0720    -9.656    -3.445    -3.221 -0.2379 -0.4165  0.8774
    11 C(13)  Bbb     0.0030     0.407     0.145     0.136 -0.0872  0.9089  0.4078
              Bcc     0.0689     9.249     3.300     3.085  0.9674 -0.0205  0.2526
 
              Baa    -0.0411    -5.519    -1.969    -1.841  0.2280  0.8399  0.4925
    12 C(13)  Bbb    -0.0083    -1.111    -0.396    -0.371 -0.2864 -0.4255  0.8584
              Bcc     0.0494     6.630     2.366     2.212  0.9306 -0.3368  0.1435
 
              Baa    -0.0344    -4.613    -1.646    -1.539 -0.2411 -0.4037  0.8825
    13 C(13)  Bbb     0.0066     0.879     0.314     0.293  0.6183  0.6371  0.4603
              Bcc     0.0278     3.734     1.332     1.246  0.7481 -0.6566 -0.0960
 
              Baa    -0.0032    -1.734    -0.619    -0.578 -0.1032 -0.4247  0.8995
    14 H(1)   Bbb    -0.0015    -0.775    -0.277    -0.259  0.9587  0.1984  0.2037
              Bcc     0.0047     2.509     0.895     0.837 -0.2649  0.8833  0.3866
 
              Baa    -0.0092    -4.894    -1.746    -1.633 -0.2365 -0.4121  0.8799
    15 H(1)   Bbb    -0.0084    -4.486    -1.601    -1.497  0.8365 -0.5470 -0.0313
              Bcc     0.0176     9.381     3.347     3.129  0.4942  0.7287  0.4741
 
              Baa    -0.0045    -2.412    -0.861    -0.805 -0.2531 -0.4228  0.8702
    16 H(1)   Bbb    -0.0036    -1.928    -0.688    -0.643 -0.5031  0.8258  0.2550
              Bcc     0.0081     4.340     1.549     1.448  0.8264  0.3732  0.4217
 
              Baa    -0.0131    -1.757    -0.627    -0.586 -0.2363  0.9664 -0.1012
    17 C(13)  Bbb    -0.0101    -1.353    -0.483    -0.451 -0.5453 -0.0456  0.8370
              Bcc     0.0232     3.110     1.110     1.037  0.8042  0.2529  0.5378
 
              Baa    -0.0015    -0.816    -0.291    -0.272  0.7006  0.0989  0.7067
    18 H(1)   Bbb    -0.0001    -0.040    -0.014    -0.014 -0.1320  0.9912 -0.0079
              Bcc     0.0016     0.857     0.306     0.286 -0.7013 -0.0877  0.7075
 
              Baa    -0.0020    -1.057    -0.377    -0.353  0.9114 -0.3964  0.1105
    19 H(1)   Bbb    -0.0004    -0.226    -0.081    -0.075 -0.0181  0.2295  0.9731
              Bcc     0.0024     1.284     0.458     0.428  0.4111  0.8889 -0.2020
 
              Baa    -0.0045    -2.427    -0.866    -0.809 -0.1910  0.8967 -0.3993
    20 H(1)   Bbb    -0.0010    -0.513    -0.183    -0.171  0.6613  0.4181  0.6227
              Bcc     0.0055     2.940     1.049     0.981  0.7254 -0.1451 -0.6729
 
              Baa    -0.0057    -3.023    -1.079    -1.008 -0.3651  0.2924  0.8838
    21 H(1)   Bbb    -0.0033    -1.765    -0.630    -0.589  0.1095  0.9563 -0.2711
              Bcc     0.0090     4.788     1.708     1.597  0.9245  0.0023  0.3812
 
              Baa    -0.0026    -1.398    -0.499    -0.466  0.0757  0.1790  0.9809
    22 H(1)   Bbb     0.0001     0.040     0.014     0.013  0.6751  0.7148 -0.1825
              Bcc     0.0025     1.358     0.485     0.453  0.7338 -0.6761  0.0667
 
              Baa    -0.6189   -25.374    -9.054    -8.464 -0.5972  0.8016  0.0278
    23 S(33)  Bbb    -0.5816   -23.844    -8.508    -7.954 -0.3633 -0.3013  0.8816
              Bcc     1.2005    49.218    17.562    16.417  0.7151  0.5163  0.4711
 
              Baa    -0.0048    -0.645    -0.230    -0.215  0.9257 -0.3675  0.0902
    24 C(13)  Bbb    -0.0025    -0.333    -0.119    -0.111  0.3607  0.9290  0.0833
              Bcc     0.0073     0.978     0.349     0.326 -0.1144 -0.0446  0.9924
 
              Baa    -0.0034    -0.459    -0.164    -0.153  0.1767 -0.1810  0.9675
    25 C(13)  Bbb     0.0014     0.182     0.065     0.061 -0.0679  0.9784  0.1954
              Bcc     0.0021     0.277     0.099     0.092  0.9819  0.1002 -0.1606
 
              Baa    -0.0044    -0.596    -0.213    -0.199 -0.3664  0.0595  0.9286
    26 C(13)  Bbb     0.0011     0.151     0.054     0.050  0.3646  0.9273  0.0844
              Bcc     0.0033     0.445     0.159     0.148  0.8561 -0.3694  0.3615
 
              Baa    -0.0114    -0.439    -0.156    -0.146 -0.0891  0.0890  0.9920
    27 N(14)  Bbb     0.0050     0.194     0.069     0.065  0.1936  0.9786 -0.0704
              Bcc     0.0063     0.245     0.087     0.082  0.9770 -0.1858  0.1044
 
              Baa    -0.0107    -0.414    -0.148    -0.138 -0.0248  0.0670  0.9974
    28 N(14)  Bbb     0.0047     0.180     0.064     0.060  0.4969  0.8666 -0.0459
              Bcc     0.0061     0.234     0.084     0.078  0.8675 -0.4945  0.0548
 
              Baa    -0.0008    -0.108    -0.038    -0.036 -0.0116  0.9314 -0.3639
    29 C(13)  Bbb    -0.0006    -0.074    -0.026    -0.025 -0.0238  0.3635  0.9313
              Bcc     0.0014     0.182     0.065     0.061  0.9997  0.0195  0.0179
 
              Baa    -0.0005    -0.278    -0.099    -0.093 -0.1737  0.9537  0.2454
    30 H(1)   Bbb    -0.0004    -0.188    -0.067    -0.063 -0.1220 -0.2682  0.9556
              Bcc     0.0009     0.466     0.166     0.156  0.9772  0.1360  0.1630
 
              Baa    -0.0011    -0.567    -0.202    -0.189 -0.1699  0.9839 -0.0563
    31 H(1)   Bbb    -0.0008    -0.427    -0.152    -0.142  0.0466  0.0650  0.9968
              Bcc     0.0019     0.993     0.355     0.331  0.9844  0.1667 -0.0569
 
              Baa    -0.0004    -0.236    -0.084    -0.079 -0.1127  0.9410 -0.3192
    32 H(1)   Bbb    -0.0003    -0.152    -0.054    -0.051  0.0268  0.3240  0.9457
              Bcc     0.0007     0.388     0.139     0.130  0.9933  0.0980 -0.0617
 
              Baa    -0.0002    -0.023    -0.008    -0.008  0.0892  0.1924  0.9773
    33 C(13)  Bbb    -0.0001    -0.014    -0.005    -0.005  0.1663  0.9645 -0.2050
              Bcc     0.0003     0.037     0.013     0.012  0.9820 -0.1808 -0.0541
 
              Baa    -0.0002    -0.096    -0.034    -0.032  0.0343  0.7328  0.6796
    34 H(1)   Bbb    -0.0001    -0.079    -0.028    -0.026 -0.1552 -0.6679  0.7279
              Bcc     0.0003     0.175     0.062     0.058  0.9873 -0.1304  0.0908
 
              Baa    -0.0002    -0.087    -0.031    -0.029 -0.1489 -0.5514  0.8208
    35 H(1)   Bbb    -0.0001    -0.073    -0.026    -0.024  0.0731  0.8217  0.5652
              Bcc     0.0003     0.161     0.057     0.054  0.9861 -0.1442  0.0821
 
              Baa    -0.0002    -0.110    -0.039    -0.037  0.2142  0.9522 -0.2179
    36 H(1)   Bbb    -0.0002    -0.080    -0.029    -0.027 -0.0292  0.2292  0.9729
              Bcc     0.0004     0.190     0.068     0.063  0.9764 -0.2021  0.0769
 
              Baa    -0.0008    -0.114    -0.041    -0.038  0.6790  0.5964 -0.4282
    37 C(13)  Bbb    -0.0006    -0.083    -0.029    -0.028  0.2370  0.3740  0.8967
              Bcc     0.0015     0.197     0.070     0.066 -0.6949  0.7103 -0.1126
 
              Baa    -0.0005    -0.275    -0.098    -0.092  0.7076  0.6448  0.2890
    38 H(1)   Bbb    -0.0004    -0.221    -0.079    -0.074 -0.2077 -0.2012  0.9573
              Bcc     0.0009     0.496     0.177     0.165 -0.6754  0.7374  0.0085
 
              Baa    -0.0010    -0.507    -0.181    -0.169  0.7403  0.5224 -0.4231
    39 H(1)   Bbb    -0.0008    -0.453    -0.162    -0.151  0.2097  0.4184  0.8837
              Bcc     0.0018     0.960     0.343     0.320 -0.6387  0.7430 -0.2002
 
              Baa    -0.0005    -0.248    -0.089    -0.083  0.7309  0.5573 -0.3940
    40 H(1)   Bbb    -0.0003    -0.176    -0.063    -0.059  0.1528  0.4290  0.8903
              Bcc     0.0008     0.424     0.151     0.142 -0.6652  0.7109 -0.2285
 
              Baa    -0.0002    -0.028    -0.010    -0.009  0.0270  0.4014  0.9155
    41 C(13)  Bbb    -0.0001    -0.017    -0.006    -0.006  0.5378  0.7661 -0.3518
              Bcc     0.0003     0.046     0.016     0.015  0.8426 -0.5019  0.1952
 
              Baa    -0.0002    -0.103    -0.037    -0.034  0.3568  0.6334  0.6866
    42 H(1)   Bbb    -0.0002    -0.088    -0.032    -0.029 -0.4062 -0.5567  0.7246
              Bcc     0.0004     0.192     0.068     0.064  0.8412 -0.5375  0.0587
 
              Baa    -0.0002    -0.098    -0.035    -0.033 -0.4223 -0.5455  0.7240
    43 H(1)   Bbb    -0.0001    -0.077    -0.028    -0.026  0.3222  0.6562  0.6823
              Bcc     0.0003     0.175     0.062     0.058  0.8473 -0.5214  0.1014
 
              Baa    -0.0002    -0.106    -0.038    -0.035  0.4706  0.8599 -0.1978
    44 H(1)   Bbb    -0.0002    -0.086    -0.031    -0.029  0.0252  0.2110  0.9772
              Bcc     0.0004     0.191     0.068     0.064  0.8820 -0.4649  0.0777
 

 ---------------------------------------------------------------------------------

 No NMR shielding tensors so no spin-rotation constants.
 Leave Link  601 at Wed Jan 27 00:32:24 2021, MaxMem=  4026531840 cpu:               7.8 elap:               1.1
 (Enter /opt/ohpc/pub/libs/gaussian/g16-A.03/sandybridge/g16/l9999.exe)

 Test job not archived.
 1\1\GINC-GNODE020\SP\ULC-wHPBE\TZVP\C19H21N2S2(2+,2)\RDU230\27-Jan-202
 1\0\\#P LC-wHPBE/TZVP iop(3/107=0172700000, 3/108=0172700000) scf=(con
 ver=6,fermi,ndamp=35,noincfock,novaracc,vshift=500,xqc)\\H21 C19 S2 N2
 \\2,2\C,0,5.141333,0.341453,-1.428653\C,0,4.24633,0.793113,-0.45792\S,
 0,3.527427,2.438238,-0.612926\C,0,3.85258,-0.085202,0.570411\C,0,0.863
 708,-0.787434,0.770822\C,0,1.152588,-1.949541,0.292605\C,0,5.641454,-0
 .963707,-1.38032\C,0,4.337968,-1.397272,0.611701\H,0,2.805747,-0.53668
 6,2.620663\C,0,-0.32759,-0.104924,0.757243\C,0,0.161049,-2.709273,-0.3
 36618\C,0,-1.110551,-2.125038,-0.416532\C,0,-1.366563,-0.836811,0.1161
 44\H,0,-0.506361,0.876389,1.203135\H,0,0.333628,-3.701573,-0.760587\H,
 0,-1.915541,-2.656529,-0.930176\C,0,5.242141,-1.827604,-0.363151\H,0,5
 .450891,1.02542,-2.21936\H,0,4.15948,2.9901,0.460876\H,0,6.34791,-1.29
 8886,-2.140548\H,0,4.022912,-2.077842,1.402557\H,0,5.625918,-2.84765,-
 0.32369\S,0,2.641644,0.489998,1.741439\C,0,-2.680648,-0.257498,0.00376
 4\C,0,-4.05427,-0.413992,-0.132503\C,0,-3.489875,0.870167,-0.052158\N,
 0,-5.09974,-1.211802,-0.243141\N,0,-3.607387,2.185094,-0.049886\C,0,-4
 .95887,-2.66296,-0.086881\H,0,-5.24939,-3.175063,-1.01565\H,0,-3.92190
 6,-2.911213,0.159186\H,0,-5.607057,-3.011636,0.730112\C,0,-6.456302,-0
 .708508,-0.463149\H,0,-6.932296,-1.289768,-1.265044\H,0,-7.06234,-0.80
 4638,0.450448\H,0,-6.424137,0.340187,-0.774131\C,0,-2.422516,3.047015,
 -0.104701\H,0,-2.374233,3.683098,0.791036\H,0,-1.518165,2.434104,-0.16
 8534\H,0,-2.472812,3.689712,-0.995626\C,0,-4.905946,2.85982,-0.071613\
 H,0,-4.903422,3.671788,0.668659\H,0,-5.109136,3.28812,-1.064906\H,0,-5
 .70105,2.156915,0.195603\\Version=EM64L-G16RevA.03\State=2-A\HF=-1640.
 9598163\S2=0.787183\S2-1=0.\S2A=0.750522\RMSD=8.634e-08\Dipole=-2.4968
 562,-0.4641917,0.5929465\Quadrupole=75.1032169,-22.7348221,-52.3683949
 ,-6.608575,4.654379,3.6850076\PG=C01 [X(C19H21N2S2)]\\@


 A MAN IS NEVER SO BRILLIANT AS WHEN HE TAKES THE WORDS RIGHT OUT
 OF YOUR MOUTH. -- ARNOT SHEPPARD, JR.
 Job cpu time:       0 days  5 hours 34 minutes 59.6 seconds.
 Elapsed time:       0 days  0 hours 41 minutes 57.1 seconds.
 File lengths (MBytes):  RWF=    472 Int=      0 D2E=      0 Chk=     28 Scr=      8
 Normal termination of Gaussian 16 at Wed Jan 27 00:32:24 2021.
