 Entering Gaussian System, Link 0=g16
 Input=mol_ta_cp_half_tune_n3.gjf
 Output=mol_ta_cp_half_tune_n3.log
 Initial command:
 /opt/ohpc/pub/libs/gaussian/g16-A.03/sandybridge/g16/l1.exe "/mnt/gpfs2_4m/scratch/rdu230/ondemand/projects/init_structures/gaussian/wtuning/mol_ta_cp_half/tuning_mol_ta_cp_half_ocycle0/Gau-126372.inp" -scrdir="/mnt/gpfs2_4m/scratch/rdu230/ondemand/projects/init_structures/gaussian/wtuning/mol_ta_cp_half/tuning_mol_ta_cp_half_ocycle0/"
 Entering Link 1 = /opt/ohpc/pub/libs/gaussian/g16-A.03/sandybridge/g16/l1.exe PID=    126373.
  
 Copyright (c) 1988,1990,1992,1993,1995,1998,2003,2009,2016,
            Gaussian, Inc.  All Rights Reserved.
  
 This is part of the Gaussian(R) 16 program.  It is based on
 the Gaussian(R) 09 system (copyright 2009, Gaussian, Inc.),
 the Gaussian(R) 03 system (copyright 2003, Gaussian, Inc.),
 the Gaussian(R) 98 system (copyright 1998, Gaussian, Inc.),
 the Gaussian(R) 94 system (copyright 1995, Gaussian, Inc.),
 the Gaussian 92(TM) system (copyright 1992, Gaussian, Inc.),
 the Gaussian 90(TM) system (copyright 1990, Gaussian, Inc.),
 the Gaussian 88(TM) system (copyright 1988, Gaussian, Inc.),
 the Gaussian 86(TM) system (copyright 1986, Carnegie Mellon
 University), and the Gaussian 82(TM) system (copyright 1983,
 Carnegie Mellon University). Gaussian is a federally registered
 trademark of Gaussian, Inc.
  
 This software contains proprietary and confidential information,
 including trade secrets, belonging to Gaussian, Inc.
  
 This software is provided under written license and may be
 used, copied, transmitted, or stored only in accord with that
 written license.
  
 The following legend is applicable only to US Government
 contracts under FAR:
  
                    RESTRICTED RIGHTS LEGEND
  
 Use, reproduction and disclosure by the US Government is
 subject to restrictions as set forth in subparagraphs (a)
 and (c) of the Commercial Computer Software - Restricted
 Rights clause in FAR 52.227-19.
  
 Gaussian, Inc.
 340 Quinnipiac St., Bldg. 40, Wallingford CT 06492
  
  
 ---------------------------------------------------------------
 Warning -- This program may not be used in any manner that
 competes with the business of Gaussian, Inc. or will provide
 assistance to any competitor of Gaussian, Inc.  The licensee
 of this program is prohibited from giving any competitor of
 Gaussian, Inc. access to this program.  By using this program,
 the user acknowledges that Gaussian, Inc. is engaged in the
 business of creating and licensing software in the field of
 computational chemistry and represents and warrants to the
 licensee that it is not a competitor of Gaussian, Inc. and that
 it will not use this program in any manner prohibited above.
 ---------------------------------------------------------------
  

 Cite this work as:
 Gaussian 16, Revision A.03,
 M. J. Frisch, G. W. Trucks, H. B. Schlegel, G. E. Scuseria, 
 M. A. Robb, J. R. Cheeseman, G. Scalmani, V. Barone, 
 G. A. Petersson, H. Nakatsuji, X. Li, M. Caricato, A. V. Marenich, 
 J. Bloino, B. G. Janesko, R. Gomperts, B. Mennucci, H. P. Hratchian, 
 J. V. Ortiz, A. F. Izmaylov, J. L. Sonnenberg, D. Williams-Young, 
 F. Ding, F. Lipparini, F. Egidi, J. Goings, B. Peng, A. Petrone, 
 T. Henderson, D. Ranasinghe, V. G. Zakrzewski, J. Gao, N. Rega, 
 G. Zheng, W. Liang, M. Hada, M. Ehara, K. Toyota, R. Fukuda, 
 J. Hasegawa, M. Ishida, T. Nakajima, Y. Honda, O. Kitao, H. Nakai, 
 T. Vreven, K. Throssell, J. A. Montgomery, Jr., J. E. Peralta, 
 F. Ogliaro, M. J. Bearpark, J. J. Heyd, E. N. Brothers, K. N. Kudin, 
 V. N. Staroverov, T. A. Keith, R. Kobayashi, J. Normand, 
 K. Raghavachari, A. P. Rendell, J. C. Burant, S. S. Iyengar, 
 J. Tomasi, M. Cossi, J. M. Millam, M. Klene, C. Adamo, R. Cammi, 
 J. W. Ochterski, R. L. Martin, K. Morokuma, O. Farkas, 
 J. B. Foresman, and D. J. Fox, Gaussian, Inc., Wallingford CT, 2016.
 
 ******************************************
 Gaussian 16:  EM64L-G16RevA.03 25-Dec-2016
                26-Jan-2021 
 ******************************************
 %mem=30GB
 %nproc=8
 Will use up to    8 processors via shared memory.
 ----------------------------------------------------------------------
 #P LC-wHPBE/TZVP iop(3/107=0115700000, 3/108=0115700000) scf=(conver=6
 ,fermi,ndamp=35,noincfock,novaracc,vshift=500,xqc)
 ----------------------------------------------------------------------
 1/38=1,172=1/1;
 2/12=2,17=6,18=5,40=1/2;
 3/5=19,7=101,11=2,25=1,30=1,74=-71,107=115700000,108=115700000/1,2,3;
 4//1;
 5/5=100002,6=6,8=3,10=500,13=1,18=-1,22=13,38=1,93=35/2,8;
 6/7=2,8=2,9=2,10=2,28=1/1;
 99/5=1,9=1/99;
 Leave Link    1 at Tue Jan 26 17:14:25 2021, MaxMem=  4026531840 cpu:               2.3 elap:               0.3
 (Enter /opt/ohpc/pub/libs/gaussian/g16-A.03/sandybridge/g16/l101.exe)
 -------------
 H21 C19 S2 N2
 -------------
 Symbolic Z-matrix:
 Charge =  1 Multiplicity = 1
 C                     5.14133   0.34145  -1.42865 
 C                     4.24633   0.79311  -0.45792 
 S                     3.52743   2.43824  -0.61293 
 C                     3.85258  -0.0852    0.57041 
 C                     0.86371  -0.78743   0.77082 
 C                     1.15259  -1.94954   0.29261 
 C                     5.64145  -0.96371  -1.38032 
 C                     4.33797  -1.39727   0.6117 
 H                     2.80575  -0.53669   2.62066 
 C                    -0.32759  -0.10492   0.75724 
 C                     0.16105  -2.70927  -0.33662 
 C                    -1.11055  -2.12504  -0.41653 
 C                    -1.36656  -0.83681   0.11614 
 H                    -0.50636   0.87639   1.20314 
 H                     0.33363  -3.70157  -0.76059 
 H                    -1.91554  -2.65653  -0.93018 
 C                     5.24214  -1.8276   -0.36315 
 H                     5.45089   1.02542  -2.21936 
 H                     4.15948   2.9901    0.46088 
 H                     6.34791  -1.29889  -2.14055 
 H                     4.02291  -2.07784   1.40256 
 H                     5.62592  -2.84765  -0.32369 
 S                     2.64164   0.49      1.74144 
 C                    -2.68065  -0.2575    0.00376 
 C                    -4.05427  -0.41399  -0.1325 
 C                    -3.48988   0.87017  -0.05216 
 N                    -5.09974  -1.2118   -0.24314 
 N                    -3.60739   2.18509  -0.04989 
 C                    -4.95887  -2.66296  -0.08688 
 H                    -5.24939  -3.17506  -1.01565 
 H                    -3.92191  -2.91121   0.15919 
 H                    -5.60706  -3.01164   0.73011 
 C                    -6.4563   -0.70851  -0.46315 
 H                    -6.9323   -1.28977  -1.26504 
 H                    -7.06234  -0.80464   0.45045 
 H                    -6.42414   0.34019  -0.77413 
 C                    -2.42252   3.04702  -0.1047 
 H                    -2.37423   3.6831    0.79104 
 H                    -1.51817   2.4341   -0.16853 
 H                    -2.47281   3.68971  -0.99563 
 C                    -4.90595   2.85982  -0.07161 
 H                    -4.90342   3.67179   0.66866 
 H                    -5.10914   3.28812  -1.06491 
 H                    -5.70105   2.15692   0.1956 
 
 ITRead=  0  0  0  0  0  0  0  0  0  0  0  0  0  0  0  0  0  0  0  0
 ITRead=  0  0  0  0  0  0  0  0  0  0  0  0  0  0  0  0  0  0  0  0
 ITRead=  0  0  0  0
 MicOpt= -1 -1 -1 -1 -1 -1 -1 -1 -1 -1 -1 -1 -1 -1 -1 -1 -1 -1 -1 -1
 MicOpt= -1 -1 -1 -1 -1 -1 -1 -1 -1 -1 -1 -1 -1 -1 -1 -1 -1 -1 -1 -1
 MicOpt= -1 -1 -1 -1
 NAtoms=     44 NQM=       44 NQMF=       0 NMMI=      0 NMMIF=      0
                NMic=       0 NMicF=      0.
                    Isotopes and Nuclear Properties:
 (Nuclear quadrupole moments (NQMom) in fm**2, nuclear magnetic moments (NMagM)
  in nuclear magnetons)

  Atom         1           2           3           4           5           6           7           8           9          10
 IAtWgt=          12          12          32          12          12          12          12          12           1          12
 AtmWgt=  12.0000000  12.0000000  31.9720718  12.0000000  12.0000000  12.0000000  12.0000000  12.0000000   1.0078250  12.0000000
 NucSpn=           0           0           0           0           0           0           0           0           1           0
 AtZEff=  -0.0000000  -0.0000000  -0.0000000  -0.0000000  -0.0000000  -0.0000000  -0.0000000  -0.0000000  -0.0000000  -0.0000000
 NQMom=    0.0000000   0.0000000   0.0000000   0.0000000   0.0000000   0.0000000   0.0000000   0.0000000   0.0000000   0.0000000
 NMagM=    0.0000000   0.0000000   0.0000000   0.0000000   0.0000000   0.0000000   0.0000000   0.0000000   2.7928460   0.0000000
 AtZNuc=   6.0000000   6.0000000  16.0000000   6.0000000   6.0000000   6.0000000   6.0000000   6.0000000   1.0000000   6.0000000

  Atom        11          12          13          14          15          16          17          18          19          20
 IAtWgt=          12          12          12           1           1           1          12           1           1           1
 AtmWgt=  12.0000000  12.0000000  12.0000000   1.0078250   1.0078250   1.0078250  12.0000000   1.0078250   1.0078250   1.0078250
 NucSpn=           0           0           0           1           1           1           0           1           1           1
 AtZEff=  -0.0000000  -0.0000000  -0.0000000  -0.0000000  -0.0000000  -0.0000000  -0.0000000  -0.0000000  -0.0000000  -0.0000000
 NQMom=    0.0000000   0.0000000   0.0000000   0.0000000   0.0000000   0.0000000   0.0000000   0.0000000   0.0000000   0.0000000
 NMagM=    0.0000000   0.0000000   0.0000000   2.7928460   2.7928460   2.7928460   0.0000000   2.7928460   2.7928460   2.7928460
 AtZNuc=   6.0000000   6.0000000   6.0000000   1.0000000   1.0000000   1.0000000   6.0000000   1.0000000   1.0000000   1.0000000

  Atom        21          22          23          24          25          26          27          28          29          30
 IAtWgt=           1           1          32          12          12          12          14          14          12           1
 AtmWgt=   1.0078250   1.0078250  31.9720718  12.0000000  12.0000000  12.0000000  14.0030740  14.0030740  12.0000000   1.0078250
 NucSpn=           1           1           0           0           0           0           2           2           0           1
 AtZEff=  -0.0000000  -0.0000000  -0.0000000  -0.0000000  -0.0000000  -0.0000000  -0.0000000  -0.0000000  -0.0000000  -0.0000000
 NQMom=    0.0000000   0.0000000   0.0000000   0.0000000   0.0000000   0.0000000   2.0440000   2.0440000   0.0000000   0.0000000
 NMagM=    2.7928460   2.7928460   0.0000000   0.0000000   0.0000000   0.0000000   0.4037610   0.4037610   0.0000000   2.7928460
 AtZNuc=   1.0000000   1.0000000  16.0000000   6.0000000   6.0000000   6.0000000   7.0000000   7.0000000   6.0000000   1.0000000

  Atom        31          32          33          34          35          36          37          38          39          40
 IAtWgt=           1           1          12           1           1           1          12           1           1           1
 AtmWgt=   1.0078250   1.0078250  12.0000000   1.0078250   1.0078250   1.0078250  12.0000000   1.0078250   1.0078250   1.0078250
 NucSpn=           1           1           0           1           1           1           0           1           1           1
 AtZEff=  -0.0000000  -0.0000000  -0.0000000  -0.0000000  -0.0000000  -0.0000000  -0.0000000  -0.0000000  -0.0000000  -0.0000000
 NQMom=    0.0000000   0.0000000   0.0000000   0.0000000   0.0000000   0.0000000   0.0000000   0.0000000   0.0000000   0.0000000
 NMagM=    2.7928460   2.7928460   0.0000000   2.7928460   2.7928460   2.7928460   0.0000000   2.7928460   2.7928460   2.7928460
 AtZNuc=   1.0000000   1.0000000   6.0000000   1.0000000   1.0000000   1.0000000   6.0000000   1.0000000   1.0000000   1.0000000

  Atom        41          42          43          44
 IAtWgt=          12           1           1           1
 AtmWgt=  12.0000000   1.0078250   1.0078250   1.0078250
 NucSpn=           0           1           1           1
 AtZEff=  -0.0000000  -0.0000000  -0.0000000  -0.0000000
 NQMom=    0.0000000   0.0000000   0.0000000   0.0000000
 NMagM=    0.0000000   2.7928460   2.7928460   2.7928460
 AtZNuc=   6.0000000   1.0000000   1.0000000   1.0000000
 Leave Link  101 at Tue Jan 26 17:14:25 2021, MaxMem=  4026531840 cpu:               0.7 elap:               0.1
 (Enter /opt/ohpc/pub/libs/gaussian/g16-A.03/sandybridge/g16/l202.exe)
                          Input orientation:                          
 ---------------------------------------------------------------------
 Center     Atomic      Atomic             Coordinates (Angstroms)
 Number     Number       Type             X           Y           Z
 ---------------------------------------------------------------------
      1          6           0        5.141333    0.341453   -1.428653
      2          6           0        4.246330    0.793113   -0.457920
      3         16           0        3.527427    2.438238   -0.612926
      4          6           0        3.852580   -0.085202    0.570411
      5          6           0        0.863708   -0.787434    0.770822
      6          6           0        1.152588   -1.949541    0.292605
      7          6           0        5.641454   -0.963707   -1.380320
      8          6           0        4.337968   -1.397272    0.611701
      9          1           0        2.805747   -0.536686    2.620663
     10          6           0       -0.327590   -0.104924    0.757243
     11          6           0        0.161049   -2.709273   -0.336618
     12          6           0       -1.110551   -2.125038   -0.416532
     13          6           0       -1.366563   -0.836811    0.116144
     14          1           0       -0.506361    0.876389    1.203135
     15          1           0        0.333628   -3.701573   -0.760587
     16          1           0       -1.915541   -2.656529   -0.930176
     17          6           0        5.242141   -1.827604   -0.363151
     18          1           0        5.450891    1.025420   -2.219360
     19          1           0        4.159480    2.990100    0.460876
     20          1           0        6.347910   -1.298886   -2.140548
     21          1           0        4.022912   -2.077842    1.402557
     22          1           0        5.625918   -2.847650   -0.323690
     23         16           0        2.641644    0.489998    1.741439
     24          6           0       -2.680648   -0.257498    0.003764
     25          6           0       -4.054270   -0.413992   -0.132503
     26          6           0       -3.489875    0.870167   -0.052158
     27          7           0       -5.099740   -1.211802   -0.243141
     28          7           0       -3.607387    2.185094   -0.049886
     29          6           0       -4.958870   -2.662960   -0.086881
     30          1           0       -5.249390   -3.175063   -1.015650
     31          1           0       -3.921906   -2.911213    0.159186
     32          1           0       -5.607057   -3.011636    0.730112
     33          6           0       -6.456302   -0.708508   -0.463149
     34          1           0       -6.932296   -1.289768   -1.265044
     35          1           0       -7.062340   -0.804638    0.450448
     36          1           0       -6.424137    0.340187   -0.774131
     37          6           0       -2.422516    3.047015   -0.104701
     38          1           0       -2.374233    3.683098    0.791036
     39          1           0       -1.518165    2.434104   -0.168534
     40          1           0       -2.472812    3.689712   -0.995626
     41          6           0       -4.905946    2.859820   -0.071613
     42          1           0       -4.903422    3.671788    0.668659
     43          1           0       -5.109136    3.288120   -1.064906
     44          1           0       -5.701050    2.156915    0.195603
 ---------------------------------------------------------------------
                    Distance matrix (angstroms):
                    1          2          3          4          5
     1  C    0.000000
     2  C    1.395475   0.000000
     3  S    2.768864   1.802022   0.000000
     4  C    2.416439   1.408524   2.806022   0.000000
     5  C    4.940663   3.930657   4.406259   3.076792   0.000000
     6  C    4.911361   4.201985   5.070745   3.292855   1.289432
     7  C    1.398535   2.425615   4.078141   2.788762   5.242646
     8  C    2.798500   2.439318   4.107046   1.399584   3.530964
     9  H    4.756369   3.649838   4.452762   2.345897   2.693752
    10  C    5.906481   4.817036   4.817281   4.184390   1.373024
    11  C    5.941607   5.382466   6.156762   4.619075   2.326718
    12  C    6.796618   6.100286   6.509447   5.455974   2.663962
    13  C    6.791717   5.872884   5.933686   5.292516   2.324898
    14  H    6.253712   5.035287   4.691364   4.508366   2.198247
    15  H    6.317151   5.966829   6.922387   5.218498   3.334427
    16  H    7.683479   7.077550   7.462118   6.491125   3.756479
    17  C    2.418732   2.805134   4.604350   2.416275   4.640962
    18  H    1.090346   2.146533   2.876873   3.401603   5.768004
    19  H    3.398483   2.382956   1.362752   3.092518   5.022743
    20  H    2.157159   3.409448   4.924921   3.879304   6.230099
    21  H    3.888393   3.428363   4.970177   2.166124   3.470564
    22  H    3.409713   3.895695   5.694553   3.402244   5.302932
    23  S    4.039801   2.739357   3.181711   1.780036   2.394783
    24  C    7.974581   7.021393   6.796138   6.560019   3.664924
    25  C    9.317179   8.394222   8.114687   7.944839   5.014176
    26  C    8.756257   7.747222   7.212200   7.430476   4.730605
    27  N   10.425815   9.561111   9.374836   9.059532   6.063903
    28  N    9.046553   7.986550   7.161471   7.822411   5.431406
    29  C   10.622662   9.839605   9.915452   9.204266   6.177027
    30  H   10.977412  10.306609  10.426114   9.742109   6.801634
    31  H    9.759271   8.990157   9.203551   8.282396   5.271303
    32  H   11.464352  10.629053  10.721179   9.903245   6.842480
    33  C   11.685023  10.807462  10.468968  10.379297   7.423709
    34  H   12.184423  11.399628  11.123358  11.006063   8.073089
    35  H   12.400572  11.457048  11.126103  10.939262   7.932539
    36  H   11.583976  10.684755  10.171599  10.373026   7.534659
    37  C    8.141543   7.048287   6.002560   7.045807   5.125311
    38  H    8.519234   7.331013   6.192768   7.281618   5.519993
    39  H    7.093377   6.000500   5.065126   5.978114   4.115096
    40  H    8.329079   7.336640   6.141296   7.530806   5.856410
    41  C   10.446604   9.390669   8.461237   9.262674   6.877577
    42  H   10.788278   9.657842   8.616456   9.528494   7.290740
    43  H   10.671798   9.701455   8.690041   9.714212   7.460221
    44  H   11.112667  10.061681   9.268098   9.820357   7.217764
                    6          7          8          9         10
     6  C    0.000000
     7  C    4.890855   0.000000
     8  C    3.248610   2.419752   0.000000
     9  H    3.185741   4.922545   2.669127   0.000000
    10  C    2.410275   6.398138   4.843426   3.671043   0.000000
    11  C    1.398665   5.845610   4.479655   4.523281   2.866694
    12  C    2.378124   6.918609   5.592251   5.204306   2.464069
    13  C    2.759607   7.167134   5.753379   4.875537   1.423422
    14  H    3.401038   6.917790   5.383944   3.869913   1.092590
    15  H    2.202164   6.004415   4.819514   5.249832   3.959407
    16  H    3.377638   7.757348   6.562735   6.276365   3.446688
    17  C    4.143589   1.392983   1.397516   4.062712   5.936734
    18  H    5.799635   2.167240   3.888823   5.732607   6.597627
    19  H    5.785306   4.606391   4.393591   4.351493   5.459011
    20  H    5.773643   1.090583   3.409461   5.983059   7.374621
    21  H    3.080132   3.406667   1.089903   2.310938   4.820343
    22  H    4.604031   2.160081   2.153455   4.686484   6.643434
    23  S    3.204334   4.567001   2.777699   1.361633   3.184168
    24  C    4.200016   8.465920   7.136501   6.084952   2.475458
    25  C    5.445181   9.791134   8.482354   7.392889   3.843867
    26  C    5.442617   9.407884   8.176620   6.982697   3.406755
    27  N    6.318456  10.804072   9.478158   8.435276   4.999936
    28  N    6.314259   9.860328   8.740693   7.461113   4.080773
    29  C    6.164649  10.813293   9.408569   8.493592   5.357691
    30  H    6.648215  11.119063   9.885659   9.223288   6.065725
    31  H    5.166537   9.880319   8.409656   7.547090   4.599134
    32  H    6.856549  11.626562  10.075898   8.970777   6.026814
    33  C    7.746388  12.135157  10.869497   9.763451   6.278119
    34  H    8.259959  12.578505  11.425961  10.511676   7.008255
    35  H    8.295828  12.836019  11.416840  10.107461   6.777948
    36  H    7.986710  12.150971  10.989186   9.873413   6.301676
    37  C    6.156687   9.096192   8.122134   6.899656   3.881544
    38  H    6.664347   9.516240   8.419974   6.927215   4.305694
    39  H    5.153825   8.017087   7.041484   5.941500   2.953167
    40  H    6.826730   9.361817   8.651453   7.668323   4.698275
    41  C    7.743929  11.295119  10.199985   8.846175   5.517069
    42  H    8.271397  11.699596  10.540489   8.997381   5.933771
    43  H    8.275573  11.565150  10.677625   9.531943   6.139720
    44  H    7.990291  11.869044  10.657733   9.246729   5.857084
                   11         12         13         14         15
    11  C    0.000000
    12  C    1.401672   0.000000
    13  C    2.458598   1.417327   0.000000
    14  H    3.958945   3.463659   2.203758   0.000000
    15  H    1.092791   2.165523   3.444730   5.051685   0.000000
    16  H    2.160398   1.092850   2.169686   4.360999   2.485888
    17  C    5.157086   6.359875   6.699729   6.542943   5.269081
    18  H    6.743521   7.498540   7.443129   6.872011   7.117504
    19  H    7.007589   7.396466   6.730620   5.175789   7.804332
    20  H    6.597015   7.699571   8.051041   7.930515   6.621842
    21  H    4.282221   5.446444   5.678156   5.411244   4.574550
    22  H    5.466636   6.775751   7.289151   7.335156   5.378513
    23  S    4.550495   5.057096   4.524127   3.216987   5.399661
    24  C    3.768594   2.475795   1.440504   2.729783   4.640231
    25  C    4.804050   3.416699   2.732100   4.004581   5.518725
    26  C    5.120796   3.842552   2.729570   3.236843   6.001821
    27  N    5.470563   4.096058   3.769126   5.248941   5.999016
    28  N    6.183701   4.994583   3.765736   3.591536   7.119659
    29  C    5.126215   3.899691   4.034936   5.832321   5.435359
    30  H    5.472741   4.311784   4.671694   6.620694   5.613587
    31  H    4.117903   2.975439   3.291622   5.205930   4.424954
    32  H    5.873703   4.724343   4.805061   6.430987   6.163598
    33  C    6.914362   5.530442   5.124206   6.378887   7.426308
    34  H    7.293320   5.942252   5.752411   7.216425   7.672349
    35  H    7.511621   6.157833   5.705670   6.809791   8.034873
    36  H    7.270165   5.868510   5.268488   6.262361   7.874223
    37  C    6.313750   5.344962   4.030870   3.177059   7.319150
    38  H    6.968620   6.065440   4.679792   3.396526   8.017070
    39  H    5.413163   4.584041   3.286778   2.309047   6.436319
    40  H    6.951153   6.000202   4.790535   4.076305   7.909642
    41  C    7.533888   6.274775   5.121286   4.991526   8.424945
    42  H    8.208373   7.011897   5.756918   5.237754   9.156194
    43  H    8.017105   6.761017   5.693574   5.669744   8.864090
    44  H    7.637228   6.307338   5.268443   5.444232   8.464840
                   16         17         18         19         20
    16  H    0.000000
    17  C    7.227797   0.000000
    18  H    8.335650   3.410108   0.000000
    19  H    8.409835   5.006141   3.565302   0.000000
    20  H    8.461254   2.159029   2.492640   5.472845   0.000000
    21  H    6.406383   2.160292   4.978719   5.156496   4.308826
    22  H    7.568220   1.090567   4.315654   6.070034   2.494176
    23  S    6.148666   4.069787   4.885333   3.192832   5.657414
    24  C    2.685700   8.085199   8.527021   7.585723   9.337956
    25  C    3.199909   9.406102   9.837427   8.910984  10.631116
    26  C    3.960685   9.144550   9.200987   7.954241  10.288254
    27  N    3.563478  10.360894  10.964781  10.192388  11.604156
    28  N    5.203707   9.721832   9.386366   7.825160  10.752531
    29  C    3.158012  10.238885  11.247877  10.742506  11.572447
    30  H    3.375016  10.597812  11.558070  11.345316  11.801814
    31  H    2.297188   9.242662  10.440493  10.011259  10.646948
    32  H    4.063243  10.968238  12.135708  11.466410  12.413518
    33  C    4.963004  11.752274  12.160264  11.279555  12.927106
    34  H    5.210375  12.219640  12.633849  12.013474  13.309037
    35  H    5.641380  12.373708  12.925089  11.846071  13.667200
    36  H    5.415911  11.873090  11.982259  10.979992  12.949086
    37  C    5.785227   9.087116   8.399355   6.606496   9.997595
    38  H    6.585123   9.471491   8.795357   6.578652  10.463753
    39  H    5.162611   7.993858   7.399866   5.739420   8.927440
    40  H    6.370998   9.505856   8.448730   6.826284  10.198142
    41  C    6.333227  11.182156  10.735079   9.081986  12.174753
    42  H    7.178531  11.586216  11.070488   9.090878  12.617120
    43  H    6.749522  11.567715  10.861250   9.398089  12.387959
    44  H    6.226291  11.659418  11.466391   9.899223  12.750592
                   21         22         23         24         25
    21  H    0.000000
    22  H    2.478338   0.000000
    23  S    2.935395   4.930572   0.000000
    24  C    7.085760   8.707190   5.648456   0.000000
    25  C    8.388425   9.983250   7.011713   1.389207   0.000000
    26  C    8.200544   9.848532   6.399769   1.389102   1.405013
    27  N    9.310270  10.849987   8.170906   2.612214   1.319753
    28  N    8.860230  10.519382   6.718079   2.613040   2.638518
    29  C    9.123223  10.589047   8.429218   3.314326   2.424508
    30  H    9.645061  10.902217   9.127027   4.018685   3.135566
    31  H    8.084591   9.560238   7.559891   2.933783   2.517681
    32  H    9.698477  11.283489   9.018054   4.083715   3.146904
    33  C   10.731722  12.270918   9.437650   3.831055   2.442504
    34  H   11.302820  12.689440  10.191508   4.555433   3.214447
    35  H   11.198677  12.874979   9.874717   4.438256   3.088838
    36  H   10.941922  12.472731   9.409512   3.869891   2.568412
    37  C    8.371352   9.978593   5.965927   3.316354   3.826482
    38  H    8.630519  10.387285   6.021476   4.030135   4.523449
    39  H    7.316387   8.885883   4.973083   2.936967   3.813762
    40  H    9.011681  10.429671   6.624753   4.077063   4.481783
    41  C   10.309131  11.981607   8.115992   3.830836   3.383327
    42  H   10.643133  12.423962   8.258491   4.563124   4.249296
    43  H   10.875487  12.387028   8.705151   4.428433   3.960777
    44  H   10.674518  12.394174   8.646893   3.871566   3.070684
                   26         27         28         29         30
    26  C    0.000000
    27  N    2.638699   0.000000
    28  N    1.320169   3.715288   0.000000
    29  C    3.826505   1.466329   5.033041   0.000000
    30  H    4.515318   2.115079   5.688599   1.099665   0.000000
    31  H    3.811844   2.106456   5.110282   1.094291   1.792225
    32  H    4.490301   2.108078   5.622551   1.099636   1.789502
    33  C    3.385383   1.463547   4.081671   2.490735   2.801033
    34  H    4.241070   2.099673   4.960473   2.677337   2.539430
    35  H    3.977448   2.121001   4.596252   2.857738   3.324928
    36  H    3.067901   2.108233   3.444168   3.411482   3.714208
    37  C    2.425012   5.032317   1.466230   6.247978   6.894585
    38  H    3.141371   5.697188   2.114671   6.908223   7.652778
    39  H    2.519342   5.111348   2.107352   6.150218   6.789875
    40  H    3.142353   5.611758   2.108450   6.882060   7.405061
    41  C    2.442203   4.079839   1.463551   5.523055   6.117922
    42  H    3.219747   4.971858   2.099112   6.379886   7.059459
    43  H    3.081260   4.574351   2.121835   6.032783   6.464892
    44  H    2.570292   3.449975   2.108194   4.884857   5.486449
                   31         32         33         34         35
    31  H    0.000000
    32  H    1.782070   0.000000
    33  C    3.415022   2.729375   0.000000
    34  H    3.704047   2.949870   1.098849   0.000000
    35  H    3.792732   2.658364   1.100537   1.787505   0.000000
    36  H    4.207593   3.763653   1.094306   1.776506   1.793745
    37  C    6.149658   6.895322   5.523031   6.363348   6.055691
    38  H    6.802901   7.434671   6.125559   7.052149   6.498778
    39  H    5.870075   6.868965   5.860717   6.662010   6.450617
    40  H    6.856068   7.596692   5.957857   6.689903   6.584381
    41  C    5.858876   5.967270   3.910226   4.769639   4.283787
    42  H    6.675241   6.720642   4.783244   5.698471   4.974629
    43  H    6.429591   6.569394   4.260282   4.931635   4.781419
    44  H    5.371462   5.196966   3.035623   3.940695   3.269381
                   36         37         38         39         40
    36  H    0.000000
    37  C    4.877297   0.000000
    38  H    5.479646   1.099672   0.000000
    39  H    5.368407   1.094342   1.792655   0.000000
    40  H    5.184722   1.099698   1.789392   1.781006   0.000000
    41  C    3.024398   2.490695   2.798485   3.415800   2.731787
    42  H    3.936214   2.672699   2.532173   3.700367   2.945850
    43  H    3.241001   2.863224   3.328697   3.798407   2.667636
    44  H    2.182599   3.410461   3.708300   4.207845   3.766963
                   41         42         43         44
    41  C    0.000000
    42  H    1.098773   0.000000
    43  H    1.100617   1.787391   0.000000
    44  H    1.094381   1.776185   1.794121   0.000000
 Stoichiometry    C19H21N2S2(1+)
 Framework group  C1[X(C19H21N2S2)]
 Deg. of freedom   126
 Full point group                 C1      NOp   1
 Largest Abelian subgroup         C1      NOp   1
 Largest concise Abelian subgroup C1      NOp   1
                         Standard orientation:                         
 ---------------------------------------------------------------------
 Center     Atomic      Atomic             Coordinates (Angstroms)
 Number     Number       Type             X           Y           Z
 ---------------------------------------------------------------------
      1          6           0        5.141333    0.341453   -1.428653
      2          6           0        4.246330    0.793113   -0.457920
      3         16           0        3.527427    2.438238   -0.612926
      4          6           0        3.852580   -0.085202    0.570411
      5          6           0        0.863708   -0.787434    0.770822
      6          6           0        1.152588   -1.949541    0.292605
      7          6           0        5.641454   -0.963707   -1.380320
      8          6           0        4.337968   -1.397272    0.611701
      9          1           0        2.805747   -0.536686    2.620663
     10          6           0       -0.327590   -0.104924    0.757243
     11          6           0        0.161049   -2.709273   -0.336618
     12          6           0       -1.110551   -2.125038   -0.416532
     13          6           0       -1.366563   -0.836811    0.116144
     14          1           0       -0.506361    0.876389    1.203135
     15          1           0        0.333628   -3.701573   -0.760587
     16          1           0       -1.915541   -2.656529   -0.930176
     17          6           0        5.242141   -1.827604   -0.363151
     18          1           0        5.450891    1.025420   -2.219360
     19          1           0        4.159480    2.990100    0.460876
     20          1           0        6.347910   -1.298886   -2.140548
     21          1           0        4.022912   -2.077842    1.402557
     22          1           0        5.625918   -2.847650   -0.323690
     23         16           0        2.641644    0.489998    1.741439
     24          6           0       -2.680648   -0.257498    0.003764
     25          6           0       -4.054270   -0.413992   -0.132503
     26          6           0       -3.489875    0.870167   -0.052158
     27          7           0       -5.099740   -1.211802   -0.243141
     28          7           0       -3.607387    2.185094   -0.049886
     29          6           0       -4.958870   -2.662960   -0.086881
     30          1           0       -5.249390   -3.175063   -1.015650
     31          1           0       -3.921906   -2.911213    0.159186
     32          1           0       -5.607057   -3.011636    0.730112
     33          6           0       -6.456302   -0.708508   -0.463149
     34          1           0       -6.932296   -1.289768   -1.265044
     35          1           0       -7.062340   -0.804638    0.450448
     36          1           0       -6.424137    0.340187   -0.774131
     37          6           0       -2.422516    3.047015   -0.104701
     38          1           0       -2.374233    3.683098    0.791036
     39          1           0       -1.518165    2.434104   -0.168534
     40          1           0       -2.472812    3.689712   -0.995626
     41          6           0       -4.905946    2.859820   -0.071613
     42          1           0       -4.903422    3.671788    0.668659
     43          1           0       -5.109136    3.288120   -1.064906
     44          1           0       -5.701050    2.156915    0.195603
 ---------------------------------------------------------------------
 Rotational constants (GHZ):           0.4060159           0.0982633           0.0849802
 Leave Link  202 at Tue Jan 26 17:14:25 2021, MaxMem=  4026531840 cpu:               0.3 elap:               0.1
 (Enter /opt/ohpc/pub/libs/gaussian/g16-A.03/sandybridge/g16/l301.exe)
 Standard basis: TZVP (5D, 7F)
 Ernie: Thresh=  0.10000D-02 Tol=  0.10000D-05 Strict=F.
 There are   592 symmetry adapted cartesian basis functions of A   symmetry.
 There are   569 symmetry adapted basis functions of A   symmetry.
   569 basis functions,   997 primitive gaussians,   592 cartesian basis functions
    90 alpha electrons       90 beta electrons
       nuclear repulsion energy      2022.4848436690 Hartrees.
 IExCor=33909 DFT=T Ex+Corr=LC-wHPBE ExCW=0 ScaHFX=  1.000000
 ScaDFX=  1.000000  1.000000  1.000000  1.000000 ScalE2=  1.000000  1.000000
 IRadAn=      5 IRanWt=     -1 IRanGd=            0 ICorTp=0 IEmpDi=  4
 HFx  wShort=  0.000000 wLong=  0.115700 cFull=  0.000000 cShort=  0.000000 cLong=  1.000000
 DFx  wShort=  0.000000 wLong=  0.115700 cFull=  0.000000 cShort=  1.000000 cLong=  0.000000
 NAtoms=   44 NActive=   44 NUniq=   44 SFac= 1.00D+00 NAtFMM=   60 NAOKFM=F Big=F
 Integral buffers will be    131072 words long.
 Raffenetti 2 integral format.
 Two-electron integral symmetry is turned on.
 Leave Link  301 at Tue Jan 26 17:14:25 2021, MaxMem=  4026531840 cpu:               0.4 elap:               0.1
 (Enter /opt/ohpc/pub/libs/gaussian/g16-A.03/sandybridge/g16/l302.exe)
 NPDir=0 NMtPBC=     1 NCelOv=     1 NCel=       1 NClECP=     1 NCelD=      1
         NCelK=      1 NCelE2=     1 NClLst=     1 CellRange=     0.0.
 One-electron integrals computed using PRISM.
 One-electron integral symmetry used in STVInt
 NBasis=   569 RedAO= T EigKep=  9.00D-06  NBF=   569
 NBsUse=   569 1.00D-06 EigRej= -1.00D+00 NBFU=   569
 Precomputing XC quadrature grid using
 IXCGrd= 4 IRadAn=           5 IRanWt=          -1 IRanGd=           0 AccXCQ= 0.00D+00.
 Generated NRdTot=       0 NPtTot=           0 NUsed=           0 NTot=          32
 NSgBfM=   570   570   570   570   570 MxSgAt=    44 MxSgA2=    44.
 Leave Link  302 at Tue Jan 26 17:14:26 2021, MaxMem=  4026531840 cpu:               9.0 elap:               1.2
 (Enter /opt/ohpc/pub/libs/gaussian/g16-A.03/sandybridge/g16/l303.exe)
 DipDrv:  MaxL=1.
 Leave Link  303 at Tue Jan 26 17:14:26 2021, MaxMem=  4026531840 cpu:               0.9 elap:               0.2
 (Enter /opt/ohpc/pub/libs/gaussian/g16-A.03/sandybridge/g16/l401.exe)
 ExpMin= 9.52D-02 ExpMax= 6.07D+04 ExpMxC= 2.07D+03 IAcc=3 IRadAn=         5 AccDes= 0.00D+00
 Harris functional with IExCor=33909 and IRadAn=       5 diagonalized for initial guess.
 HarFok:  IExCor=33909 AccDes= 0.00D+00 IRadAn=         5 IDoV= 1 UseB2=F ITyADJ=14
 ICtDFT=  3500011 ScaDFX=  1.000000  1.000000  1.000000  1.000000
 FoFCou: FMM=F IPFlag=           0 FMFlag=      100000 FMFlg1=           0
         NFxFlg=           0 DoJE=T BraDBF=F KetDBF=T FulRan=T
         wScrn=  0.000000 ICntrl=       500 IOpCl=  0 I1Cent=   200000004 NGrid=           0
         NMat0=    1 NMatS0=      1 NMatT0=    0 NMatD0=    1 NMtDS0=    0 NMtDT0=    0
 Petite list used in FoFCou.
 Harris En= -1629.91308002740    
 JPrj=0 DoOrth=F DoCkMO=F.
 Leave Link  401 at Tue Jan 26 17:14:32 2021, MaxMem=  4026531840 cpu:              49.2 elap:               6.2
 (Enter /opt/ohpc/pub/libs/gaussian/g16-A.03/sandybridge/g16/l502.exe)
 Integral symmetry usage will be decided dynamically.
 Closed shell SCF:
 Using DIIS extrapolation, IDIIS=    10.
 NGot=  4026531840 LenX=  4025820226 LenY=  4025469170
 Requested convergence on RMS density matrix=1.00D-06 within  32 cycles.
 Requested convergence on MAX density matrix=1.00D-04.
 Requested convergence on             energy=1.00D-04.
 Virtual orbitals will be shifted by   0.500 hartree.
 No special actions if energy rises.
 Dynamic level shift is on during FON iterations.

 Cycle   1  Pass 1  IDiag  1:
 FoFJK:  IHMeth= 1 ICntrl=       0 DoSepK=T KAlg= 0 I1Cent=           0 FoldK=F
 IRaf=         1 NMat=       1 IRICut=       1 DoRegI=T DoRafI=F ISym2E= 0 IDoP0=0 IntGTp=1.
 FoFCou: FMM=F IPFlag=           0 FMFlag=      100000 FMFlg1=           0
         NFxFlg=           0 DoJE=T BraDBF=F KetDBF=F FulRan=T
         wScrn=  0.000000 ICntrl=       500 IOpCl=  0 I1Cent=           0 NGrid=           0
         NMat0=    1 NMatS0=      1 NMatT0=    0 NMatD0=    1 NMtDS0=    0 NMtDT0=    0
 Symmetry not used in FoFCou.
 E= -1640.70133933583    
 DIIS: error= 3.02D-02 at cycle   1 NSaved=   1.
 NSaved= 1 IEnMin= 1 EnMin= -1640.70133933583     IErMin= 1 ErrMin= 3.02D-02
 ErrMax= 3.02D-02  0.00D+00 EMaxC= 1.00D+00 BMatC= 5.06D-01 BMatP= 5.06D-01
 IDIUse=1 WtCom= 1.00D+00 WtEn= 0.00D+00
 Coeff-Com:  0.100D+01
 Coeff:      0.100D+01
 Gap=     0.369 Goal=   None    Shift=    0.500
 T= 1501. Gap= 0.463 NK=0 IS=   91 IE=  569 IFin=   90
          NO(<0.9)=   0  NV(>0.1)=   0     90.00e < EF      0.00e >EF  Err=0.0D+00
 GapD=    0.369 DampG=1.000 DampE=0.500 DampFc=0.5000 IDamp=-1.
 Damping current iteration by 5.00D-01
 RMSDP=4.23D-03 MaxDP=2.84D-01              OVMax= 1.76D-01

 Cycle   2  Pass 1  IDiag  1:
 E= -1641.05405827163     Delta-E=       -0.352718935801 Rises=F Damp=T
 DIIS: error= 1.18D-02 at cycle   2 NSaved=   2.
 NSaved= 2 IEnMin= 2 EnMin= -1641.05405827163     IErMin= 2 ErrMin= 1.18D-02
 ErrMax= 1.18D-02  0.00D+00 EMaxC= 1.00D+00 BMatC= 6.32D-02 BMatP= 5.06D-01
 IDIUse=1 WtCom= 1.00D+00 WtEn= 0.00D+00
 Coeff-Com: -0.414D+00 0.141D+01
 Coeff:     -0.414D+00 0.141D+01
 Gap=     0.266 Goal=   None    Shift=    0.500
 T= 1364. Gap= 0.695 NK=0 IS=   91 IE=  569 IFin=   90
          NO(<0.9)=   0  NV(>0.1)=   0     90.00e < EF      0.00e >EF  Err=0.0D+00
 GapD=    0.266 DampG=1.000 DampE=0.500 DampFc=0.5000 IDamp=-1.
 Damping current iteration by 5.00D-01
 RMSDP=1.61D-03 MaxDP=7.31D-02 DE=-3.53D-01 OVMax= 2.61D-02

 Cycle   3  Pass 1  IDiag  1:
 E= -1641.15539497313     Delta-E=       -0.101336701501 Rises=F Damp=T
 DIIS: error= 4.10D-03 at cycle   3 NSaved=   3.
 NSaved= 3 IEnMin= 3 EnMin= -1641.15539497313     IErMin= 3 ErrMin= 4.10D-03
 ErrMax= 4.10D-03  0.00D+00 EMaxC= 1.00D+00 BMatC= 9.45D-03 BMatP= 6.32D-02
 IDIUse=1 WtCom= 1.00D+00 WtEn= 0.00D+00
 Coeff-Com:  0.170D+00-0.107D+01 0.190D+01
 Coeff:      0.170D+00-0.107D+01 0.190D+01
 Gap=     0.193 Goal=   None    Shift=    0.500
 T= 1095. Gap= 0.692 NK=0 IS=   91 IE=  569 IFin=   90
          NO(<0.9)=   0  NV(>0.1)=   0     90.00e < EF      0.00e >EF  Err=0.0D+00
 GapD=    0.193 DampG=1.000 DampE=1.000 DampFc=1.0000 IDamp=-1.
 RMSDP=8.01D-04 MaxDP=4.12D-02 DE=-1.01D-01 OVMax= 1.38D-02

 Cycle   4  Pass 1  IDiag  1:
 E= -1641.23627540189     Delta-E=       -0.080880428758 Rises=F Damp=F
 DIIS: error= 1.26D-03 at cycle   4 NSaved=   4.
 NSaved= 4 IEnMin= 4 EnMin= -1641.23627540189     IErMin= 4 ErrMin= 1.26D-03
 ErrMax= 1.26D-03  0.00D+00 EMaxC= 1.00D+00 BMatC= 1.79D-03 BMatP= 9.45D-03
 IDIUse=1 WtCom= 1.00D+00 WtEn= 0.00D+00
 Coeff-Com:  0.873D-01-0.109D+00-0.203D-01 0.104D+01
 Coeff:      0.873D-01-0.109D+00-0.203D-01 0.104D+01
 Gap=     0.197 Goal=   None    Shift=    0.500
 T=  502. Gap= 0.697 NK=0 IS=   91 IE=  569 IFin=   90
          NO(<0.9)=   0  NV(>0.1)=   0     90.00e < EF      0.00e >EF  Err=0.0D+00
 GapD=    0.197 DampG=1.000 DampE=1.000 DampFc=1.0000 IDamp=-1.
 RMSDP=4.22D-04 MaxDP=3.11D-02 DE=-8.09D-02 OVMax= 7.41D-03

 Cycle   5  Pass 1  IDiag  1:
 E= -1641.23843003272     Delta-E=       -0.002154630835 Rises=F Damp=F
 DIIS: error= 1.08D-03 at cycle   5 NSaved=   5.
 NSaved= 5 IEnMin= 5 EnMin= -1641.23843003272     IErMin= 5 ErrMin= 1.08D-03
 ErrMax= 1.08D-03  0.00D+00 EMaxC= 1.00D+00 BMatC= 2.44D-04 BMatP= 1.79D-03
 IDIUse=1 WtCom= 1.00D+00 WtEn= 0.00D+00
 Coeff-Com: -0.854D-02 0.179D+00-0.332D+00 0.406D-01 0.112D+01
 Coeff:     -0.854D-02 0.179D+00-0.332D+00 0.406D-01 0.112D+01
 Gap=     0.197 Goal=   None    Shift=    0.500
 GapD=    0.197 DampG=1.000 DampE=1.000 DampFc=1.0000 IDamp=-1.
 RMSDP=2.20D-04 MaxDP=1.37D-02 DE=-2.15D-03 OVMax= 6.25D-03

 Cycle   6  Pass 1  IDiag  1:
 E= -1641.23891465353     Delta-E=       -0.000484620809 Rises=F Damp=F
 DIIS: error= 8.77D-04 at cycle   6 NSaved=   6.
 NSaved= 6 IEnMin= 6 EnMin= -1641.23891465353     IErMin= 6 ErrMin= 8.77D-04
 ErrMax= 8.77D-04  0.00D+00 EMaxC= 1.00D+00 BMatC= 5.62D-05 BMatP= 2.44D-04
 IDIUse=1 WtCom= 1.00D+00 WtEn= 0.00D+00
 Coeff-Com: -0.149D-01 0.354D-01-0.341D-01-0.225D+00-0.154D+00 0.139D+01
 Coeff:     -0.149D-01 0.354D-01-0.341D-01-0.225D+00-0.154D+00 0.139D+01
 Gap=     0.196 Goal=   None    Shift=    0.500
 RMSDP=1.21D-04 MaxDP=6.83D-03 DE=-4.85D-04 OVMax= 4.92D-03

 Cycle   7  Pass 1  IDiag  1:
 E= -1641.23910092863     Delta-E=       -0.000186275104 Rises=F Damp=F
 DIIS: error= 6.69D-04 at cycle   7 NSaved=   7.
 NSaved= 7 IEnMin= 7 EnMin= -1641.23910092863     IErMin= 7 ErrMin= 6.69D-04
 ErrMax= 6.69D-04  0.00D+00 EMaxC= 1.00D+00 BMatC= 2.23D-05 BMatP= 5.62D-05
 IDIUse=1 WtCom= 1.00D+00 WtEn= 0.00D+00
 Coeff-Com: -0.295D-02-0.362D-01 0.703D-01-0.130D+00-0.337D+00 0.192D+00
 Coeff-Com:  0.124D+01
 Coeff:     -0.295D-02-0.362D-01 0.703D-01-0.130D+00-0.337D+00 0.192D+00
 Coeff:      0.124D+01
 Gap=     0.197 Goal=   None    Shift=    0.500
 RMSDP=6.43D-05 MaxDP=3.47D-03 DE=-1.86D-04 OVMax= 3.50D-03

 Cycle   8  Pass 1  IDiag  1:
 E= -1641.23919052443     Delta-E=       -0.000089595799 Rises=F Damp=F
 DIIS: error= 4.83D-04 at cycle   8 NSaved=   8.
 NSaved= 8 IEnMin= 8 EnMin= -1641.23919052443     IErMin= 8 ErrMin= 4.83D-04
 ErrMax= 4.83D-04  0.00D+00 EMaxC= 1.00D+00 BMatC= 8.97D-06 BMatP= 2.23D-05
 IDIUse=1 WtCom= 1.00D+00 WtEn= 0.00D+00
 Coeff-Com:  0.580D-02-0.380D-01 0.533D-01 0.526D-01-0.136D+00-0.647D+00
 Coeff-Com:  0.657D-01 0.164D+01
 Coeff:      0.580D-02-0.380D-01 0.533D-01 0.526D-01-0.136D+00-0.647D+00
 Coeff:      0.657D-01 0.164D+01
 Gap=     0.198 Goal=   None    Shift=    0.500
 RMSDP=4.04D-05 MaxDP=1.95D-03 DE=-8.96D-05 OVMax= 2.88D-03

 Cycle   9  Pass 1  IDiag  1:
 E= -1641.23923587546     Delta-E=       -0.000045351031 Rises=F Damp=F
 DIIS: error= 3.73D-04 at cycle   9 NSaved=   9.
 NSaved= 9 IEnMin= 9 EnMin= -1641.23923587546     IErMin= 9 ErrMin= 3.73D-04
 ErrMax= 3.73D-04  0.00D+00 EMaxC= 1.00D+00 BMatC= 4.31D-06 BMatP= 8.97D-06
 IDIUse=1 WtCom= 1.00D+00 WtEn= 0.00D+00
 Coeff-Com:  0.418D-02-0.792D-02 0.340D-02 0.105D+00 0.115D-01-0.574D+00
 Coeff-Com: -0.392D+00 0.605D+00 0.124D+01
 Coeff:      0.418D-02-0.792D-02 0.340D-02 0.105D+00 0.115D-01-0.574D+00
 Coeff:     -0.392D+00 0.605D+00 0.124D+01
 Gap=     0.198 Goal=   None    Shift=    0.500
 RMSDP=2.34D-05 MaxDP=9.66D-04 DE=-4.54D-05 OVMax= 2.10D-03

 Cycle  10  Pass 1  IDiag  1:
 E= -1641.23925833113     Delta-E=       -0.000022455669 Rises=F Damp=F
 DIIS: error= 2.56D-04 at cycle  10 NSaved=  10.
 NSaved=10 IEnMin=10 EnMin= -1641.23925833113     IErMin=10 ErrMin= 2.56D-04
 ErrMax= 2.56D-04  0.00D+00 EMaxC= 1.00D+00 BMatC= 2.04D-06 BMatP= 4.31D-06
 IDIUse=1 WtCom= 1.00D+00 WtEn= 0.00D+00
 Coeff-Com: -0.428D-03 0.113D-01-0.199D-01 0.467D-01 0.309D-01-0.189D-01
 Coeff-Com: -0.226D+00-0.350D+00-0.623D+00 0.215D+01
 Coeff:     -0.428D-03 0.113D-01-0.199D-01 0.467D-01 0.309D-01-0.189D-01
 Coeff:     -0.226D+00-0.350D+00-0.623D+00 0.215D+01
 Gap=     0.198 Goal=   None    Shift=    0.500
 RMSDP=1.45D-05 MaxDP=5.98D-04 DE=-2.25D-05 OVMax= 1.59D-03

 Cycle  11  Pass 1  IDiag  1:
 E= -1641.23926925039     Delta-E=       -0.000010919256 Rises=F Damp=F
 DIIS: error= 1.82D-04 at cycle  11 NSaved=  11.
 NSaved=11 IEnMin=11 EnMin= -1641.23926925039     IErMin=11 ErrMin= 1.82D-04
 ErrMax= 1.82D-04  0.00D+00 EMaxC= 1.00D+00 BMatC= 1.10D-06 BMatP= 2.04D-06
 IDIUse=1 WtCom= 1.00D+00 WtEn= 0.00D+00
 Coeff-Com: -0.142D-02 0.690D-02-0.900D-02-0.143D-02-0.141D-02 0.194D+00
 Coeff-Com: -0.297D-02-0.415D+00-0.110D+01 0.794D+00 0.153D+01
 Coeff:     -0.142D-02 0.690D-02-0.900D-02-0.143D-02-0.141D-02 0.194D+00
 Coeff:     -0.297D-02-0.415D+00-0.110D+01 0.794D+00 0.153D+01
 Gap=     0.198 Goal=   None    Shift=    0.500
 RMSDP=9.30D-06 MaxDP=4.22D-04 DE=-1.09D-05 OVMax= 1.12D-03

 Cycle  12  Pass 1  IDiag  1:
 E= -1641.23927456070     Delta-E=       -0.000005310313 Rises=F Damp=F
 DIIS: error= 1.24D-04 at cycle  12 NSaved=  12.
 NSaved=12 IEnMin=12 EnMin= -1641.23927456070     IErMin=12 ErrMin= 1.24D-04
 ErrMax= 1.24D-04  0.00D+00 EMaxC= 1.00D+00 BMatC= 5.52D-07 BMatP= 1.10D-06
 IDIUse=1 WtCom= 1.00D+00 WtEn= 0.00D+00
 Coeff-Com: -0.369D-03-0.193D-02 0.463D-02-0.942D-02-0.149D-01 0.617D-01
 Coeff-Com:  0.754D-01 0.366D-01-0.304D+00-0.680D+00-0.450D+00 0.228D+01
 Coeff:     -0.369D-03-0.193D-02 0.463D-02-0.942D-02-0.149D-01 0.617D-01
 Coeff:      0.754D-01 0.366D-01-0.304D+00-0.680D+00-0.450D+00 0.228D+01
 Gap=     0.198 Goal=   None    Shift=    0.500
 RMSDP=6.06D-06 MaxDP=2.58D-04 DE=-5.31D-06 OVMax= 7.92D-04

 Cycle  13  Pass 1  IDiag  1:
 E= -1641.23927702263     Delta-E=       -0.000002461931 Rises=F Damp=F
 DIIS: error= 8.55D-05 at cycle  13 NSaved=  13.
 NSaved=13 IEnMin=13 EnMin= -1641.23927702263     IErMin=13 ErrMin= 8.55D-05
 ErrMax= 8.55D-05  0.00D+00 EMaxC= 1.00D+00 BMatC= 3.41D-07 BMatP= 5.52D-07
 IDIUse=1 WtCom= 1.00D+00 WtEn= 0.00D+00
 Coeff-Com:  0.831D-04-0.314D-02 0.572D-02-0.178D-02-0.160D-01-0.235D-01
 Coeff-Com:  0.677D-01 0.202D+00 0.867D-01-0.854D+00-0.101D+01 0.131D+01
 Coeff-Com:  0.123D+01
 Coeff:      0.831D-04-0.314D-02 0.572D-02-0.178D-02-0.160D-01-0.235D-01
 Coeff:      0.677D-01 0.202D+00 0.867D-01-0.854D+00-0.101D+01 0.131D+01
 Coeff:      0.123D+01
 Gap=     0.198 Goal=   None    Shift=    0.500
 RMSDP=3.78D-06 MaxDP=1.46D-04 DE=-2.46D-06 OVMax= 5.63D-04

 Cycle  14  Pass 1  IDiag  1:
 E= -1641.23927822486     Delta-E=       -0.000001202226 Rises=F Damp=F
 DIIS: error= 5.78D-05 at cycle  14 NSaved=  14.
 NSaved=14 IEnMin=14 EnMin= -1641.23927822486     IErMin=14 ErrMin= 5.78D-05
 ErrMax= 5.78D-05  0.00D+00 EMaxC= 1.00D+00 BMatC= 1.86D-07 BMatP= 3.41D-07
 IDIUse=1 WtCom= 1.00D+00 WtEn= 0.00D+00
 Coeff-Com:  0.202D-03-0.139D-02 0.212D-02 0.621D-02-0.133D-01-0.449D-01
 Coeff-Com:  0.322D-01 0.153D+00 0.152D+00-0.319D+00-0.617D+00-0.296D-01
 Coeff-Com: -0.263D+00 0.194D+01
 Coeff:      0.202D-03-0.139D-02 0.212D-02 0.621D-02-0.133D-01-0.449D-01
 Coeff:      0.322D-01 0.153D+00 0.152D+00-0.319D+00-0.617D+00-0.296D-01
 Coeff:     -0.263D+00 0.194D+01
 Gap=     0.198 Goal=   None    Shift=    0.500
 RMSDP=2.55D-06 MaxDP=1.04D-04 DE=-1.20D-06 OVMax= 4.01D-04

 Cycle  15  Pass 1  IDiag  1:
 E= -1641.23927880302     Delta-E=       -0.000000578163 Rises=F Damp=F
 DIIS: error= 3.91D-05 at cycle  15 NSaved=  15.
 NSaved=15 IEnMin=15 EnMin= -1641.23927880302     IErMin=15 ErrMin= 3.91D-05
 ErrMax= 3.91D-05  0.00D+00 EMaxC= 1.00D+00 BMatC= 9.72D-08 BMatP= 1.86D-07
 IDIUse=1 WtCom= 1.00D+00 WtEn= 0.00D+00
 Coeff-Com:  0.835D-04 0.186D-03-0.582D-03 0.532D-02-0.693D-02-0.153D-01
 Coeff-Com:  0.696D-02 0.331D-01 0.355D-01 0.115D+00-0.107D+00-0.426D+00
 Coeff-Com: -0.900D+00 0.570D+00 0.169D+01
 Coeff:      0.835D-04 0.186D-03-0.582D-03 0.532D-02-0.693D-02-0.153D-01
 Coeff:      0.696D-02 0.331D-01 0.355D-01 0.115D+00-0.107D+00-0.426D+00
 Coeff:     -0.900D+00 0.570D+00 0.169D+01
 Gap=     0.198 Goal=   None    Shift=    0.500
 RMSDP=1.81D-06 MaxDP=8.34D-05 DE=-5.78D-07 OVMax= 2.82D-04

 Cycle  16  Pass 1  IDiag  1:
 E= -1641.23927907912     Delta-E=       -0.000000276100 Rises=F Damp=F
 DIIS: error= 2.63D-05 at cycle  16 NSaved=  16.
 NSaved=16 IEnMin=16 EnMin= -1641.23927907912     IErMin=16 ErrMin= 2.63D-05
 ErrMax= 2.63D-05  0.00D+00 EMaxC= 1.00D+00 BMatC= 4.85D-08 BMatP= 9.72D-08
 IDIUse=1 WtCom= 1.00D+00 WtEn= 0.00D+00
 Coeff-Com: -0.610D-05 0.696D-03-0.134D-02 0.201D-02 0.465D-04 0.568D-02
 Coeff-Com: -0.855D-02-0.319D-01-0.291D-01 0.233D+00 0.118D+00-0.271D+00
 Coeff-Com: -0.699D+00-0.480D+00 0.550D+00 0.161D+01
 Coeff:     -0.610D-05 0.696D-03-0.134D-02 0.201D-02 0.465D-04 0.568D-02
 Coeff:     -0.855D-02-0.319D-01-0.291D-01 0.233D+00 0.118D+00-0.271D+00
 Coeff:     -0.699D+00-0.480D+00 0.550D+00 0.161D+01
 Gap=     0.198 Goal=   None    Shift=    0.500
 RMSDP=1.22D-06 MaxDP=4.58D-05 DE=-2.76D-07 OVMax= 1.97D-04

 Cycle  17  Pass 1  IDiag  1:
 E= -1641.23927920974     Delta-E=       -0.000000130620 Rises=F Damp=F
 DIIS: error= 1.74D-05 at cycle  17 NSaved=  17.
 NSaved=17 IEnMin=17 EnMin= -1641.23927920974     IErMin=17 ErrMin= 1.74D-05
 ErrMax= 1.74D-05  0.00D+00 EMaxC= 1.00D+00 BMatC= 2.41D-08 BMatP= 4.85D-08
 IDIUse=1 WtCom= 1.00D+00 WtEn= 0.00D+00
 Coeff-Com: -0.250D-04 0.963D-04-0.118D-03-0.845D-03 0.194D-02 0.740D-02
 Coeff-Com: -0.460D-02-0.243D-01-0.139D-01 0.633D-01 0.477D-01 0.739D-01
 Coeff-Com: -0.453D-01-0.469D+00-0.514D+00-0.466D+00 0.234D+01
 Coeff:     -0.250D-04 0.963D-04-0.118D-03-0.845D-03 0.194D-02 0.740D-02
 Coeff:     -0.460D-02-0.243D-01-0.139D-01 0.633D-01 0.477D-01 0.739D-01
 Coeff:     -0.453D-01-0.469D+00-0.514D+00-0.466D+00 0.234D+01
 Gap=     0.198 Goal=   None    Shift=    0.500
 RMSDP=8.44D-07 MaxDP=3.64D-05 DE=-1.31D-07 OVMax= 1.37D-04

 SCF Done:  E(RLC-wHPBE) =  -1641.23927921     A.U. after   17 cycles
            NFock= 17  Conv=0.84D-06     -V/T= 2.0040
 KE= 1.634731027039D+03 PE=-7.878717353167D+03 EE= 2.580262203249D+03
 Leave Link  502 at Tue Jan 26 17:25:49 2021, MaxMem=  4026531840 cpu:            5403.4 elap:             676.2
 (Enter /opt/ohpc/pub/libs/gaussian/g16-A.03/sandybridge/g16/l508.exe)
 QCSCF skips out because SCF is already converged.
 Leave Link  508 at Tue Jan 26 17:25:49 2021, MaxMem=  4026531840 cpu:               0.2 elap:               0.1
 (Enter /opt/ohpc/pub/libs/gaussian/g16-A.03/sandybridge/g16/l601.exe)
 Copying SCF densities to generalized density rwf, IOpCl= 0 IROHF=0.

 **********************************************************************

            Population analysis using the SCF density.

 **********************************************************************

 Orbital symmetries:
       Occupied  (A) (A) (A) (A) (A) (A) (A) (A) (A) (A) (A) (A)
                 (A) (A) (A) (A) (A) (A) (A) (A) (A) (A) (A) (A)
                 (A) (A) (A) (A) (A) (A) (A) (A) (A) (A) (A) (A)
                 (A) (A) (A) (A) (A) (A) (A) (A) (A) (A) (A) (A)
                 (A) (A) (A) (A) (A) (A) (A) (A) (A) (A) (A) (A)
                 (A) (A) (A) (A) (A) (A) (A) (A) (A) (A) (A) (A)
                 (A) (A) (A) (A) (A) (A) (A) (A) (A) (A) (A) (A)
                 (A) (A) (A) (A) (A) (A)
       Virtual   (A) (A) (A) (A) (A) (A) (A) (A) (A) (A) (A) (A)
                 (A) (A) (A) (A) (A) (A) (A) (A) (A) (A) (A) (A)
                 (A) (A) (A) (A) (A) (A) (A) (A) (A) (A) (A) (A)
                 (A) (A) (A) (A) (A) (A) (A) (A) (A) (A) (A) (A)
                 (A) (A) (A) (A) (A) (A) (A) (A) (A) (A) (A) (A)
                 (A) (A) (A) (A) (A) (A) (A) (A) (A) (A) (A) (A)
                 (A) (A) (A) (A) (A) (A) (A) (A) (A) (A) (A) (A)
                 (A) (A) (A) (A) (A) (A) (A) (A) (A) (A) (A) (A)
                 (A) (A) (A) (A) (A) (A) (A) (A) (A) (A) (A) (A)
                 (A) (A) (A) (A) (A) (A) (A) (A) (A) (A) (A) (A)
                 (A) (A) (A) (A) (A) (A) (A) (A) (A) (A) (A) (A)
                 (A) (A) (A) (A) (A) (A) (A) (A) (A) (A) (A) (A)
                 (A) (A) (A) (A) (A) (A) (A) (A) (A) (A) (A) (A)
                 (A) (A) (A) (A) (A) (A) (A) (A) (A) (A) (A) (A)
                 (A) (A) (A) (A) (A) (A) (A) (A) (A) (A) (A) (A)
                 (A) (A) (A) (A) (A) (A) (A) (A) (A) (A) (A) (A)
                 (A) (A) (A) (A) (A) (A) (A) (A) (A) (A) (A) (A)
                 (A) (A) (A) (A) (A) (A) (A) (A) (A) (A) (A) (A)
                 (A) (A) (A) (A) (A) (A) (A) (A) (A) (A) (A) (A)
                 (A) (A) (A) (A) (A) (A) (A) (A) (A) (A) (A) (A)
                 (A) (A) (A) (A) (A) (A) (A) (A) (A) (A) (A) (A)
                 (A) (A) (A) (A) (A) (A) (A) (A) (A) (A) (A) (A)
                 (A) (A) (A) (A) (A) (A) (A) (A) (A) (A) (A) (A)
                 (A) (A) (A) (A) (A) (A) (A) (A) (A) (A) (A) (A)
                 (A) (A) (A) (A) (A) (A) (A) (A) (A) (A) (A) (A)
                 (A) (A) (A) (A) (A) (A) (A) (A) (A) (A) (A) (A)
                 (A) (A) (A) (A) (A) (A) (A) (A) (A) (A) (A) (A)
                 (A) (A) (A) (A) (A) (A) (A) (A) (A) (A) (A) (A)
                 (A) (A) (A) (A) (A) (A) (A) (A) (A) (A) (A) (A)
                 (A) (A) (A) (A) (A) (A) (A) (A) (A) (A) (A) (A)
                 (A) (A) (A) (A) (A) (A) (A) (A) (A) (A) (A) (A)
                 (A) (A) (A) (A) (A) (A) (A) (A) (A) (A) (A) (A)
                 (A) (A) (A) (A) (A) (A) (A) (A) (A) (A) (A) (A)
                 (A) (A) (A) (A) (A) (A) (A) (A) (A) (A) (A) (A)
                 (A) (A) (A) (A) (A) (A) (A) (A) (A) (A) (A) (A)
                 (A) (A) (A) (A) (A) (A) (A) (A) (A) (A) (A) (A)
                 (A) (A) (A) (A) (A) (A) (A) (A) (A) (A) (A) (A)
                 (A) (A) (A) (A) (A) (A) (A) (A) (A) (A) (A) (A)
                 (A) (A) (A) (A) (A) (A) (A) (A) (A) (A) (A) (A)
                 (A) (A) (A) (A) (A) (A) (A) (A) (A) (A) (A)
 The electronic state is 1-A.
 Alpha  occ. eigenvalues --  -88.29062 -88.24344 -14.24543 -14.24537 -10.16708
 Alpha  occ. eigenvalues --  -10.16675 -10.13179 -10.11599 -10.11574 -10.11108
 Alpha  occ. eigenvalues --  -10.11064 -10.09233 -10.09006 -10.08356 -10.08181
 Alpha  occ. eigenvalues --  -10.06807 -10.06768 -10.06496 -10.05303 -10.04605
 Alpha  occ. eigenvalues --  -10.04381 -10.04175 -10.02950  -7.88028  -7.83503
 Alpha  occ. eigenvalues --   -5.90170  -5.89749  -5.89354  -5.85761  -5.85345
 Alpha  occ. eigenvalues --   -5.84528  -1.11343  -1.09010  -1.03368  -0.96119
 Alpha  occ. eigenvalues --   -0.95640  -0.89091  -0.86945  -0.86676  -0.86131
 Alpha  occ. eigenvalues --   -0.85965  -0.84747  -0.84610  -0.83415  -0.81154
 Alpha  occ. eigenvalues --   -0.78797  -0.74211  -0.71395  -0.70630  -0.69346
 Alpha  occ. eigenvalues --   -0.69082  -0.68214  -0.66151  -0.63819  -0.63785
 Alpha  occ. eigenvalues --   -0.63385  -0.62054  -0.61588  -0.59025  -0.58282
 Alpha  occ. eigenvalues --   -0.57746  -0.56988  -0.56636  -0.56271  -0.56117
 Alpha  occ. eigenvalues --   -0.55300  -0.55204  -0.55020  -0.54585  -0.54374
 Alpha  occ. eigenvalues --   -0.53447  -0.53138  -0.52949  -0.52128  -0.50817
 Alpha  occ. eigenvalues --   -0.50353  -0.50078  -0.49598  -0.47442  -0.46027
 Alpha  occ. eigenvalues --   -0.45474  -0.45082  -0.44409  -0.42110  -0.39856
 Alpha  occ. eigenvalues --   -0.38801  -0.37852  -0.37064  -0.35930  -0.33275
 Alpha virt. eigenvalues --   -0.13484  -0.12158  -0.09101  -0.07929  -0.07666
 Alpha virt. eigenvalues --   -0.07402  -0.06308  -0.06277  -0.03734  -0.03397
 Alpha virt. eigenvalues --   -0.03158  -0.02525  -0.02342  -0.01171  -0.00702
 Alpha virt. eigenvalues --   -0.00098   0.00607   0.00805   0.01203   0.02131
 Alpha virt. eigenvalues --    0.02436   0.02620   0.03066   0.03338   0.03504
 Alpha virt. eigenvalues --    0.03739   0.04609   0.04762   0.05222   0.05388
 Alpha virt. eigenvalues --    0.06325   0.06424   0.06893   0.07299   0.07498
 Alpha virt. eigenvalues --    0.08398   0.08748   0.08826   0.09869   0.10203
 Alpha virt. eigenvalues --    0.10342   0.10773   0.10944   0.11458   0.12268
 Alpha virt. eigenvalues --    0.12650   0.14028   0.14468   0.14987   0.15374
 Alpha virt. eigenvalues --    0.15754   0.15895   0.16297   0.17061   0.17316
 Alpha virt. eigenvalues --    0.17803   0.18361   0.18531   0.18866   0.19388
 Alpha virt. eigenvalues --    0.19953   0.20179   0.20393   0.20676   0.20753
 Alpha virt. eigenvalues --    0.21212   0.21392   0.21876   0.22045   0.22487
 Alpha virt. eigenvalues --    0.22790   0.23118   0.23222   0.24155   0.24427
 Alpha virt. eigenvalues --    0.24760   0.25496   0.26309   0.26524   0.27315
 Alpha virt. eigenvalues --    0.27537   0.28403   0.28429   0.28804   0.29534
 Alpha virt. eigenvalues --    0.30094   0.30160   0.30619   0.30904   0.31401
 Alpha virt. eigenvalues --    0.31838   0.32887   0.33147   0.33569   0.33784
 Alpha virt. eigenvalues --    0.34044   0.34323   0.34380   0.35165   0.35251
 Alpha virt. eigenvalues --    0.35592   0.35804   0.36210   0.36427   0.36854
 Alpha virt. eigenvalues --    0.36923   0.37527   0.37885   0.38116   0.38397
 Alpha virt. eigenvalues --    0.38797   0.39119   0.39772   0.40132   0.40454
 Alpha virt. eigenvalues --    0.40855   0.41466   0.42053   0.42192   0.42644
 Alpha virt. eigenvalues --    0.43175   0.43208   0.43602   0.44143   0.44395
 Alpha virt. eigenvalues --    0.45275   0.45785   0.45999   0.46292   0.46852
 Alpha virt. eigenvalues --    0.48096   0.48726   0.49016   0.49742   0.50213
 Alpha virt. eigenvalues --    0.50933   0.51853   0.52788   0.53777   0.53934
 Alpha virt. eigenvalues --    0.54203   0.55481   0.56207   0.57112   0.57278
 Alpha virt. eigenvalues --    0.57831   0.59601   0.59801   0.60254   0.60923
 Alpha virt. eigenvalues --    0.61708   0.62402   0.62598   0.63240   0.63678
 Alpha virt. eigenvalues --    0.64624   0.65073   0.65838   0.68086   0.68583
 Alpha virt. eigenvalues --    0.69508   0.70343   0.72801   0.73261   0.73835
 Alpha virt. eigenvalues --    0.74566   0.77038   0.78225   0.79857   0.80383
 Alpha virt. eigenvalues --    0.80851   0.82374   0.84452   0.85387   0.86940
 Alpha virt. eigenvalues --    0.88466   0.98718   1.01771   1.02137   1.06615
 Alpha virt. eigenvalues --    1.08864   1.09813   1.10564   1.10770   1.12187
 Alpha virt. eigenvalues --    1.12598   1.13909   1.14113   1.14522   1.15238
 Alpha virt. eigenvalues --    1.16156   1.16569   1.17367   1.17777   1.18584
 Alpha virt. eigenvalues --    1.19645   1.20032   1.20580   1.20719   1.20996
 Alpha virt. eigenvalues --    1.21347   1.22397   1.22614   1.23286   1.23453
 Alpha virt. eigenvalues --    1.23794   1.24916   1.25123   1.25408   1.25587
 Alpha virt. eigenvalues --    1.26902   1.27215   1.28073   1.28736   1.29774
 Alpha virt. eigenvalues --    1.30400   1.31337   1.32112   1.32220   1.32798
 Alpha virt. eigenvalues --    1.33181   1.34117   1.34476   1.34569   1.34737
 Alpha virt. eigenvalues --    1.35232   1.35719   1.35788   1.36284   1.36622
 Alpha virt. eigenvalues --    1.36981   1.37531   1.37650   1.38907   1.39532
 Alpha virt. eigenvalues --    1.39913   1.40181   1.40734   1.40822   1.41262
 Alpha virt. eigenvalues --    1.41948   1.42351   1.42791   1.42831   1.43356
 Alpha virt. eigenvalues --    1.43615   1.43766   1.44743   1.45111   1.45468
 Alpha virt. eigenvalues --    1.46628   1.46838   1.47299   1.49101   1.49434
 Alpha virt. eigenvalues --    1.49915   1.50353   1.51690   1.52169   1.52485
 Alpha virt. eigenvalues --    1.53015   1.53404   1.54313   1.55766   1.56536
 Alpha virt. eigenvalues --    1.56661   1.57123   1.57626   1.59101   1.59460
 Alpha virt. eigenvalues --    1.60197   1.60778   1.61716   1.62236   1.63121
 Alpha virt. eigenvalues --    1.63418   1.63772   1.63925   1.64031   1.65098
 Alpha virt. eigenvalues --    1.65442   1.65654   1.66130   1.66417   1.66771
 Alpha virt. eigenvalues --    1.67144   1.67940   1.68261   1.68964   1.69145
 Alpha virt. eigenvalues --    1.69675   1.69948   1.71265   1.71496   1.71856
 Alpha virt. eigenvalues --    1.72980   1.73655   1.74018   1.74645   1.76066
 Alpha virt. eigenvalues --    1.77163   1.78180   1.78376   1.79400   1.80465
 Alpha virt. eigenvalues --    1.80758   1.81561   1.82275   1.83324   1.84691
 Alpha virt. eigenvalues --    1.86253   1.87110   1.87922   1.88178   1.88704
 Alpha virt. eigenvalues --    1.89071   1.89334   1.90170   1.92130   1.92597
 Alpha virt. eigenvalues --    1.93173   1.93866   1.95673   1.96804   1.97529
 Alpha virt. eigenvalues --    1.97753   2.00311   2.01901   2.02505   2.04101
 Alpha virt. eigenvalues --    2.04580   2.05892   2.06913   2.07543   2.08023
 Alpha virt. eigenvalues --    2.08840   2.11225   2.13311   2.14243   2.14445
 Alpha virt. eigenvalues --    2.15515   2.15594   2.16219   2.16485   2.17242
 Alpha virt. eigenvalues --    2.18547   2.18774   2.19263   2.19320   2.19918
 Alpha virt. eigenvalues --    2.20454   2.21329   2.22002   2.22437   2.22541
 Alpha virt. eigenvalues --    2.22776   2.23730   2.24052   2.24168   2.24505
 Alpha virt. eigenvalues --    2.24838   2.26276   2.28479   2.29378   2.30266
 Alpha virt. eigenvalues --    2.30897   2.32181   2.34979   2.36696   2.36770
 Alpha virt. eigenvalues --    2.37239   2.38090   2.38207   2.39489   2.41054
 Alpha virt. eigenvalues --    2.41146   2.41545   2.42916   2.43458   2.43856
 Alpha virt. eigenvalues --    2.43894   2.44953   2.45306   2.45750   2.47892
 Alpha virt. eigenvalues --    2.49407   2.50116   2.50361   2.51436   2.52150
 Alpha virt. eigenvalues --    2.52406   2.52865   2.53790   2.54519   2.55783
 Alpha virt. eigenvalues --    2.58007   2.58223   2.58843   2.59185   2.59512
 Alpha virt. eigenvalues --    2.60560   2.60940   2.62387   2.63081   2.65074
 Alpha virt. eigenvalues --    2.67653   2.68906   2.70222   2.70822   2.71116
 Alpha virt. eigenvalues --    2.71845   2.73891   2.79302   2.84208   2.86984
 Alpha virt. eigenvalues --    2.87824   2.91337   2.94005   2.95475   2.96824
 Alpha virt. eigenvalues --    2.98003   2.98898   2.98998   3.00743   3.00819
 Alpha virt. eigenvalues --    3.01513   3.02178   3.02538   3.04651   3.05120
 Alpha virt. eigenvalues --    3.06596   3.09877   3.10709   3.12508   3.14734
 Alpha virt. eigenvalues --    3.15197   3.15366   3.15649   3.16114   3.17609
 Alpha virt. eigenvalues --    3.20102   3.22272   3.22840   3.25009   3.28523
 Alpha virt. eigenvalues --    3.29726   3.30091   3.31710   3.42360   3.47217
 Alpha virt. eigenvalues --    3.47616   3.56594   3.56808   3.64435   3.65217
 Alpha virt. eigenvalues --    3.82664  18.53401  18.84680  20.97721  21.07968
 Alpha virt. eigenvalues --   21.34545  21.42560  21.47994  21.54031  21.58003
 Alpha virt. eigenvalues --   21.60515  21.62167  21.69927  21.76534  21.77939
 Alpha virt. eigenvalues --   21.79737  21.80255  21.80576  21.94387  21.96675
 Alpha virt. eigenvalues --   22.00178  22.00503  31.48585  31.63534
          Condensed to atoms (all electrons):
               1          2          3          4          5          6
     1  C    5.452628   0.043723  -0.115414   0.165580  -0.001696  -0.000591
     2  C    0.043723   6.171123   0.500973  -0.542048  -0.006738   0.016153
     3  S   -0.115414   0.500973  15.555888  -0.227972  -0.007257  -0.000504
     4  C    0.165580  -0.542048  -0.227972   6.734213  -0.023675  -0.058318
     5  C   -0.001696  -0.006738  -0.007257  -0.023675   5.880038   0.306347
     6  C   -0.000591   0.016153  -0.000504  -0.058318   0.306347   5.561203
     7  C    0.228579   0.213249   0.016853  -0.331039  -0.001285   0.002208
     8  C   -0.258822   0.257228   0.036271  -0.263245   0.008449   0.011684
     9  H   -0.000439   0.020566   0.002673  -0.047738  -0.008271  -0.008800
    10  C   -0.000163   0.001709   0.006898  -0.023571   0.001579  -0.168776
    11  C   -0.000068  -0.003076  -0.000310   0.014403   0.052007   0.379499
    12  C    0.000025   0.001462   0.000238  -0.005685  -0.285158   0.116089
    13  C    0.000037  -0.001930  -0.001162   0.003578   0.162170  -0.119245
    14  H    0.000034   0.000041   0.000773  -0.000217  -0.000186   0.008763
    15  H    0.000018  -0.000143  -0.000002   0.000638   0.031513  -0.063063
    16  H    0.000001   0.000003   0.000001  -0.000023   0.001145   0.016935
    17  C    0.163012  -0.250746  -0.006969   0.256486   0.004646  -0.014386
    18  H    0.418269  -0.090533  -0.000877   0.048930  -0.000014  -0.000031
    19  H   -0.005373  -0.028651   0.313830  -0.009926  -0.000006   0.000061
    20  H   -0.078014   0.026062  -0.000336  -0.005385  -0.000006  -0.000001
    21  H   -0.003063   0.024217  -0.000037  -0.094112  -0.000826   0.011684
    22  H    0.020293  -0.004722   0.000004   0.027803  -0.000077  -0.000435
    23  S    0.015130  -0.113223   0.008998   0.348654   0.070032  -0.147731
    24  C    0.000003  -0.000312  -0.000152   0.000430   0.014140   0.012015
    25  C   -0.000000  -0.000003  -0.000006   0.000006  -0.017366  -0.003520
    26  C    0.000000  -0.000009  -0.000025   0.000011   0.023899   0.001948
    27  N   -0.000000  -0.000000  -0.000000   0.000000  -0.000077   0.000014
    28  N    0.000000  -0.000000   0.000003  -0.000000  -0.000134   0.000013
    29  C   -0.000000   0.000000  -0.000000  -0.000000  -0.000149   0.000084
    30  H    0.000000  -0.000000   0.000000   0.000000   0.000006  -0.000000
    31  H    0.000000  -0.000000   0.000000   0.000000   0.000192  -0.000119
    32  H   -0.000000  -0.000000   0.000000   0.000000  -0.000002   0.000000
    33  C   -0.000000  -0.000000  -0.000000  -0.000000  -0.000016  -0.000001
    34  H    0.000000  -0.000000   0.000000   0.000000   0.000000   0.000000
    35  H   -0.000000   0.000000  -0.000000  -0.000000  -0.000000  -0.000000
    36  H    0.000000   0.000000   0.000000   0.000000   0.000000   0.000000
    37  C   -0.000000  -0.000004  -0.000240   0.000014  -0.000437   0.000023
    38  H   -0.000000   0.000000   0.000009  -0.000000  -0.000134  -0.000006
    39  H    0.000003   0.000004   0.000721  -0.000032   0.000335  -0.000069
    40  H    0.000000  -0.000000   0.000012   0.000000   0.000086   0.000003
    41  C    0.000000  -0.000000  -0.000000   0.000000   0.000030   0.000001
    42  H   -0.000000   0.000000  -0.000000  -0.000000  -0.000002  -0.000000
    43  H    0.000000  -0.000000   0.000000   0.000000   0.000001   0.000000
    44  H    0.000000   0.000000   0.000000   0.000000  -0.000000   0.000000
               7          8          9         10         11         12
     1  C    0.228579  -0.258822  -0.000439  -0.000163  -0.000068   0.000025
     2  C    0.213249   0.257228   0.020566   0.001709  -0.003076   0.001462
     3  S    0.016853   0.036271   0.002673   0.006898  -0.000310   0.000238
     4  C   -0.331039  -0.263245  -0.047738  -0.023571   0.014403  -0.005685
     5  C   -0.001285   0.008449  -0.008271   0.001579   0.052007  -0.285158
     6  C    0.002208   0.011684  -0.008800  -0.168776   0.379499   0.116089
     7  C    5.166493   0.154044   0.000334   0.000097  -0.000912   0.000114
     8  C    0.154044   5.633696  -0.001970   0.014983  -0.000402   0.001399
     9  H    0.000334  -0.001970   0.592284  -0.001183  -0.000994   0.000320
    10  C    0.000097   0.014983  -0.001183   5.886199  -0.079782  -0.073540
    11  C   -0.000912  -0.000402  -0.000994  -0.079782   5.178522   0.177981
    12  C    0.000114   0.001399   0.000320  -0.073540   0.177981   5.688981
    13  C   -0.000055  -0.001951  -0.001260   0.222082   0.086382   0.323580
    14  H   -0.000003   0.000039   0.000178   0.359581  -0.002015   0.007127
    15  H   -0.000065  -0.000278   0.000001   0.000397   0.418723  -0.113221
    16  H    0.000000   0.000002   0.000002   0.012594  -0.023302   0.399428
    17  C    0.300526   0.126755   0.000291  -0.000237  -0.000427  -0.000221
    18  H   -0.071388  -0.007516  -0.000002  -0.000005   0.000007  -0.000002
    19  H   -0.000166   0.002483  -0.000049   0.000067  -0.000002   0.000002
    20  H    0.435627   0.022752   0.000002   0.000001  -0.000001   0.000000
    21  H    0.015659   0.416137   0.002119   0.000976  -0.000860   0.000404
    22  H   -0.066099  -0.069077  -0.000049  -0.000015  -0.000002  -0.000007
    23  S   -0.000369  -0.099180   0.312153   0.032710  -0.001922  -0.008304
    24  C   -0.000004  -0.000101  -0.000123  -0.069795   0.060803  -0.170787
    25  C   -0.000000   0.000001  -0.000005   0.064843   0.014501  -0.062895
    26  C   -0.000000  -0.000009   0.000002  -0.078672  -0.001961   0.034970
    27  N   -0.000000   0.000000  -0.000000   0.000422   0.000198   0.001121
    28  N    0.000000  -0.000000  -0.000000   0.001658   0.000008   0.000203
    29  C    0.000000   0.000000  -0.000000   0.000167  -0.000469  -0.001907
    30  H   -0.000000  -0.000000  -0.000000  -0.000035  -0.000074   0.000061
    31  H   -0.000000  -0.000000   0.000000  -0.000572   0.000489   0.006168
    32  H    0.000000  -0.000000   0.000000   0.000029   0.000057  -0.000096
    33  C    0.000000   0.000000  -0.000000   0.000093   0.000015  -0.000031
    34  H   -0.000000  -0.000000  -0.000000  -0.000002  -0.000002  -0.000005
    35  H    0.000000   0.000000   0.000000  -0.000000   0.000001  -0.000008
    36  H    0.000000  -0.000000   0.000000   0.000006  -0.000000   0.000009
    37  C   -0.000000  -0.000000  -0.000002  -0.001494  -0.000010  -0.000176
    38  H    0.000000   0.000000   0.000000   0.000135   0.000004  -0.000029
    39  H    0.000000  -0.000001   0.000007   0.006599   0.000038  -0.000131
    40  H   -0.000000  -0.000000   0.000000  -0.000144  -0.000003   0.000024
    41  C   -0.000000  -0.000000   0.000000  -0.000009  -0.000003   0.000061
    42  H    0.000000   0.000000   0.000000  -0.000006   0.000000  -0.000001
    43  H   -0.000000  -0.000000  -0.000000  -0.000009  -0.000000  -0.000001
    44  H   -0.000000   0.000000   0.000000   0.000007  -0.000000   0.000007
              13         14         15         16         17         18
     1  C    0.000037   0.000034   0.000018   0.000001   0.163012   0.418269
     2  C   -0.001930   0.000041  -0.000143   0.000003  -0.250746  -0.090533
     3  S   -0.001162   0.000773  -0.000002   0.000001  -0.006969  -0.000877
     4  C    0.003578  -0.000217   0.000638  -0.000023   0.256486   0.048930
     5  C    0.162170  -0.000186   0.031513   0.001145   0.004646  -0.000014
     6  C   -0.119245   0.008763  -0.063063   0.016935  -0.014386  -0.000031
     7  C   -0.000055  -0.000003  -0.000065   0.000000   0.300526  -0.071388
     8  C   -0.001951   0.000039  -0.000278   0.000002   0.126755  -0.007516
     9  H   -0.001260   0.000178   0.000001   0.000002   0.000291  -0.000002
    10  C    0.222082   0.359581   0.000397   0.012594  -0.000237  -0.000005
    11  C    0.086382  -0.002015   0.418723  -0.023302  -0.000427   0.000007
    12  C    0.323580   0.007127  -0.113221   0.399428  -0.000221  -0.000002
    13  C    6.604966  -0.092156   0.019179  -0.112297   0.000172   0.000002
    14  H   -0.092156   0.543111   0.000078   0.000015   0.000011   0.000000
    15  H    0.019179   0.000078   0.580404  -0.003477   0.000172   0.000000
    16  H   -0.112297   0.000015  -0.003477   0.565939   0.000001  -0.000000
    17  C    0.000172   0.000011   0.000172   0.000001   5.185769   0.019671
    18  H    0.000002   0.000000   0.000000  -0.000000   0.019671   0.554856
    19  H   -0.000000  -0.000014  -0.000000  -0.000000  -0.000366  -0.000450
    20  H   -0.000000  -0.000000  -0.000000  -0.000000  -0.069621  -0.008622
    21  H   -0.000265  -0.000012  -0.000162  -0.000000  -0.028507  -0.000036
    22  H    0.000003   0.000000   0.000016   0.000000   0.425287  -0.000152
    23  S    0.000858   0.012565   0.000386   0.000065   0.022485  -0.000453
    24  C   -0.360005   0.012866   0.002128   0.002682   0.000017   0.000000
    25  C   -0.387496   0.004669   0.000294   0.002644  -0.000000   0.000000
    26  C   -0.315613   0.006167   0.000099   0.004552   0.000000   0.000000
    27  N   -0.024577   0.000056   0.000007   0.000253   0.000000   0.000000
    28  N   -0.022524   0.000410   0.000000   0.000039   0.000000   0.000000
    29  C   -0.011470   0.000004  -0.000047  -0.001632  -0.000000  -0.000000
    30  H   -0.000236   0.000000   0.000000   0.000028   0.000000   0.000000
    31  H   -0.015739  -0.000020   0.000051   0.000034   0.000000   0.000000
    32  H    0.000588   0.000000   0.000001   0.000313  -0.000000   0.000000
    33  C   -0.002737   0.000003   0.000000   0.000021  -0.000000   0.000000
    34  H    0.000028   0.000000  -0.000000   0.000010   0.000000   0.000000
    35  H    0.000045   0.000000   0.000000   0.000000  -0.000000  -0.000000
    36  H   -0.000158  -0.000000  -0.000000  -0.000001  -0.000000  -0.000000
    37  C   -0.013851  -0.001516  -0.000000  -0.000008   0.000000   0.000000
    38  H   -0.000517   0.000197   0.000000   0.000000  -0.000000  -0.000000
    39  H   -0.014239   0.000914   0.000000  -0.000010   0.000000  -0.000000
    40  H    0.000825   0.000256   0.000000   0.000000   0.000000   0.000000
    41  C   -0.002667   0.000044   0.000000   0.000003   0.000000   0.000000
    42  H   -0.000001   0.000010   0.000000   0.000000  -0.000000  -0.000000
    43  H    0.000095  -0.000001  -0.000000  -0.000000   0.000000   0.000000
    44  H   -0.000195  -0.000000  -0.000000  -0.000000   0.000000  -0.000000
              19         20         21         22         23         24
     1  C   -0.005373  -0.078014  -0.003063   0.020293   0.015130   0.000003
     2  C   -0.028651   0.026062   0.024217  -0.004722  -0.113223  -0.000312
     3  S    0.313830  -0.000336  -0.000037   0.000004   0.008998  -0.000152
     4  C   -0.009926  -0.005385  -0.094112   0.027803   0.348654   0.000430
     5  C   -0.000006  -0.000006  -0.000826  -0.000077   0.070032   0.014140
     6  C    0.000061  -0.000001   0.011684  -0.000435  -0.147731   0.012015
     7  C   -0.000166   0.435627   0.015659  -0.066099  -0.000369  -0.000004
     8  C    0.002483   0.022752   0.416137  -0.069077  -0.099180  -0.000101
     9  H   -0.000049   0.000002   0.002119  -0.000049   0.312153  -0.000123
    10  C    0.000067   0.000001   0.000976  -0.000015   0.032710  -0.069795
    11  C   -0.000002  -0.000001  -0.000860  -0.000002  -0.001922   0.060803
    12  C    0.000002   0.000000   0.000404  -0.000007  -0.008304  -0.170787
    13  C   -0.000000  -0.000000  -0.000265   0.000003   0.000858  -0.360005
    14  H   -0.000014  -0.000000  -0.000012   0.000000   0.012565   0.012866
    15  H   -0.000000  -0.000000  -0.000162   0.000016   0.000386   0.002128
    16  H   -0.000000  -0.000000  -0.000000   0.000000   0.000065   0.002682
    17  C   -0.000366  -0.069621  -0.028507   0.425287   0.022485   0.000017
    18  H   -0.000450  -0.008622  -0.000036  -0.000152  -0.000453   0.000000
    19  H    0.600743   0.000012   0.000034  -0.000004   0.003177  -0.000001
    20  H    0.000012   0.556804  -0.000277  -0.009009   0.000048  -0.000000
    21  H    0.000034  -0.000277   0.554217  -0.008194  -0.014914  -0.000021
    22  H   -0.000004  -0.009009  -0.008194   0.557271  -0.000350   0.000000
    23  S    0.003177   0.000048  -0.014914  -0.000350  15.437513   0.008172
    24  C   -0.000001  -0.000000  -0.000021   0.000000   0.008172   7.151447
    25  C    0.000000   0.000000   0.000000  -0.000000   0.000179  -0.007667
    26  C    0.000000  -0.000000  -0.000000   0.000000   0.000198   0.067864
    27  N   -0.000000   0.000000  -0.000000   0.000000   0.000000  -0.149384
    28  N   -0.000000   0.000000  -0.000000   0.000000   0.000010  -0.143346
    29  C    0.000000   0.000000   0.000000  -0.000000  -0.000000  -0.000581
    30  H   -0.000000  -0.000000  -0.000000   0.000000   0.000000   0.005423
    31  H   -0.000000  -0.000000  -0.000000   0.000000   0.000001   0.009479
    32  H   -0.000000   0.000000  -0.000000   0.000000   0.000000  -0.003320
    33  C    0.000000   0.000000   0.000000  -0.000000   0.000000  -0.013648
    34  H    0.000000  -0.000000  -0.000000   0.000000  -0.000000   0.001104
    35  H   -0.000000   0.000000   0.000000  -0.000000  -0.000000  -0.002216
    36  H    0.000000  -0.000000  -0.000000   0.000000  -0.000000   0.006712
    37  C    0.000004  -0.000000   0.000000   0.000000  -0.000062  -0.001093
    38  H   -0.000000   0.000000   0.000000  -0.000000   0.000010   0.005060
    39  H   -0.000011   0.000000  -0.000000   0.000000   0.000145   0.007840
    40  H   -0.000000  -0.000000  -0.000000   0.000000   0.000002  -0.003027
    41  C    0.000000  -0.000000  -0.000000   0.000000   0.000000  -0.012000
    42  H    0.000000   0.000000   0.000000  -0.000000  -0.000000   0.000778
    43  H   -0.000000  -0.000000  -0.000000   0.000000   0.000000  -0.001727
    44  H   -0.000000   0.000000  -0.000000   0.000000  -0.000000   0.006101
              25         26         27         28         29         30
     1  C   -0.000000   0.000000  -0.000000   0.000000  -0.000000   0.000000
     2  C   -0.000003  -0.000009  -0.000000  -0.000000   0.000000  -0.000000
     3  S   -0.000006  -0.000025  -0.000000   0.000003  -0.000000   0.000000
     4  C    0.000006   0.000011   0.000000  -0.000000  -0.000000   0.000000
     5  C   -0.017366   0.023899  -0.000077  -0.000134  -0.000149   0.000006
     6  C   -0.003520   0.001948   0.000014   0.000013   0.000084  -0.000000
     7  C   -0.000000  -0.000000  -0.000000   0.000000   0.000000  -0.000000
     8  C    0.000001  -0.000009   0.000000  -0.000000   0.000000  -0.000000
     9  H   -0.000005   0.000002  -0.000000  -0.000000  -0.000000  -0.000000
    10  C    0.064843  -0.078672   0.000422   0.001658   0.000167  -0.000035
    11  C    0.014501  -0.001961   0.000198   0.000008  -0.000469  -0.000074
    12  C   -0.062895   0.034970   0.001121   0.000203  -0.001907   0.000061
    13  C   -0.387496  -0.315613  -0.024577  -0.022524  -0.011470  -0.000236
    14  H    0.004669   0.006167   0.000056   0.000410   0.000004   0.000000
    15  H    0.000294   0.000099   0.000007   0.000000  -0.000047   0.000000
    16  H    0.002644   0.004552   0.000253   0.000039  -0.001632   0.000028
    17  C   -0.000000   0.000000   0.000000   0.000000  -0.000000   0.000000
    18  H    0.000000   0.000000   0.000000   0.000000  -0.000000   0.000000
    19  H    0.000000   0.000000  -0.000000  -0.000000   0.000000  -0.000000
    20  H    0.000000  -0.000000   0.000000   0.000000   0.000000  -0.000000
    21  H    0.000000  -0.000000  -0.000000  -0.000000   0.000000  -0.000000
    22  H   -0.000000   0.000000   0.000000   0.000000  -0.000000   0.000000
    23  S    0.000179   0.000198   0.000000   0.000010  -0.000000   0.000000
    24  C   -0.007667   0.067864  -0.149384  -0.143346  -0.000581   0.005423
    25  C    6.199788  -0.209823   0.548915  -0.072106  -0.053739  -0.000353
    26  C   -0.209823   6.098541  -0.076984   0.537198  -0.000618  -0.001081
    27  N    0.548915  -0.076984   6.414869  -0.001359   0.232196  -0.036389
    28  N   -0.072106   0.537198  -0.001359   6.416824  -0.000694   0.000004
    29  C   -0.053739  -0.000618   0.232196  -0.000694   4.959570   0.403073
    30  H   -0.000353  -0.001081  -0.036389   0.000004   0.403073   0.513982
    31  H   -0.017553   0.017020  -0.025266   0.000079   0.388233  -0.017395
    32  H    0.005855  -0.001230  -0.040734  -0.000003   0.405241  -0.032880
    33  C   -0.063358  -0.009103   0.252328   0.000657  -0.065143  -0.009656
    34  H    0.008827  -0.001042  -0.038904  -0.000034  -0.002142   0.006992
    35  H   -0.002425   0.002868  -0.040511  -0.000079  -0.005544  -0.001446
    36  H   -0.014779   0.002263  -0.026504  -0.001925   0.010042  -0.000012
    37  C    0.003838  -0.056794  -0.000644   0.230856   0.000031  -0.000002
    38  H   -0.001142   0.000096   0.000004  -0.036015  -0.000002  -0.000000
    39  H    0.014315  -0.015330   0.000055  -0.025076   0.000003  -0.000000
    40  H   -0.001434   0.005927  -0.000005  -0.041191  -0.000001   0.000000
    41  C   -0.008150  -0.064863   0.000590   0.251729  -0.000159   0.000005
    42  H   -0.000965   0.008997  -0.000028  -0.038306   0.000001  -0.000000
    43  H    0.002889  -0.002503  -0.000095  -0.041347   0.000007   0.000001
    44  H    0.001710  -0.014695  -0.001823  -0.025944   0.000026  -0.000001
              31         32         33         34         35         36
     1  C    0.000000  -0.000000  -0.000000   0.000000  -0.000000   0.000000
     2  C   -0.000000  -0.000000  -0.000000  -0.000000   0.000000   0.000000
     3  S    0.000000   0.000000  -0.000000   0.000000  -0.000000   0.000000
     4  C    0.000000   0.000000  -0.000000   0.000000  -0.000000   0.000000
     5  C    0.000192  -0.000002  -0.000016   0.000000  -0.000000   0.000000
     6  C   -0.000119   0.000000  -0.000001   0.000000  -0.000000   0.000000
     7  C   -0.000000   0.000000   0.000000  -0.000000   0.000000   0.000000
     8  C   -0.000000  -0.000000   0.000000  -0.000000   0.000000  -0.000000
     9  H    0.000000   0.000000  -0.000000  -0.000000   0.000000   0.000000
    10  C   -0.000572   0.000029   0.000093  -0.000002  -0.000000   0.000006
    11  C    0.000489   0.000057   0.000015  -0.000002   0.000001  -0.000000
    12  C    0.006168  -0.000096  -0.000031  -0.000005  -0.000008   0.000009
    13  C   -0.015739   0.000588  -0.002737   0.000028   0.000045  -0.000158
    14  H   -0.000020   0.000000   0.000003   0.000000   0.000000  -0.000000
    15  H    0.000051   0.000001   0.000000  -0.000000   0.000000  -0.000000
    16  H    0.000034   0.000313   0.000021   0.000010   0.000000  -0.000001
    17  C    0.000000  -0.000000  -0.000000   0.000000  -0.000000  -0.000000
    18  H    0.000000   0.000000   0.000000   0.000000  -0.000000  -0.000000
    19  H   -0.000000  -0.000000   0.000000   0.000000  -0.000000   0.000000
    20  H   -0.000000   0.000000   0.000000  -0.000000   0.000000  -0.000000
    21  H   -0.000000  -0.000000   0.000000  -0.000000   0.000000  -0.000000
    22  H    0.000000   0.000000  -0.000000   0.000000  -0.000000   0.000000
    23  S    0.000001   0.000000   0.000000  -0.000000  -0.000000  -0.000000
    24  C    0.009479  -0.003320  -0.013648   0.001104  -0.002216   0.006712
    25  C   -0.017553   0.005855  -0.063358   0.008827  -0.002425  -0.014779
    26  C    0.017020  -0.001230  -0.009103  -0.001042   0.002868   0.002263
    27  N   -0.025266  -0.040734   0.252328  -0.038904  -0.040511  -0.026504
    28  N    0.000079  -0.000003   0.000657  -0.000034  -0.000079  -0.001925
    29  C    0.388233   0.405241  -0.065143  -0.002142  -0.005544   0.010042
    30  H   -0.017395  -0.032880  -0.009656   0.006992  -0.001446  -0.000012
    31  H    0.508751  -0.021186   0.008769   0.000440  -0.000282  -0.000521
    32  H   -0.021186   0.517989   0.000813  -0.003409   0.005997   0.000073
    33  C    0.008769   0.000813   4.961111   0.396508   0.413341   0.390417
    34  H    0.000440  -0.003409   0.396508   0.514798  -0.031451  -0.019981
    35  H   -0.000282   0.005997   0.413341  -0.031451   0.511246  -0.024355
    36  H   -0.000521   0.000073   0.390417  -0.019981  -0.024355   0.533887
    37  C    0.000004  -0.000000  -0.000143   0.000001   0.000007   0.000035
    38  H   -0.000000   0.000000   0.000005  -0.000000   0.000001  -0.000001
    39  H    0.000001   0.000000   0.000022  -0.000000   0.000000   0.000002
    40  H    0.000000  -0.000000  -0.000007   0.000000  -0.000001   0.000002
    41  C    0.000030  -0.000005  -0.003287   0.000206  -0.000141  -0.001698
    42  H   -0.000001   0.000000   0.000213  -0.000008   0.000019   0.000236
    43  H    0.000000  -0.000001  -0.000160   0.000022  -0.000036  -0.000091
    44  H    0.000002   0.000002  -0.002011   0.000232  -0.000057   0.003406
              37         38         39         40         41         42
     1  C   -0.000000  -0.000000   0.000003   0.000000   0.000000  -0.000000
     2  C   -0.000004   0.000000   0.000004  -0.000000  -0.000000   0.000000
     3  S   -0.000240   0.000009   0.000721   0.000012  -0.000000  -0.000000
     4  C    0.000014  -0.000000  -0.000032   0.000000   0.000000  -0.000000
     5  C   -0.000437  -0.000134   0.000335   0.000086   0.000030  -0.000002
     6  C    0.000023  -0.000006  -0.000069   0.000003   0.000001  -0.000000
     7  C   -0.000000   0.000000   0.000000  -0.000000  -0.000000   0.000000
     8  C   -0.000000   0.000000  -0.000001  -0.000000  -0.000000   0.000000
     9  H   -0.000002   0.000000   0.000007   0.000000   0.000000   0.000000
    10  C   -0.001494   0.000135   0.006599  -0.000144  -0.000009  -0.000006
    11  C   -0.000010   0.000004   0.000038  -0.000003  -0.000003   0.000000
    12  C   -0.000176  -0.000029  -0.000131   0.000024   0.000061  -0.000001
    13  C   -0.013851  -0.000517  -0.014239   0.000825  -0.002667  -0.000001
    14  H   -0.001516   0.000197   0.000914   0.000256   0.000044   0.000010
    15  H   -0.000000   0.000000   0.000000   0.000000   0.000000   0.000000
    16  H   -0.000008   0.000000  -0.000010   0.000000   0.000003   0.000000
    17  C    0.000000  -0.000000   0.000000   0.000000   0.000000  -0.000000
    18  H    0.000000  -0.000000  -0.000000   0.000000   0.000000  -0.000000
    19  H    0.000004  -0.000000  -0.000011  -0.000000   0.000000   0.000000
    20  H   -0.000000   0.000000   0.000000  -0.000000  -0.000000   0.000000
    21  H    0.000000   0.000000  -0.000000  -0.000000  -0.000000   0.000000
    22  H    0.000000  -0.000000   0.000000   0.000000   0.000000  -0.000000
    23  S   -0.000062   0.000010   0.000145   0.000002   0.000000  -0.000000
    24  C   -0.001093   0.005060   0.007840  -0.003027  -0.012000   0.000778
    25  C    0.003838  -0.001142   0.014315  -0.001434  -0.008150  -0.000965
    26  C   -0.056794   0.000096  -0.015330   0.005927  -0.064863   0.008997
    27  N   -0.000644   0.000004   0.000055  -0.000005   0.000590  -0.000028
    28  N    0.230856  -0.036015  -0.025076  -0.041191   0.251729  -0.038306
    29  C    0.000031  -0.000002   0.000003  -0.000001  -0.000159   0.000001
    30  H   -0.000002  -0.000000  -0.000000   0.000000   0.000005  -0.000000
    31  H    0.000004  -0.000000   0.000001   0.000000   0.000030  -0.000001
    32  H   -0.000000   0.000000   0.000000  -0.000000  -0.000005   0.000000
    33  C   -0.000143   0.000005   0.000022  -0.000007  -0.003287   0.000213
    34  H    0.000001  -0.000000  -0.000000   0.000000   0.000206  -0.000008
    35  H    0.000007   0.000001   0.000000  -0.000001  -0.000141   0.000019
    36  H    0.000035  -0.000001   0.000002   0.000002  -0.001698   0.000236
    37  C    4.968585   0.401710   0.386114   0.405117  -0.064987  -0.002275
    38  H    0.401710   0.516753  -0.017241  -0.032896  -0.009823   0.007038
    39  H    0.386114  -0.017241   0.506795  -0.020783   0.008794   0.000466
    40  H    0.405117  -0.032896  -0.020783   0.517117   0.000928  -0.003412
    41  C   -0.064987  -0.009823   0.008794   0.000928   4.961807   0.395825
    42  H   -0.002275   0.007038   0.000466  -0.003412   0.395825   0.515631
    43  H   -0.005478  -0.001450  -0.000285   0.005947   0.413647  -0.031377
    44  H    0.009962   0.000009  -0.000509   0.000053   0.391287  -0.019957
              43         44
     1  C    0.000000   0.000000
     2  C   -0.000000   0.000000
     3  S    0.000000   0.000000
     4  C    0.000000   0.000000
     5  C    0.000001  -0.000000
     6  C    0.000000   0.000000
     7  C   -0.000000  -0.000000
     8  C   -0.000000   0.000000
     9  H   -0.000000   0.000000
    10  C   -0.000009   0.000007
    11  C   -0.000000  -0.000000
    12  C   -0.000001   0.000007
    13  C    0.000095  -0.000195
    14  H   -0.000001  -0.000000
    15  H   -0.000000  -0.000000
    16  H   -0.000000  -0.000000
    17  C    0.000000   0.000000
    18  H    0.000000  -0.000000
    19  H   -0.000000  -0.000000
    20  H   -0.000000   0.000000
    21  H   -0.000000  -0.000000
    22  H    0.000000   0.000000
    23  S    0.000000  -0.000000
    24  C   -0.001727   0.006101
    25  C    0.002889   0.001710
    26  C   -0.002503  -0.014695
    27  N   -0.000095  -0.001823
    28  N   -0.041347  -0.025944
    29  C    0.000007   0.000026
    30  H    0.000001  -0.000001
    31  H    0.000000   0.000002
    32  H   -0.000001   0.000002
    33  C   -0.000160  -0.002011
    34  H    0.000022   0.000232
    35  H   -0.000036  -0.000057
    36  H   -0.000091   0.003406
    37  C   -0.005478   0.009962
    38  H   -0.001450   0.000009
    39  H   -0.000285  -0.000509
    40  H    0.005947   0.000053
    41  C    0.413647   0.391287
    42  H   -0.031377  -0.019957
    43  H    0.511135  -0.024653
    44  H   -0.024653   0.532687
 Mulliken charges:
               1
     1  C   -0.043692
     2  C   -0.234376
     3  S   -0.082880
     4  C    0.032239
     5  C   -0.203104
     6  C    0.140867
     7  C   -0.062398
     8  C    0.016628
     9  H    0.139953
    10  C   -0.115819
    11  C   -0.267040
    12  C   -0.037568
    13  C    0.077755
    14  H    0.138227
    15  H    0.126351
    16  H    0.134036
    17  C   -0.133824
    18  H    0.138346
    19  H    0.124605
    20  H    0.129964
    21  H    0.125840
    22  H    0.127514
    23  S    0.113016
    24  C   -0.435754
    25  C    0.051512
    26  C    0.037734
    27  N    0.012255
    28  N    0.010393
    29  C   -0.254383
    30  H    0.169984
    31  H    0.158908
    32  H    0.165907
    33  C   -0.255014
    34  H    0.167811
    35  H    0.175026
    36  H    0.142937
    37  C   -0.257084
    38  H    0.168225
    39  H    0.160545
    40  H    0.166603
    41  C   -0.257196
    42  H    0.167127
    43  H    0.175469
    44  H    0.144353
 Sum of Mulliken charges =   1.00000
 Mulliken charges with hydrogens summed into heavy atoms:
               1
     1  C    0.094654
     2  C   -0.234376
     3  S    0.041725
     4  C    0.032239
     5  C   -0.203104
     6  C    0.140867
     7  C    0.067566
     8  C    0.142468
    10  C    0.022408
    11  C   -0.140689
    12  C    0.096468
    13  C    0.077755
    17  C   -0.006310
    23  S    0.252970
    24  C   -0.435754
    25  C    0.051512
    26  C    0.037734
    27  N    0.012255
    28  N    0.010393
    29  C    0.240416
    33  C    0.230761
    37  C    0.238289
    41  C    0.229754
 Electronic spatial extent (au):  <R**2>=          12335.5517
 Charge=              1.0000 electrons
 Dipole moment (field-independent basis, Debye):
    X=            -12.3119    Y=              1.2365    Z=              0.4794  Tot=             12.3831
 Quadrupole moment (field-independent basis, Debye-Ang):
   XX=            -28.2205   YY=           -114.7682   ZZ=           -141.5335
   XY=             -6.7447   XZ=              4.7446   YZ=              3.1871
 Traceless Quadrupole moment (field-independent basis, Debye-Ang):
   XX=             66.6202   YY=            -19.9275   ZZ=            -46.6927
   XY=             -6.7447   XZ=              4.7446   YZ=              3.1871
 Octapole moment (field-independent basis, Debye-Ang**2):
  XXX=           -400.8893  YYY=             37.8791  ZZZ=              9.2523  XYY=            -90.5962
  XXY=            -38.4112  XXZ=            -51.5172  XZZ=             11.8828  YZZ=              1.7147
  YYZ=             -3.0835  XYZ=              1.5357
 Hexadecapole moment (field-independent basis, Debye-Ang**3):
 XXXX=          -9424.2151 YYYY=          -2564.2929 ZZZZ=           -707.1292 XXXY=            -29.4087
 XXXZ=            -98.2464 YYYX=            -90.8155 YYYZ=             60.5077 ZZZX=             20.8701
 ZZZY=            -11.7611 XXYY=          -2027.3237 XXZZ=          -2141.9547 YYZZ=           -599.9841
 XXYZ=             59.4304 YYXZ=             51.9678 ZZXY=            -18.4529
 N-N= 2.022484843669D+03 E-N=-7.878717316401D+03  KE= 1.634731027039D+03
 No NMR shielding tensors so no spin-rotation constants.
 Leave Link  601 at Tue Jan 26 17:25:49 2021, MaxMem=  4026531840 cpu:               3.2 elap:               0.5
 (Enter /opt/ohpc/pub/libs/gaussian/g16-A.03/sandybridge/g16/l9999.exe)

 Test job not archived.
 1\1\GINC-GNODE020\SP\RLC-wHPBE\TZVP\C19H21N2S2(1+)\RDU230\26-Jan-2021\
 0\\#P LC-wHPBE/TZVP iop(3/107=0115700000, 3/108=0115700000) scf=(conve
 r=6,fermi,ndamp=35,noincfock,novaracc,vshift=500,xqc)\\H21 C19 S2 N2\\
 1,1\C,0,5.141333,0.341453,-1.428653\C,0,4.24633,0.793113,-0.45792\S,0,
 3.527427,2.438238,-0.612926\C,0,3.85258,-0.085202,0.570411\C,0,0.86370
 8,-0.787434,0.770822\C,0,1.152588,-1.949541,0.292605\C,0,5.641454,-0.9
 63707,-1.38032\C,0,4.337968,-1.397272,0.611701\H,0,2.805747,-0.536686,
 2.620663\C,0,-0.32759,-0.104924,0.757243\C,0,0.161049,-2.709273,-0.336
 618\C,0,-1.110551,-2.125038,-0.416532\C,0,-1.366563,-0.836811,0.116144
 \H,0,-0.506361,0.876389,1.203135\H,0,0.333628,-3.701573,-0.760587\H,0,
 -1.915541,-2.656529,-0.930176\C,0,5.242141,-1.827604,-0.363151\H,0,5.4
 50891,1.02542,-2.21936\H,0,4.15948,2.9901,0.460876\H,0,6.34791,-1.2988
 86,-2.140548\H,0,4.022912,-2.077842,1.402557\H,0,5.625918,-2.84765,-0.
 32369\S,0,2.641644,0.489998,1.741439\C,0,-2.680648,-0.257498,0.003764\
 C,0,-4.05427,-0.413992,-0.132503\C,0,-3.489875,0.870167,-0.052158\N,0,
 -5.09974,-1.211802,-0.243141\N,0,-3.607387,2.185094,-0.049886\C,0,-4.9
 5887,-2.66296,-0.086881\H,0,-5.24939,-3.175063,-1.01565\H,0,-3.921906,
 -2.911213,0.159186\H,0,-5.607057,-3.011636,0.730112\C,0,-6.456302,-0.7
 08508,-0.463149\H,0,-6.932296,-1.289768,-1.265044\H,0,-7.06234,-0.8046
 38,0.450448\H,0,-6.424137,0.340187,-0.774131\C,0,-2.422516,3.047015,-0
 .104701\H,0,-2.374233,3.683098,0.791036\H,0,-1.518165,2.434104,-0.1685
 34\H,0,-2.472812,3.689712,-0.995626\C,0,-4.905946,2.85982,-0.071613\H,
 0,-4.903422,3.671788,0.668659\H,0,-5.109136,3.28812,-1.064906\H,0,-5.7
 0105,2.156915,0.195603\\Version=EM64L-G16RevA.03\State=1-A\HF=-1641.23
 92792\RMSD=8.444e-07\Dipole=-4.8438576,0.4864713,0.1886143\Quadrupole=
 49.5304881,-14.8155997,-34.7148884,-5.0144904,3.5274777,2.3695605\PG=C
 01 [X(C19H21N2S2)]\\@


 DO YOU KNOW THAT THE LETTERS IN "EPISCOPAL", WHEN
 REARRANGED, SPELL "PEPSI COLA"?
 Job cpu time:       0 days  1 hours 31 minutes 10.8 seconds.
 Elapsed time:       0 days  0 hours 11 minutes 25.0 seconds.
 File lengths (MBytes):  RWF=    156 Int=      0 D2E=      0 Chk=     24 Scr=      8
 Normal termination of Gaussian 16 at Tue Jan 26 17:25:49 2021.
