 Entering Gaussian System, Link 0=g16
 Input=mol_ta_cp_half_tune_n1.gjf
 Output=mol_ta_cp_half_tune_n1.log
 Initial command:
 /opt/ohpc/pub/libs/gaussian/g16-A.03/sandybridge/g16/l1.exe "/mnt/gpfs2_4m/scratch/rdu230/ondemand/projects/init_structures/gaussian/wtuning/mol_ta_cp_half/tuning_mol_ta_cp_half_ocycle0/Gau-120128.inp" -scrdir="/mnt/gpfs2_4m/scratch/rdu230/ondemand/projects/init_structures/gaussian/wtuning/mol_ta_cp_half/tuning_mol_ta_cp_half_ocycle0/"
 Entering Link 1 = /opt/ohpc/pub/libs/gaussian/g16-A.03/sandybridge/g16/l1.exe PID=    120129.
  
 Copyright (c) 1988,1990,1992,1993,1995,1998,2003,2009,2016,
            Gaussian, Inc.  All Rights Reserved.
  
 This is part of the Gaussian(R) 16 program.  It is based on
 the Gaussian(R) 09 system (copyright 2009, Gaussian, Inc.),
 the Gaussian(R) 03 system (copyright 2003, Gaussian, Inc.),
 the Gaussian(R) 98 system (copyright 1998, Gaussian, Inc.),
 the Gaussian(R) 94 system (copyright 1995, Gaussian, Inc.),
 the Gaussian 92(TM) system (copyright 1992, Gaussian, Inc.),
 the Gaussian 90(TM) system (copyright 1990, Gaussian, Inc.),
 the Gaussian 88(TM) system (copyright 1988, Gaussian, Inc.),
 the Gaussian 86(TM) system (copyright 1986, Carnegie Mellon
 University), and the Gaussian 82(TM) system (copyright 1983,
 Carnegie Mellon University). Gaussian is a federally registered
 trademark of Gaussian, Inc.
  
 This software contains proprietary and confidential information,
 including trade secrets, belonging to Gaussian, Inc.
  
 This software is provided under written license and may be
 used, copied, transmitted, or stored only in accord with that
 written license.
  
 The following legend is applicable only to US Government
 contracts under FAR:
  
                    RESTRICTED RIGHTS LEGEND
  
 Use, reproduction and disclosure by the US Government is
 subject to restrictions as set forth in subparagraphs (a)
 and (c) of the Commercial Computer Software - Restricted
 Rights clause in FAR 52.227-19.
  
 Gaussian, Inc.
 340 Quinnipiac St., Bldg. 40, Wallingford CT 06492
  
  
 ---------------------------------------------------------------
 Warning -- This program may not be used in any manner that
 competes with the business of Gaussian, Inc. or will provide
 assistance to any competitor of Gaussian, Inc.  The licensee
 of this program is prohibited from giving any competitor of
 Gaussian, Inc. access to this program.  By using this program,
 the user acknowledges that Gaussian, Inc. is engaged in the
 business of creating and licensing software in the field of
 computational chemistry and represents and warrants to the
 licensee that it is not a competitor of Gaussian, Inc. and that
 it will not use this program in any manner prohibited above.
 ---------------------------------------------------------------
  

 Cite this work as:
 Gaussian 16, Revision A.03,
 M. J. Frisch, G. W. Trucks, H. B. Schlegel, G. E. Scuseria, 
 M. A. Robb, J. R. Cheeseman, G. Scalmani, V. Barone, 
 G. A. Petersson, H. Nakatsuji, X. Li, M. Caricato, A. V. Marenich, 
 J. Bloino, B. G. Janesko, R. Gomperts, B. Mennucci, H. P. Hratchian, 
 J. V. Ortiz, A. F. Izmaylov, J. L. Sonnenberg, D. Williams-Young, 
 F. Ding, F. Lipparini, F. Egidi, J. Goings, B. Peng, A. Petrone, 
 T. Henderson, D. Ranasinghe, V. G. Zakrzewski, J. Gao, N. Rega, 
 G. Zheng, W. Liang, M. Hada, M. Ehara, K. Toyota, R. Fukuda, 
 J. Hasegawa, M. Ishida, T. Nakajima, Y. Honda, O. Kitao, H. Nakai, 
 T. Vreven, K. Throssell, J. A. Montgomery, Jr., J. E. Peralta, 
 F. Ogliaro, M. J. Bearpark, J. J. Heyd, E. N. Brothers, K. N. Kudin, 
 V. N. Staroverov, T. A. Keith, R. Kobayashi, J. Normand, 
 K. Raghavachari, A. P. Rendell, J. C. Burant, S. S. Iyengar, 
 J. Tomasi, M. Cossi, J. M. Millam, M. Klene, C. Adamo, R. Cammi, 
 J. W. Ochterski, R. L. Martin, K. Morokuma, O. Farkas, 
 J. B. Foresman, and D. J. Fox, Gaussian, Inc., Wallingford CT, 2016.
 
 ******************************************
 Gaussian 16:  EM64L-G16RevA.03 25-Dec-2016
                26-Jan-2021 
 ******************************************
 %mem=30GB
 %nproc=8
 Will use up to    8 processors via shared memory.
 ----------------------------------------------------------------------
 #P LC-wHPBE/TZVP iop(3/107=0328100000, 3/108=0328100000) scf=(conver=6
 ,fermi,ndamp=35,noincfock,novaracc,vshift=500,xqc)
 ----------------------------------------------------------------------
 1/38=1,172=1/1;
 2/12=2,17=6,18=5,40=1/2;
 3/5=19,7=101,11=2,25=1,30=1,74=-71,107=328100000,108=328100000/1,2,3;
 4//1;
 5/5=100002,6=6,8=3,10=500,13=1,18=-1,22=13,38=1,93=35/2,8;
 6/7=2,8=2,9=2,10=2,28=1/1;
 99/5=1,9=1/99;
 Leave Link    1 at Tue Jan 26 15:27:10 2021, MaxMem=  4026531840 cpu:               2.3 elap:               0.3
 (Enter /opt/ohpc/pub/libs/gaussian/g16-A.03/sandybridge/g16/l101.exe)
 -------------
 H21 C19 S2 N2
 -------------
 Symbolic Z-matrix:
 Charge =  1 Multiplicity = 1
 C                     5.14133   0.34145  -1.42865 
 C                     4.24633   0.79311  -0.45792 
 S                     3.52743   2.43824  -0.61293 
 C                     3.85258  -0.0852    0.57041 
 C                     0.86371  -0.78743   0.77082 
 C                     1.15259  -1.94954   0.29261 
 C                     5.64145  -0.96371  -1.38032 
 C                     4.33797  -1.39727   0.6117 
 H                     2.80575  -0.53669   2.62066 
 C                    -0.32759  -0.10492   0.75724 
 C                     0.16105  -2.70927  -0.33662 
 C                    -1.11055  -2.12504  -0.41653 
 C                    -1.36656  -0.83681   0.11614 
 H                    -0.50636   0.87639   1.20314 
 H                     0.33363  -3.70157  -0.76059 
 H                    -1.91554  -2.65653  -0.93018 
 C                     5.24214  -1.8276   -0.36315 
 H                     5.45089   1.02542  -2.21936 
 H                     4.15948   2.9901    0.46088 
 H                     6.34791  -1.29889  -2.14055 
 H                     4.02291  -2.07784   1.40256 
 H                     5.62592  -2.84765  -0.32369 
 S                     2.64164   0.49      1.74144 
 C                    -2.68065  -0.2575    0.00376 
 C                    -4.05427  -0.41399  -0.1325 
 C                    -3.48988   0.87017  -0.05216 
 N                    -5.09974  -1.2118   -0.24314 
 N                    -3.60739   2.18509  -0.04989 
 C                    -4.95887  -2.66296  -0.08688 
 H                    -5.24939  -3.17506  -1.01565 
 H                    -3.92191  -2.91121   0.15919 
 H                    -5.60706  -3.01164   0.73011 
 C                    -6.4563   -0.70851  -0.46315 
 H                    -6.9323   -1.28977  -1.26504 
 H                    -7.06234  -0.80464   0.45045 
 H                    -6.42414   0.34019  -0.77413 
 C                    -2.42252   3.04702  -0.1047 
 H                    -2.37423   3.6831    0.79104 
 H                    -1.51817   2.4341   -0.16853 
 H                    -2.47281   3.68971  -0.99563 
 C                    -4.90595   2.85982  -0.07161 
 H                    -4.90342   3.67179   0.66866 
 H                    -5.10914   3.28812  -1.06491 
 H                    -5.70105   2.15692   0.1956 
 
 ITRead=  0  0  0  0  0  0  0  0  0  0  0  0  0  0  0  0  0  0  0  0
 ITRead=  0  0  0  0  0  0  0  0  0  0  0  0  0  0  0  0  0  0  0  0
 ITRead=  0  0  0  0
 MicOpt= -1 -1 -1 -1 -1 -1 -1 -1 -1 -1 -1 -1 -1 -1 -1 -1 -1 -1 -1 -1
 MicOpt= -1 -1 -1 -1 -1 -1 -1 -1 -1 -1 -1 -1 -1 -1 -1 -1 -1 -1 -1 -1
 MicOpt= -1 -1 -1 -1
 NAtoms=     44 NQM=       44 NQMF=       0 NMMI=      0 NMMIF=      0
                NMic=       0 NMicF=      0.
                    Isotopes and Nuclear Properties:
 (Nuclear quadrupole moments (NQMom) in fm**2, nuclear magnetic moments (NMagM)
  in nuclear magnetons)

  Atom         1           2           3           4           5           6           7           8           9          10
 IAtWgt=          12          12          32          12          12          12          12          12           1          12
 AtmWgt=  12.0000000  12.0000000  31.9720718  12.0000000  12.0000000  12.0000000  12.0000000  12.0000000   1.0078250  12.0000000
 NucSpn=           0           0           0           0           0           0           0           0           1           0
 AtZEff=  -0.0000000  -0.0000000  -0.0000000  -0.0000000  -0.0000000  -0.0000000  -0.0000000  -0.0000000  -0.0000000  -0.0000000
 NQMom=    0.0000000   0.0000000   0.0000000   0.0000000   0.0000000   0.0000000   0.0000000   0.0000000   0.0000000   0.0000000
 NMagM=    0.0000000   0.0000000   0.0000000   0.0000000   0.0000000   0.0000000   0.0000000   0.0000000   2.7928460   0.0000000
 AtZNuc=   6.0000000   6.0000000  16.0000000   6.0000000   6.0000000   6.0000000   6.0000000   6.0000000   1.0000000   6.0000000

  Atom        11          12          13          14          15          16          17          18          19          20
 IAtWgt=          12          12          12           1           1           1          12           1           1           1
 AtmWgt=  12.0000000  12.0000000  12.0000000   1.0078250   1.0078250   1.0078250  12.0000000   1.0078250   1.0078250   1.0078250
 NucSpn=           0           0           0           1           1           1           0           1           1           1
 AtZEff=  -0.0000000  -0.0000000  -0.0000000  -0.0000000  -0.0000000  -0.0000000  -0.0000000  -0.0000000  -0.0000000  -0.0000000
 NQMom=    0.0000000   0.0000000   0.0000000   0.0000000   0.0000000   0.0000000   0.0000000   0.0000000   0.0000000   0.0000000
 NMagM=    0.0000000   0.0000000   0.0000000   2.7928460   2.7928460   2.7928460   0.0000000   2.7928460   2.7928460   2.7928460
 AtZNuc=   6.0000000   6.0000000   6.0000000   1.0000000   1.0000000   1.0000000   6.0000000   1.0000000   1.0000000   1.0000000

  Atom        21          22          23          24          25          26          27          28          29          30
 IAtWgt=           1           1          32          12          12          12          14          14          12           1
 AtmWgt=   1.0078250   1.0078250  31.9720718  12.0000000  12.0000000  12.0000000  14.0030740  14.0030740  12.0000000   1.0078250
 NucSpn=           1           1           0           0           0           0           2           2           0           1
 AtZEff=  -0.0000000  -0.0000000  -0.0000000  -0.0000000  -0.0000000  -0.0000000  -0.0000000  -0.0000000  -0.0000000  -0.0000000
 NQMom=    0.0000000   0.0000000   0.0000000   0.0000000   0.0000000   0.0000000   2.0440000   2.0440000   0.0000000   0.0000000
 NMagM=    2.7928460   2.7928460   0.0000000   0.0000000   0.0000000   0.0000000   0.4037610   0.4037610   0.0000000   2.7928460
 AtZNuc=   1.0000000   1.0000000  16.0000000   6.0000000   6.0000000   6.0000000   7.0000000   7.0000000   6.0000000   1.0000000

  Atom        31          32          33          34          35          36          37          38          39          40
 IAtWgt=           1           1          12           1           1           1          12           1           1           1
 AtmWgt=   1.0078250   1.0078250  12.0000000   1.0078250   1.0078250   1.0078250  12.0000000   1.0078250   1.0078250   1.0078250
 NucSpn=           1           1           0           1           1           1           0           1           1           1
 AtZEff=  -0.0000000  -0.0000000  -0.0000000  -0.0000000  -0.0000000  -0.0000000  -0.0000000  -0.0000000  -0.0000000  -0.0000000
 NQMom=    0.0000000   0.0000000   0.0000000   0.0000000   0.0000000   0.0000000   0.0000000   0.0000000   0.0000000   0.0000000
 NMagM=    2.7928460   2.7928460   0.0000000   2.7928460   2.7928460   2.7928460   0.0000000   2.7928460   2.7928460   2.7928460
 AtZNuc=   1.0000000   1.0000000   6.0000000   1.0000000   1.0000000   1.0000000   6.0000000   1.0000000   1.0000000   1.0000000

  Atom        41          42          43          44
 IAtWgt=          12           1           1           1
 AtmWgt=  12.0000000   1.0078250   1.0078250   1.0078250
 NucSpn=           0           1           1           1
 AtZEff=  -0.0000000  -0.0000000  -0.0000000  -0.0000000
 NQMom=    0.0000000   0.0000000   0.0000000   0.0000000
 NMagM=    0.0000000   2.7928460   2.7928460   2.7928460
 AtZNuc=   6.0000000   1.0000000   1.0000000   1.0000000
 Leave Link  101 at Tue Jan 26 15:27:10 2021, MaxMem=  4026531840 cpu:               0.8 elap:               0.1
 (Enter /opt/ohpc/pub/libs/gaussian/g16-A.03/sandybridge/g16/l202.exe)
                          Input orientation:                          
 ---------------------------------------------------------------------
 Center     Atomic      Atomic             Coordinates (Angstroms)
 Number     Number       Type             X           Y           Z
 ---------------------------------------------------------------------
      1          6           0        5.141333    0.341453   -1.428653
      2          6           0        4.246330    0.793113   -0.457920
      3         16           0        3.527427    2.438238   -0.612926
      4          6           0        3.852580   -0.085202    0.570411
      5          6           0        0.863708   -0.787434    0.770822
      6          6           0        1.152588   -1.949541    0.292605
      7          6           0        5.641454   -0.963707   -1.380320
      8          6           0        4.337968   -1.397272    0.611701
      9          1           0        2.805747   -0.536686    2.620663
     10          6           0       -0.327590   -0.104924    0.757243
     11          6           0        0.161049   -2.709273   -0.336618
     12          6           0       -1.110551   -2.125038   -0.416532
     13          6           0       -1.366563   -0.836811    0.116144
     14          1           0       -0.506361    0.876389    1.203135
     15          1           0        0.333628   -3.701573   -0.760587
     16          1           0       -1.915541   -2.656529   -0.930176
     17          6           0        5.242141   -1.827604   -0.363151
     18          1           0        5.450891    1.025420   -2.219360
     19          1           0        4.159480    2.990100    0.460876
     20          1           0        6.347910   -1.298886   -2.140548
     21          1           0        4.022912   -2.077842    1.402557
     22          1           0        5.625918   -2.847650   -0.323690
     23         16           0        2.641644    0.489998    1.741439
     24          6           0       -2.680648   -0.257498    0.003764
     25          6           0       -4.054270   -0.413992   -0.132503
     26          6           0       -3.489875    0.870167   -0.052158
     27          7           0       -5.099740   -1.211802   -0.243141
     28          7           0       -3.607387    2.185094   -0.049886
     29          6           0       -4.958870   -2.662960   -0.086881
     30          1           0       -5.249390   -3.175063   -1.015650
     31          1           0       -3.921906   -2.911213    0.159186
     32          1           0       -5.607057   -3.011636    0.730112
     33          6           0       -6.456302   -0.708508   -0.463149
     34          1           0       -6.932296   -1.289768   -1.265044
     35          1           0       -7.062340   -0.804638    0.450448
     36          1           0       -6.424137    0.340187   -0.774131
     37          6           0       -2.422516    3.047015   -0.104701
     38          1           0       -2.374233    3.683098    0.791036
     39          1           0       -1.518165    2.434104   -0.168534
     40          1           0       -2.472812    3.689712   -0.995626
     41          6           0       -4.905946    2.859820   -0.071613
     42          1           0       -4.903422    3.671788    0.668659
     43          1           0       -5.109136    3.288120   -1.064906
     44          1           0       -5.701050    2.156915    0.195603
 ---------------------------------------------------------------------
                    Distance matrix (angstroms):
                    1          2          3          4          5
     1  C    0.000000
     2  C    1.395475   0.000000
     3  S    2.768864   1.802022   0.000000
     4  C    2.416439   1.408524   2.806022   0.000000
     5  C    4.940663   3.930657   4.406259   3.076792   0.000000
     6  C    4.911361   4.201985   5.070745   3.292855   1.289432
     7  C    1.398535   2.425615   4.078141   2.788762   5.242646
     8  C    2.798500   2.439318   4.107046   1.399584   3.530964
     9  H    4.756369   3.649838   4.452762   2.345897   2.693752
    10  C    5.906481   4.817036   4.817281   4.184390   1.373024
    11  C    5.941607   5.382466   6.156762   4.619075   2.326718
    12  C    6.796618   6.100286   6.509447   5.455974   2.663962
    13  C    6.791717   5.872884   5.933686   5.292516   2.324898
    14  H    6.253712   5.035287   4.691364   4.508366   2.198247
    15  H    6.317151   5.966829   6.922387   5.218498   3.334427
    16  H    7.683479   7.077550   7.462118   6.491125   3.756479
    17  C    2.418732   2.805134   4.604350   2.416275   4.640962
    18  H    1.090346   2.146533   2.876873   3.401603   5.768004
    19  H    3.398483   2.382956   1.362752   3.092518   5.022743
    20  H    2.157159   3.409448   4.924921   3.879304   6.230099
    21  H    3.888393   3.428363   4.970177   2.166124   3.470564
    22  H    3.409713   3.895695   5.694553   3.402244   5.302932
    23  S    4.039801   2.739357   3.181711   1.780036   2.394783
    24  C    7.974581   7.021393   6.796138   6.560019   3.664924
    25  C    9.317179   8.394222   8.114687   7.944839   5.014176
    26  C    8.756257   7.747222   7.212200   7.430476   4.730605
    27  N   10.425815   9.561111   9.374836   9.059532   6.063903
    28  N    9.046553   7.986550   7.161471   7.822411   5.431406
    29  C   10.622662   9.839605   9.915452   9.204266   6.177027
    30  H   10.977412  10.306609  10.426114   9.742109   6.801634
    31  H    9.759271   8.990157   9.203551   8.282396   5.271303
    32  H   11.464352  10.629053  10.721179   9.903245   6.842480
    33  C   11.685023  10.807462  10.468968  10.379297   7.423709
    34  H   12.184423  11.399628  11.123358  11.006063   8.073089
    35  H   12.400572  11.457048  11.126103  10.939262   7.932539
    36  H   11.583976  10.684755  10.171599  10.373026   7.534659
    37  C    8.141543   7.048287   6.002560   7.045807   5.125311
    38  H    8.519234   7.331013   6.192768   7.281618   5.519993
    39  H    7.093377   6.000500   5.065126   5.978114   4.115096
    40  H    8.329079   7.336640   6.141296   7.530806   5.856410
    41  C   10.446604   9.390669   8.461237   9.262674   6.877577
    42  H   10.788278   9.657842   8.616456   9.528494   7.290740
    43  H   10.671798   9.701455   8.690041   9.714212   7.460221
    44  H   11.112667  10.061681   9.268098   9.820357   7.217764
                    6          7          8          9         10
     6  C    0.000000
     7  C    4.890855   0.000000
     8  C    3.248610   2.419752   0.000000
     9  H    3.185741   4.922545   2.669127   0.000000
    10  C    2.410275   6.398138   4.843426   3.671043   0.000000
    11  C    1.398665   5.845610   4.479655   4.523281   2.866694
    12  C    2.378124   6.918609   5.592251   5.204306   2.464069
    13  C    2.759607   7.167134   5.753379   4.875537   1.423422
    14  H    3.401038   6.917790   5.383944   3.869913   1.092590
    15  H    2.202164   6.004415   4.819514   5.249832   3.959407
    16  H    3.377638   7.757348   6.562735   6.276365   3.446688
    17  C    4.143589   1.392983   1.397516   4.062712   5.936734
    18  H    5.799635   2.167240   3.888823   5.732607   6.597627
    19  H    5.785306   4.606391   4.393591   4.351493   5.459011
    20  H    5.773643   1.090583   3.409461   5.983059   7.374621
    21  H    3.080132   3.406667   1.089903   2.310938   4.820343
    22  H    4.604031   2.160081   2.153455   4.686484   6.643434
    23  S    3.204334   4.567001   2.777699   1.361633   3.184168
    24  C    4.200016   8.465920   7.136501   6.084952   2.475458
    25  C    5.445181   9.791134   8.482354   7.392889   3.843867
    26  C    5.442617   9.407884   8.176620   6.982697   3.406755
    27  N    6.318456  10.804072   9.478158   8.435276   4.999936
    28  N    6.314259   9.860328   8.740693   7.461113   4.080773
    29  C    6.164649  10.813293   9.408569   8.493592   5.357691
    30  H    6.648215  11.119063   9.885659   9.223288   6.065725
    31  H    5.166537   9.880319   8.409656   7.547090   4.599134
    32  H    6.856549  11.626562  10.075898   8.970777   6.026814
    33  C    7.746388  12.135157  10.869497   9.763451   6.278119
    34  H    8.259959  12.578505  11.425961  10.511676   7.008255
    35  H    8.295828  12.836019  11.416840  10.107461   6.777948
    36  H    7.986710  12.150971  10.989186   9.873413   6.301676
    37  C    6.156687   9.096192   8.122134   6.899656   3.881544
    38  H    6.664347   9.516240   8.419974   6.927215   4.305694
    39  H    5.153825   8.017087   7.041484   5.941500   2.953167
    40  H    6.826730   9.361817   8.651453   7.668323   4.698275
    41  C    7.743929  11.295119  10.199985   8.846175   5.517069
    42  H    8.271397  11.699596  10.540489   8.997381   5.933771
    43  H    8.275573  11.565150  10.677625   9.531943   6.139720
    44  H    7.990291  11.869044  10.657733   9.246729   5.857084
                   11         12         13         14         15
    11  C    0.000000
    12  C    1.401672   0.000000
    13  C    2.458598   1.417327   0.000000
    14  H    3.958945   3.463659   2.203758   0.000000
    15  H    1.092791   2.165523   3.444730   5.051685   0.000000
    16  H    2.160398   1.092850   2.169686   4.360999   2.485888
    17  C    5.157086   6.359875   6.699729   6.542943   5.269081
    18  H    6.743521   7.498540   7.443129   6.872011   7.117504
    19  H    7.007589   7.396466   6.730620   5.175789   7.804332
    20  H    6.597015   7.699571   8.051041   7.930515   6.621842
    21  H    4.282221   5.446444   5.678156   5.411244   4.574550
    22  H    5.466636   6.775751   7.289151   7.335156   5.378513
    23  S    4.550495   5.057096   4.524127   3.216987   5.399661
    24  C    3.768594   2.475795   1.440504   2.729783   4.640231
    25  C    4.804050   3.416699   2.732100   4.004581   5.518725
    26  C    5.120796   3.842552   2.729570   3.236843   6.001821
    27  N    5.470563   4.096058   3.769126   5.248941   5.999016
    28  N    6.183701   4.994583   3.765736   3.591536   7.119659
    29  C    5.126215   3.899691   4.034936   5.832321   5.435359
    30  H    5.472741   4.311784   4.671694   6.620694   5.613587
    31  H    4.117903   2.975439   3.291622   5.205930   4.424954
    32  H    5.873703   4.724343   4.805061   6.430987   6.163598
    33  C    6.914362   5.530442   5.124206   6.378887   7.426308
    34  H    7.293320   5.942252   5.752411   7.216425   7.672349
    35  H    7.511621   6.157833   5.705670   6.809791   8.034873
    36  H    7.270165   5.868510   5.268488   6.262361   7.874223
    37  C    6.313750   5.344962   4.030870   3.177059   7.319150
    38  H    6.968620   6.065440   4.679792   3.396526   8.017070
    39  H    5.413163   4.584041   3.286778   2.309047   6.436319
    40  H    6.951153   6.000202   4.790535   4.076305   7.909642
    41  C    7.533888   6.274775   5.121286   4.991526   8.424945
    42  H    8.208373   7.011897   5.756918   5.237754   9.156194
    43  H    8.017105   6.761017   5.693574   5.669744   8.864090
    44  H    7.637228   6.307338   5.268443   5.444232   8.464840
                   16         17         18         19         20
    16  H    0.000000
    17  C    7.227797   0.000000
    18  H    8.335650   3.410108   0.000000
    19  H    8.409835   5.006141   3.565302   0.000000
    20  H    8.461254   2.159029   2.492640   5.472845   0.000000
    21  H    6.406383   2.160292   4.978719   5.156496   4.308826
    22  H    7.568220   1.090567   4.315654   6.070034   2.494176
    23  S    6.148666   4.069787   4.885333   3.192832   5.657414
    24  C    2.685700   8.085199   8.527021   7.585723   9.337956
    25  C    3.199909   9.406102   9.837427   8.910984  10.631116
    26  C    3.960685   9.144550   9.200987   7.954241  10.288254
    27  N    3.563478  10.360894  10.964781  10.192388  11.604156
    28  N    5.203707   9.721832   9.386366   7.825160  10.752531
    29  C    3.158012  10.238885  11.247877  10.742506  11.572447
    30  H    3.375016  10.597812  11.558070  11.345316  11.801814
    31  H    2.297188   9.242662  10.440493  10.011259  10.646948
    32  H    4.063243  10.968238  12.135708  11.466410  12.413518
    33  C    4.963004  11.752274  12.160264  11.279555  12.927106
    34  H    5.210375  12.219640  12.633849  12.013474  13.309037
    35  H    5.641380  12.373708  12.925089  11.846071  13.667200
    36  H    5.415911  11.873090  11.982259  10.979992  12.949086
    37  C    5.785227   9.087116   8.399355   6.606496   9.997595
    38  H    6.585123   9.471491   8.795357   6.578652  10.463753
    39  H    5.162611   7.993858   7.399866   5.739420   8.927440
    40  H    6.370998   9.505856   8.448730   6.826284  10.198142
    41  C    6.333227  11.182156  10.735079   9.081986  12.174753
    42  H    7.178531  11.586216  11.070488   9.090878  12.617120
    43  H    6.749522  11.567715  10.861250   9.398089  12.387959
    44  H    6.226291  11.659418  11.466391   9.899223  12.750592
                   21         22         23         24         25
    21  H    0.000000
    22  H    2.478338   0.000000
    23  S    2.935395   4.930572   0.000000
    24  C    7.085760   8.707190   5.648456   0.000000
    25  C    8.388425   9.983250   7.011713   1.389207   0.000000
    26  C    8.200544   9.848532   6.399769   1.389102   1.405013
    27  N    9.310270  10.849987   8.170906   2.612214   1.319753
    28  N    8.860230  10.519382   6.718079   2.613040   2.638518
    29  C    9.123223  10.589047   8.429218   3.314326   2.424508
    30  H    9.645061  10.902217   9.127027   4.018685   3.135566
    31  H    8.084591   9.560238   7.559891   2.933783   2.517681
    32  H    9.698477  11.283489   9.018054   4.083715   3.146904
    33  C   10.731722  12.270918   9.437650   3.831055   2.442504
    34  H   11.302820  12.689440  10.191508   4.555433   3.214447
    35  H   11.198677  12.874979   9.874717   4.438256   3.088838
    36  H   10.941922  12.472731   9.409512   3.869891   2.568412
    37  C    8.371352   9.978593   5.965927   3.316354   3.826482
    38  H    8.630519  10.387285   6.021476   4.030135   4.523449
    39  H    7.316387   8.885883   4.973083   2.936967   3.813762
    40  H    9.011681  10.429671   6.624753   4.077063   4.481783
    41  C   10.309131  11.981607   8.115992   3.830836   3.383327
    42  H   10.643133  12.423962   8.258491   4.563124   4.249296
    43  H   10.875487  12.387028   8.705151   4.428433   3.960777
    44  H   10.674518  12.394174   8.646893   3.871566   3.070684
                   26         27         28         29         30
    26  C    0.000000
    27  N    2.638699   0.000000
    28  N    1.320169   3.715288   0.000000
    29  C    3.826505   1.466329   5.033041   0.000000
    30  H    4.515318   2.115079   5.688599   1.099665   0.000000
    31  H    3.811844   2.106456   5.110282   1.094291   1.792225
    32  H    4.490301   2.108078   5.622551   1.099636   1.789502
    33  C    3.385383   1.463547   4.081671   2.490735   2.801033
    34  H    4.241070   2.099673   4.960473   2.677337   2.539430
    35  H    3.977448   2.121001   4.596252   2.857738   3.324928
    36  H    3.067901   2.108233   3.444168   3.411482   3.714208
    37  C    2.425012   5.032317   1.466230   6.247978   6.894585
    38  H    3.141371   5.697188   2.114671   6.908223   7.652778
    39  H    2.519342   5.111348   2.107352   6.150218   6.789875
    40  H    3.142353   5.611758   2.108450   6.882060   7.405061
    41  C    2.442203   4.079839   1.463551   5.523055   6.117922
    42  H    3.219747   4.971858   2.099112   6.379886   7.059459
    43  H    3.081260   4.574351   2.121835   6.032783   6.464892
    44  H    2.570292   3.449975   2.108194   4.884857   5.486449
                   31         32         33         34         35
    31  H    0.000000
    32  H    1.782070   0.000000
    33  C    3.415022   2.729375   0.000000
    34  H    3.704047   2.949870   1.098849   0.000000
    35  H    3.792732   2.658364   1.100537   1.787505   0.000000
    36  H    4.207593   3.763653   1.094306   1.776506   1.793745
    37  C    6.149658   6.895322   5.523031   6.363348   6.055691
    38  H    6.802901   7.434671   6.125559   7.052149   6.498778
    39  H    5.870075   6.868965   5.860717   6.662010   6.450617
    40  H    6.856068   7.596692   5.957857   6.689903   6.584381
    41  C    5.858876   5.967270   3.910226   4.769639   4.283787
    42  H    6.675241   6.720642   4.783244   5.698471   4.974629
    43  H    6.429591   6.569394   4.260282   4.931635   4.781419
    44  H    5.371462   5.196966   3.035623   3.940695   3.269381
                   36         37         38         39         40
    36  H    0.000000
    37  C    4.877297   0.000000
    38  H    5.479646   1.099672   0.000000
    39  H    5.368407   1.094342   1.792655   0.000000
    40  H    5.184722   1.099698   1.789392   1.781006   0.000000
    41  C    3.024398   2.490695   2.798485   3.415800   2.731787
    42  H    3.936214   2.672699   2.532173   3.700367   2.945850
    43  H    3.241001   2.863224   3.328697   3.798407   2.667636
    44  H    2.182599   3.410461   3.708300   4.207845   3.766963
                   41         42         43         44
    41  C    0.000000
    42  H    1.098773   0.000000
    43  H    1.100617   1.787391   0.000000
    44  H    1.094381   1.776185   1.794121   0.000000
 Stoichiometry    C19H21N2S2(1+)
 Framework group  C1[X(C19H21N2S2)]
 Deg. of freedom   126
 Full point group                 C1      NOp   1
 Largest Abelian subgroup         C1      NOp   1
 Largest concise Abelian subgroup C1      NOp   1
                         Standard orientation:                         
 ---------------------------------------------------------------------
 Center     Atomic      Atomic             Coordinates (Angstroms)
 Number     Number       Type             X           Y           Z
 ---------------------------------------------------------------------
      1          6           0        5.141333    0.341453   -1.428653
      2          6           0        4.246330    0.793113   -0.457920
      3         16           0        3.527427    2.438238   -0.612926
      4          6           0        3.852580   -0.085202    0.570411
      5          6           0        0.863708   -0.787434    0.770822
      6          6           0        1.152588   -1.949541    0.292605
      7          6           0        5.641454   -0.963707   -1.380320
      8          6           0        4.337968   -1.397272    0.611701
      9          1           0        2.805747   -0.536686    2.620663
     10          6           0       -0.327590   -0.104924    0.757243
     11          6           0        0.161049   -2.709273   -0.336618
     12          6           0       -1.110551   -2.125038   -0.416532
     13          6           0       -1.366563   -0.836811    0.116144
     14          1           0       -0.506361    0.876389    1.203135
     15          1           0        0.333628   -3.701573   -0.760587
     16          1           0       -1.915541   -2.656529   -0.930176
     17          6           0        5.242141   -1.827604   -0.363151
     18          1           0        5.450891    1.025420   -2.219360
     19          1           0        4.159480    2.990100    0.460876
     20          1           0        6.347910   -1.298886   -2.140548
     21          1           0        4.022912   -2.077842    1.402557
     22          1           0        5.625918   -2.847650   -0.323690
     23         16           0        2.641644    0.489998    1.741439
     24          6           0       -2.680648   -0.257498    0.003764
     25          6           0       -4.054270   -0.413992   -0.132503
     26          6           0       -3.489875    0.870167   -0.052158
     27          7           0       -5.099740   -1.211802   -0.243141
     28          7           0       -3.607387    2.185094   -0.049886
     29          6           0       -4.958870   -2.662960   -0.086881
     30          1           0       -5.249390   -3.175063   -1.015650
     31          1           0       -3.921906   -2.911213    0.159186
     32          1           0       -5.607057   -3.011636    0.730112
     33          6           0       -6.456302   -0.708508   -0.463149
     34          1           0       -6.932296   -1.289768   -1.265044
     35          1           0       -7.062340   -0.804638    0.450448
     36          1           0       -6.424137    0.340187   -0.774131
     37          6           0       -2.422516    3.047015   -0.104701
     38          1           0       -2.374233    3.683098    0.791036
     39          1           0       -1.518165    2.434104   -0.168534
     40          1           0       -2.472812    3.689712   -0.995626
     41          6           0       -4.905946    2.859820   -0.071613
     42          1           0       -4.903422    3.671788    0.668659
     43          1           0       -5.109136    3.288120   -1.064906
     44          1           0       -5.701050    2.156915    0.195603
 ---------------------------------------------------------------------
 Rotational constants (GHZ):           0.4060159           0.0982633           0.0849802
 Leave Link  202 at Tue Jan 26 15:27:10 2021, MaxMem=  4026531840 cpu:               0.3 elap:               0.1
 (Enter /opt/ohpc/pub/libs/gaussian/g16-A.03/sandybridge/g16/l301.exe)
 Standard basis: TZVP (5D, 7F)
 Ernie: Thresh=  0.10000D-02 Tol=  0.10000D-05 Strict=F.
 There are   592 symmetry adapted cartesian basis functions of A   symmetry.
 There are   569 symmetry adapted basis functions of A   symmetry.
   569 basis functions,   997 primitive gaussians,   592 cartesian basis functions
    90 alpha electrons       90 beta electrons
       nuclear repulsion energy      2022.4848436690 Hartrees.
 IExCor=33909 DFT=T Ex+Corr=LC-wHPBE ExCW=0 ScaHFX=  1.000000
 ScaDFX=  1.000000  1.000000  1.000000  1.000000 ScalE2=  1.000000  1.000000
 IRadAn=      5 IRanWt=     -1 IRanGd=            0 ICorTp=0 IEmpDi=  4
 HFx  wShort=  0.000000 wLong=  0.328100 cFull=  0.000000 cShort=  0.000000 cLong=  1.000000
 DFx  wShort=  0.000000 wLong=  0.328100 cFull=  0.000000 cShort=  1.000000 cLong=  0.000000
 NAtoms=   44 NActive=   44 NUniq=   44 SFac= 1.00D+00 NAtFMM=   60 NAOKFM=F Big=F
 Integral buffers will be    131072 words long.
 Raffenetti 2 integral format.
 Two-electron integral symmetry is turned on.
 Leave Link  301 at Tue Jan 26 15:27:10 2021, MaxMem=  4026531840 cpu:               0.4 elap:               0.1
 (Enter /opt/ohpc/pub/libs/gaussian/g16-A.03/sandybridge/g16/l302.exe)
 NPDir=0 NMtPBC=     1 NCelOv=     1 NCel=       1 NClECP=     1 NCelD=      1
         NCelK=      1 NCelE2=     1 NClLst=     1 CellRange=     0.0.
 One-electron integrals computed using PRISM.
 One-electron integral symmetry used in STVInt
 NBasis=   569 RedAO= T EigKep=  9.00D-06  NBF=   569
 NBsUse=   569 1.00D-06 EigRej= -1.00D+00 NBFU=   569
 Precomputing XC quadrature grid using
 IXCGrd= 4 IRadAn=           5 IRanWt=          -1 IRanGd=           0 AccXCQ= 0.00D+00.
 Generated NRdTot=       0 NPtTot=           0 NUsed=           0 NTot=          32
 NSgBfM=   570   570   570   570   570 MxSgAt=    44 MxSgA2=    44.
 Leave Link  302 at Tue Jan 26 15:27:11 2021, MaxMem=  4026531840 cpu:               9.1 elap:               1.2
 (Enter /opt/ohpc/pub/libs/gaussian/g16-A.03/sandybridge/g16/l303.exe)
 DipDrv:  MaxL=1.
 Leave Link  303 at Tue Jan 26 15:27:11 2021, MaxMem=  4026531840 cpu:               0.8 elap:               0.1
 (Enter /opt/ohpc/pub/libs/gaussian/g16-A.03/sandybridge/g16/l401.exe)
 ExpMin= 9.52D-02 ExpMax= 6.07D+04 ExpMxC= 2.07D+03 IAcc=3 IRadAn=         5 AccDes= 0.00D+00
 Harris functional with IExCor=33909 and IRadAn=       5 diagonalized for initial guess.
 HarFok:  IExCor=33909 AccDes= 0.00D+00 IRadAn=         5 IDoV= 1 UseB2=F ITyADJ=14
 ICtDFT=  3500011 ScaDFX=  1.000000  1.000000  1.000000  1.000000
 FoFCou: FMM=F IPFlag=           0 FMFlag=      100000 FMFlg1=           0
         NFxFlg=           0 DoJE=T BraDBF=F KetDBF=T FulRan=T
         wScrn=  0.000000 ICntrl=       500 IOpCl=  0 I1Cent=   200000004 NGrid=           0
         NMat0=    1 NMatS0=      1 NMatT0=    0 NMatD0=    1 NMtDS0=    0 NMtDT0=    0
 Petite list used in FoFCou.
 Harris En= -1611.29512335022    
 JPrj=0 DoOrth=F DoCkMO=F.
 Leave Link  401 at Tue Jan 26 15:27:18 2021, MaxMem=  4026531840 cpu:              51.2 elap:               6.4
 (Enter /opt/ohpc/pub/libs/gaussian/g16-A.03/sandybridge/g16/l502.exe)
 Integral symmetry usage will be decided dynamically.
 Closed shell SCF:
 Using DIIS extrapolation, IDIIS=    10.
 NGot=  4026531840 LenX=  4025820226 LenY=  4025469170
 Requested convergence on RMS density matrix=1.00D-06 within  32 cycles.
 Requested convergence on MAX density matrix=1.00D-04.
 Requested convergence on             energy=1.00D-04.
 Virtual orbitals will be shifted by   0.500 hartree.
 No special actions if energy rises.
 Dynamic level shift is on during FON iterations.

 Cycle   1  Pass 1  IDiag  1:
 FoFJK:  IHMeth= 1 ICntrl=       0 DoSepK=T KAlg= 0 I1Cent=           0 FoldK=F
 IRaf=         1 NMat=       1 IRICut=       1 DoRegI=T DoRafI=F ISym2E= 0 IDoP0=0 IntGTp=1.
 FoFCou: FMM=F IPFlag=           0 FMFlag=      100000 FMFlg1=           0
         NFxFlg=           0 DoJE=T BraDBF=F KetDBF=F FulRan=T
         wScrn=  0.000000 ICntrl=       500 IOpCl=  0 I1Cent=           0 NGrid=           0
         NMat0=    1 NMatS0=      1 NMatT0=    0 NMatD0=    1 NMtDS0=    0 NMtDT0=    0
 Symmetry not used in FoFCou.
 E= -1641.05229146658    
 DIIS: error= 2.27D-02 at cycle   1 NSaved=   1.
 NSaved= 1 IEnMin= 1 EnMin= -1641.05229146658     IErMin= 1 ErrMin= 2.27D-02
 ErrMax= 2.27D-02  0.00D+00 EMaxC= 1.00D+00 BMatC= 4.24D-01 BMatP= 4.24D-01
 IDIUse=1 WtCom= 1.00D+00 WtEn= 0.00D+00
 Coeff-Com:  0.100D+01
 Coeff:      0.100D+01
 Gap=     0.460 Goal=   None    Shift=    0.500
 T= 1328. Gap= 0.605 NK=0 IS=   91 IE=  569 IFin=   90
          NO(<0.9)=   0  NV(>0.1)=   0     90.00e < EF      0.00e >EF  Err=0.0D+00
 GapD=    0.460 DampG=2.000 DampE=0.500 DampFc=1.0000 IDamp=-1.
 RMSDP=4.33D-03 MaxDP=3.56D-01              OVMax= 1.40D-01

 Cycle   2  Pass 1  IDiag  1:
 E= -1641.44108039630     Delta-E=       -0.388788929718 Rises=F Damp=F
 DIIS: error= 5.32D-03 at cycle   2 NSaved=   2.
 NSaved= 2 IEnMin= 2 EnMin= -1641.44108039630     IErMin= 2 ErrMin= 5.32D-03
 ErrMax= 5.32D-03  0.00D+00 EMaxC= 1.00D+00 BMatC= 5.11D-02 BMatP= 4.24D-01
 IDIUse=1 WtCom= 1.00D+00 WtEn= 0.00D+00
 Coeff-Com:  0.221D+00 0.779D+00
 Coeff:      0.221D+00 0.779D+00
 Gap=     0.369 Goal=   None    Shift=    0.500
 T= 1151. Gap= 0.786 NK=0 IS=   91 IE=  569 IFin=   90
          NO(<0.9)=   0  NV(>0.1)=   0     90.00e < EF      0.00e >EF  Err=0.0D+00
 GapD=    0.369 DampG=1.000 DampE=1.000 DampFc=1.0000 IDamp=-1.
 RMSDP=1.23D-03 MaxDP=1.10D-01 DE=-3.89D-01 OVMax= 2.39D-02

 Cycle   3  Pass 1  IDiag  1:
 E= -1641.47817227344     Delta-E=       -0.037091877147 Rises=F Damp=F
 DIIS: error= 3.48D-03 at cycle   3 NSaved=   3.
 NSaved= 3 IEnMin= 3 EnMin= -1641.47817227344     IErMin= 3 ErrMin= 3.48D-03
 ErrMax= 3.48D-03  0.00D+00 EMaxC= 1.00D+00 BMatC= 5.02D-03 BMatP= 5.11D-02
 IDIUse=1 WtCom= 1.00D+00 WtEn= 0.00D+00
 Coeff-Com:  0.548D-01-0.106D+00 0.105D+01
 Coeff:      0.548D-01-0.106D+00 0.105D+01
 Gap=     0.288 Goal=   None    Shift=    0.500
 T=  866. Gap= 0.787 NK=0 IS=   91 IE=  569 IFin=   90
          NO(<0.9)=   0  NV(>0.1)=   0     90.00e < EF      0.00e >EF  Err=0.0D+00
 GapD=    0.288 DampG=1.000 DampE=1.000 DampFc=1.0000 IDamp=-1.
 RMSDP=8.03D-04 MaxDP=5.27D-02 DE=-3.71D-02 OVMax= 1.69D-02

 Cycle   4  Pass 1  IDiag  1:
 E= -1641.48500406849     Delta-E=       -0.006831795043 Rises=F Damp=F
 DIIS: error= 2.75D-03 at cycle   4 NSaved=   4.
 NSaved= 4 IEnMin= 4 EnMin= -1641.48500406849     IErMin= 4 ErrMin= 2.75D-03
 ErrMax= 2.75D-03  0.00D+00 EMaxC= 1.00D+00 BMatC= 9.68D-04 BMatP= 5.02D-03
 IDIUse=1 WtCom= 1.00D+00 WtEn= 0.00D+00
 Coeff-Com: -0.396D-02-0.818D-01-0.144D+00 0.123D+01
 Coeff:     -0.396D-02-0.818D-01-0.144D+00 0.123D+01
 Gap=     0.290 Goal=   None    Shift=    0.500
 T=  264. Gap= 0.791 NK=0 IS=   91 IE=  569 IFin=   90
          NO(<0.9)=   0  NV(>0.1)=   0     90.00e < EF      0.00e >EF  Err=0.0D+00
 GapD=    0.290 DampG=1.000 DampE=1.000 DampFc=1.0000 IDamp=-1.
 RMSDP=4.75D-04 MaxDP=3.44D-02 DE=-6.83D-03 OVMax= 1.31D-02

 Cycle   5  Pass 1  IDiag  1:
 E= -1641.48718971214     Delta-E=       -0.002185643654 Rises=F Damp=F
 DIIS: error= 2.13D-03 at cycle   5 NSaved=   5.
 NSaved= 5 IEnMin= 5 EnMin= -1641.48718971214     IErMin= 5 ErrMin= 2.13D-03
 ErrMax= 2.13D-03  0.00D+00 EMaxC= 1.00D+00 BMatC= 2.65D-04 BMatP= 9.68D-04
 IDIUse=1 WtCom= 1.00D+00 WtEn= 0.00D+00
 Coeff-Com: -0.127D-01 0.825D-02-0.260D+00 0.310D-02 0.126D+01
 Coeff:     -0.127D-01 0.825D-02-0.260D+00 0.310D-02 0.126D+01
 Gap=     0.293 Goal=   None    Shift=    0.500
 T=   71. Gap= 0.793 NK=0 IS=   91 IE=  569 IFin=   90
          NO(<0.9)=   0  NV(>0.1)=   0     90.00e < EF      0.00e >EF  Err=0.0D+00
 GapD=    0.293 DampG=1.000 DampE=1.000 DampFc=1.0000 IDamp=-1.
 RMSDP=2.87D-04 MaxDP=2.08D-02 DE=-2.19D-03 OVMax= 1.12D-02

 Cycle   6  Pass 1  IDiag  1:
 E= -1641.48814475076     Delta-E=       -0.000955038623 Rises=F Damp=F
 DIIS: error= 1.49D-03 at cycle   6 NSaved=   6.
 NSaved= 6 IEnMin= 6 EnMin= -1641.48814475076     IErMin= 6 ErrMin= 1.49D-03
 ErrMax= 1.49D-03  0.00D+00 EMaxC= 1.00D+00 BMatC= 1.00D-04 BMatP= 2.65D-04
 IDIUse=1 WtCom= 1.00D+00 WtEn= 0.00D+00
 Coeff-Com: -0.307D-02 0.131D-01 0.425D-01-0.388D+00-0.535D+00 0.187D+01
 Coeff:     -0.307D-02 0.131D-01 0.425D-01-0.388D+00-0.535D+00 0.187D+01
 Gap=     0.293 Goal=   None    Shift=    0.500
 GapD=    0.293 DampG=1.000 DampE=1.000 DampFc=1.0000 IDamp=-1.
 RMSDP=1.94D-04 MaxDP=1.50D-02 DE=-9.55D-04 OVMax= 9.70D-03

 Cycle   7  Pass 1  IDiag  1:
 E= -1641.48862478165     Delta-E=       -0.000480030884 Rises=F Damp=F
 DIIS: error= 1.02D-03 at cycle   7 NSaved=   7.
 NSaved= 7 IEnMin= 7 EnMin= -1641.48862478165     IErMin= 7 ErrMin= 1.02D-03
 ErrMax= 1.02D-03  0.00D+00 EMaxC= 1.00D+00 BMatC= 4.14D-05 BMatP= 1.00D-04
 IDIUse=1 WtCom= 1.00D+00 WtEn= 0.00D+00
 Coeff-Com:  0.312D-04 0.215D-02 0.689D-01-0.121D+00-0.565D+00 0.238D+00
 Coeff-Com:  0.138D+01
 Coeff:      0.312D-04 0.215D-02 0.689D-01-0.121D+00-0.565D+00 0.238D+00
 Coeff:      0.138D+01
 Gap=     0.294 Goal=   None    Shift=    0.500
 GapD=    0.294 DampG=1.000 DampE=1.000 DampFc=1.0000 IDamp=-1.
 RMSDP=9.76D-05 MaxDP=5.90D-03 DE=-4.80D-04 OVMax= 6.51D-03

 Cycle   8  Pass 1  IDiag  1:
 E= -1641.48882901457     Delta-E=       -0.000204232917 Rises=F Damp=F
 DIIS: error= 6.62D-04 at cycle   8 NSaved=   8.
 NSaved= 8 IEnMin= 8 EnMin= -1641.48882901457     IErMin= 8 ErrMin= 6.62D-04
 ErrMax= 6.62D-04  0.00D+00 EMaxC= 1.00D+00 BMatC= 1.71D-05 BMatP= 4.14D-05
 IDIUse=1 WtCom= 1.00D+00 WtEn= 0.00D+00
 Coeff-Com:  0.599D-03-0.328D-02-0.165D-03 0.181D+00-0.450D-01-0.900D+00
 Coeff-Com: -0.134D+00 0.190D+01
 Coeff:      0.599D-03-0.328D-02-0.165D-03 0.181D+00-0.450D-01-0.900D+00
 Coeff:     -0.134D+00 0.190D+01
 Gap=     0.294 Goal=   None    Shift=    0.500
 RMSDP=6.14D-05 MaxDP=3.22D-03 DE=-2.04D-04 OVMax= 5.09D-03

 Cycle   9  Pass 1  IDiag  1:
 E= -1641.48892243813     Delta-E=       -0.000093423568 Rises=F Damp=F
 DIIS: error= 4.39D-04 at cycle   9 NSaved=   9.
 NSaved= 9 IEnMin= 9 EnMin= -1641.48892243813     IErMin= 9 ErrMin= 4.39D-04
 ErrMax= 4.39D-04  0.00D+00 EMaxC= 1.00D+00 BMatC= 7.47D-06 BMatP= 1.71D-05
 IDIUse=1 WtCom= 1.00D+00 WtEn= 0.00D+00
 Coeff-Com: -0.383D-03-0.862D-03-0.180D-01 0.122D+00 0.716D-01-0.418D+00
 Coeff-Com: -0.416D+00 0.142D+00 0.152D+01
 Coeff:     -0.383D-03-0.862D-03-0.180D-01 0.122D+00 0.716D-01-0.418D+00
 Coeff:     -0.416D+00 0.142D+00 0.152D+01
 Gap=     0.294 Goal=   None    Shift=    0.500
 RMSDP=3.45D-05 MaxDP=1.87D-03 DE=-9.34D-05 OVMax= 3.33D-03

 Cycle  10  Pass 1  IDiag  1:
 E= -1641.48896020062     Delta-E=       -0.000037762489 Rises=F Damp=F
 DIIS: error= 2.70D-04 at cycle  10 NSaved=  10.
 NSaved=10 IEnMin=10 EnMin= -1641.48896020062     IErMin=10 ErrMin= 2.70D-04
 ErrMax= 2.70D-04  0.00D+00 EMaxC= 1.00D+00 BMatC= 3.01D-06 BMatP= 7.47D-06
 IDIUse=1 WtCom= 1.00D+00 WtEn= 0.00D+00
 Coeff-Com: -0.927D-03 0.756D-03-0.176D-02-0.365D-01-0.159D-02 0.311D+00
 Coeff-Com: -0.126D+00-0.780D+00-0.612D+00 0.225D+01
 Coeff:     -0.927D-03 0.756D-03-0.176D-02-0.365D-01-0.159D-02 0.311D+00
 Coeff:     -0.126D+00-0.780D+00-0.612D+00 0.225D+01
 Gap=     0.294 Goal=   None    Shift=    0.500
 RMSDP=2.05D-05 MaxDP=1.16D-03 DE=-3.78D-05 OVMax= 2.24D-03

 Cycle  11  Pass 1  IDiag  1:
 E= -1641.48897527791     Delta-E=       -0.000015077285 Rises=F Damp=F
 DIIS: error= 1.73D-04 at cycle  11 NSaved=  11.
 NSaved=11 IEnMin=11 EnMin= -1641.48897527791     IErMin=11 ErrMin= 1.73D-04
 ErrMax= 1.73D-04  0.00D+00 EMaxC= 1.00D+00 BMatC= 1.51D-06 BMatP= 3.01D-06
 IDIUse=1 WtCom= 1.00D+00 WtEn= 0.00D+00
 Coeff-Com: -0.545D-03 0.609D-03 0.618D-02-0.388D-01-0.370D-01 0.242D+00
 Coeff-Com:  0.570D-01-0.367D+00-0.966D+00 0.770D+00 0.133D+01
 Coeff:     -0.545D-03 0.609D-03 0.618D-02-0.388D-01-0.370D-01 0.242D+00
 Coeff:      0.570D-01-0.367D+00-0.966D+00 0.770D+00 0.133D+01
 Gap=     0.294 Goal=   None    Shift=    0.500
 RMSDP=1.12D-05 MaxDP=5.61D-04 DE=-1.51D-05 OVMax= 1.42D-03

 Cycle  12  Pass 1  IDiag  1:
 E= -1641.48898127309     Delta-E=       -0.000005995184 Rises=F Damp=F
 DIIS: error= 1.06D-04 at cycle  12 NSaved=  12.
 NSaved=12 IEnMin=12 EnMin= -1641.48898127309     IErMin=12 ErrMin= 1.06D-04
 ErrMax= 1.06D-04  0.00D+00 EMaxC= 1.00D+00 BMatC= 6.41D-07 BMatP= 1.51D-06
 IDIUse=1 WtCom= 1.00D+00 WtEn= 0.00D+00
 Coeff-Com: -0.180D-04 0.137D-03 0.287D-02 0.480D-02-0.181D-01-0.422D-01
 Coeff-Com:  0.863D-01 0.207D+00-0.334D+00-0.312D+00-0.909D+00 0.231D+01
 Coeff:     -0.180D-04 0.137D-03 0.287D-02 0.480D-02-0.181D-01-0.422D-01
 Coeff:      0.863D-01 0.207D+00-0.334D+00-0.312D+00-0.909D+00 0.231D+01
 Gap=     0.294 Goal=   None    Shift=    0.500
 RMSDP=6.82D-06 MaxDP=3.37D-04 DE=-6.00D-06 OVMax= 9.12D-04

 Cycle  13  Pass 1  IDiag  1:
 E= -1641.48898358732     Delta-E=       -0.000002314231 Rises=F Damp=F
 DIIS: error= 6.46D-05 at cycle  13 NSaved=  13.
 NSaved=13 IEnMin=13 EnMin= -1641.48898358732     IErMin=13 ErrMin= 6.46D-05
 ErrMax= 6.46D-05  0.00D+00 EMaxC= 1.00D+00 BMatC= 2.94D-07 BMatP= 6.41D-07
 IDIUse=1 WtCom= 1.00D+00 WtEn= 0.00D+00
 Coeff-Com:  0.385D-04 0.818D-04-0.439D-03 0.117D-01-0.427D-02-0.679D-01
 Coeff-Com:  0.498D-01 0.163D+00-0.787D-02-0.218D+00-0.115D+01 0.958D+00
 Coeff-Com:  0.127D+01
 Coeff:      0.385D-04 0.818D-04-0.439D-03 0.117D-01-0.427D-02-0.679D-01
 Coeff:      0.498D-01 0.163D+00-0.787D-02-0.218D+00-0.115D+01 0.958D+00
 Coeff:      0.127D+01
 Gap=     0.294 Goal=   None    Shift=    0.500
 RMSDP=3.94D-06 MaxDP=1.86D-04 DE=-2.31D-06 OVMax= 5.78D-04

 Cycle  14  Pass 1  IDiag  1:
 E= -1641.48898449044     Delta-E=       -0.000000903117 Rises=F Damp=F
 DIIS: error= 3.83D-05 at cycle  14 NSaved=  14.
 NSaved=14 IEnMin=14 EnMin= -1641.48898449044     IErMin=14 ErrMin= 3.83D-05
 ErrMax= 3.83D-05  0.00D+00 EMaxC= 1.00D+00 BMatC= 1.15D-07 BMatP= 2.94D-07
 IDIUse=1 WtCom= 1.00D+00 WtEn= 0.00D+00
 Coeff-Com: -0.307D-04-0.453D-04-0.981D-03 0.928D-03 0.735D-03 0.971D-02
 Coeff-Com: -0.709D-02-0.660D-01 0.773D-01 0.188D+00-0.210D+00-0.335D+00
 Coeff-Com: -0.107D+01 0.241D+01
 Coeff:     -0.307D-04-0.453D-04-0.981D-03 0.928D-03 0.735D-03 0.971D-02
 Coeff:     -0.709D-02-0.660D-01 0.773D-01 0.188D+00-0.210D+00-0.335D+00
 Coeff:     -0.107D+01 0.241D+01
 Gap=     0.294 Goal=   None    Shift=    0.500
 RMSDP=2.40D-06 MaxDP=1.25D-04 DE=-9.03D-07 OVMax= 3.58D-04

 Cycle  15  Pass 1  IDiag  1:
 E= -1641.48898482285     Delta-E=       -0.000000332411 Rises=F Damp=F
 DIIS: error= 2.30D-05 at cycle  15 NSaved=  15.
 NSaved=15 IEnMin=15 EnMin= -1641.48898482285     IErMin=15 ErrMin= 2.30D-05
 ErrMax= 2.30D-05  0.00D+00 EMaxC= 1.00D+00 BMatC= 4.77D-08 BMatP= 1.15D-07
 IDIUse=1 WtCom= 1.00D+00 WtEn= 0.00D+00
 Coeff-Com: -0.374D-04-0.180D-04 0.197D-03-0.279D-02-0.871D-03 0.210D-01
 Coeff-Com: -0.433D-02-0.657D-01-0.527D-02 0.148D+00 0.164D+00-0.208D+00
 Coeff-Com: -0.110D+01 0.386D+00 0.167D+01
 Coeff:     -0.374D-04-0.180D-04 0.197D-03-0.279D-02-0.871D-03 0.210D-01
 Coeff:     -0.433D-02-0.657D-01-0.527D-02 0.148D+00 0.164D+00-0.208D+00
 Coeff:     -0.110D+01 0.386D+00 0.167D+01
 Gap=     0.294 Goal=   None    Shift=    0.500
 RMSDP=1.42D-06 MaxDP=7.44D-05 DE=-3.32D-07 OVMax= 2.19D-04

 Cycle  16  Pass 1  IDiag  1:
 E= -1641.48898494751     Delta-E=       -0.000000124662 Rises=F Damp=F
 DIIS: error= 1.36D-05 at cycle  16 NSaved=  16.
 NSaved=16 IEnMin=16 EnMin= -1641.48898494751     IErMin=16 ErrMin= 1.36D-05
 ErrMax= 1.36D-05  0.00D+00 EMaxC= 1.00D+00 BMatC= 1.92D-08 BMatP= 4.77D-08
 IDIUse=1 WtCom= 1.00D+00 WtEn= 0.00D+00
 Coeff-Com: -0.115D-04 0.250D-04 0.464D-03-0.110D-02-0.860D-03 0.288D-02
 Coeff-Com:  0.753D-02-0.549D-02-0.345D-01-0.201D-02 0.115D+00 0.657D-01
 Coeff-Com: -0.220D+00-0.693D+00 0.150D-01 0.175D+01
 Coeff:     -0.115D-04 0.250D-04 0.464D-03-0.110D-02-0.860D-03 0.288D-02
 Coeff:      0.753D-02-0.549D-02-0.345D-01-0.201D-02 0.115D+00 0.657D-01
 Coeff:     -0.220D+00-0.693D+00 0.150D-01 0.175D+01
 Gap=     0.294 Goal=   None    Shift=    0.500
 RMSDP=8.60D-07 MaxDP=4.37D-05 DE=-1.25D-07 OVMax= 1.39D-04

 SCF Done:  E(RLC-wHPBE) =  -1641.48898495     A.U. after   16 cycles
            NFock= 16  Conv=0.86D-06     -V/T= 2.0045
 KE= 1.634061205122D+03 PE=-7.878024069790D+03 EE= 2.579989036052D+03
 Leave Link  502 at Tue Jan 26 15:38:27 2021, MaxMem=  4026531840 cpu:            5343.1 elap:             668.8
 (Enter /opt/ohpc/pub/libs/gaussian/g16-A.03/sandybridge/g16/l508.exe)
 QCSCF skips out because SCF is already converged.
 Leave Link  508 at Tue Jan 26 15:38:27 2021, MaxMem=  4026531840 cpu:               0.0 elap:               0.0
 (Enter /opt/ohpc/pub/libs/gaussian/g16-A.03/sandybridge/g16/l601.exe)
 Copying SCF densities to generalized density rwf, IOpCl= 0 IROHF=0.

 **********************************************************************

            Population analysis using the SCF density.

 **********************************************************************

 Orbital symmetries:
       Occupied  (A) (A) (A) (A) (A) (A) (A) (A) (A) (A) (A) (A)
                 (A) (A) (A) (A) (A) (A) (A) (A) (A) (A) (A) (A)
                 (A) (A) (A) (A) (A) (A) (A) (A) (A) (A) (A) (A)
                 (A) (A) (A) (A) (A) (A) (A) (A) (A) (A) (A) (A)
                 (A) (A) (A) (A) (A) (A) (A) (A) (A) (A) (A) (A)
                 (A) (A) (A) (A) (A) (A) (A) (A) (A) (A) (A) (A)
                 (A) (A) (A) (A) (A) (A) (A) (A) (A) (A) (A) (A)
                 (A) (A) (A) (A) (A) (A)
       Virtual   (A) (A) (A) (A) (A) (A) (A) (A) (A) (A) (A) (A)
                 (A) (A) (A) (A) (A) (A) (A) (A) (A) (A) (A) (A)
                 (A) (A) (A) (A) (A) (A) (A) (A) (A) (A) (A) (A)
                 (A) (A) (A) (A) (A) (A) (A) (A) (A) (A) (A) (A)
                 (A) (A) (A) (A) (A) (A) (A) (A) (A) (A) (A) (A)
                 (A) (A) (A) (A) (A) (A) (A) (A) (A) (A) (A) (A)
                 (A) (A) (A) (A) (A) (A) (A) (A) (A) (A) (A) (A)
                 (A) (A) (A) (A) (A) (A) (A) (A) (A) (A) (A) (A)
                 (A) (A) (A) (A) (A) (A) (A) (A) (A) (A) (A) (A)
                 (A) (A) (A) (A) (A) (A) (A) (A) (A) (A) (A) (A)
                 (A) (A) (A) (A) (A) (A) (A) (A) (A) (A) (A) (A)
                 (A) (A) (A) (A) (A) (A) (A) (A) (A) (A) (A) (A)
                 (A) (A) (A) (A) (A) (A) (A) (A) (A) (A) (A) (A)
                 (A) (A) (A) (A) (A) (A) (A) (A) (A) (A) (A) (A)
                 (A) (A) (A) (A) (A) (A) (A) (A) (A) (A) (A) (A)
                 (A) (A) (A) (A) (A) (A) (A) (A) (A) (A) (A) (A)
                 (A) (A) (A) (A) (A) (A) (A) (A) (A) (A) (A) (A)
                 (A) (A) (A) (A) (A) (A) (A) (A) (A) (A) (A) (A)
                 (A) (A) (A) (A) (A) (A) (A) (A) (A) (A) (A) (A)
                 (A) (A) (A) (A) (A) (A) (A) (A) (A) (A) (A) (A)
                 (A) (A) (A) (A) (A) (A) (A) (A) (A) (A) (A) (A)
                 (A) (A) (A) (A) (A) (A) (A) (A) (A) (A) (A) (A)
                 (A) (A) (A) (A) (A) (A) (A) (A) (A) (A) (A) (A)
                 (A) (A) (A) (A) (A) (A) (A) (A) (A) (A) (A) (A)
                 (A) (A) (A) (A) (A) (A) (A) (A) (A) (A) (A) (A)
                 (A) (A) (A) (A) (A) (A) (A) (A) (A) (A) (A) (A)
                 (A) (A) (A) (A) (A) (A) (A) (A) (A) (A) (A) (A)
                 (A) (A) (A) (A) (A) (A) (A) (A) (A) (A) (A) (A)
                 (A) (A) (A) (A) (A) (A) (A) (A) (A) (A) (A) (A)
                 (A) (A) (A) (A) (A) (A) (A) (A) (A) (A) (A) (A)
                 (A) (A) (A) (A) (A) (A) (A) (A) (A) (A) (A) (A)
                 (A) (A) (A) (A) (A) (A) (A) (A) (A) (A) (A) (A)
                 (A) (A) (A) (A) (A) (A) (A) (A) (A) (A) (A) (A)
                 (A) (A) (A) (A) (A) (A) (A) (A) (A) (A) (A) (A)
                 (A) (A) (A) (A) (A) (A) (A) (A) (A) (A) (A) (A)
                 (A) (A) (A) (A) (A) (A) (A) (A) (A) (A) (A) (A)
                 (A) (A) (A) (A) (A) (A) (A) (A) (A) (A) (A) (A)
                 (A) (A) (A) (A) (A) (A) (A) (A) (A) (A) (A) (A)
                 (A) (A) (A) (A) (A) (A) (A) (A) (A) (A) (A) (A)
                 (A) (A) (A) (A) (A) (A) (A) (A) (A) (A) (A)
 The electronic state is 1-A.
 Alpha  occ. eigenvalues --  -88.40479 -88.35734 -14.36244 -14.36238 -10.29946
 Alpha  occ. eigenvalues --  -10.29909 -10.26028 -10.23601 -10.23579 -10.23110
 Alpha  occ. eigenvalues --  -10.23073 -10.21466 -10.21018 -10.20764 -10.20268
 Alpha  occ. eigenvalues --  -10.19742 -10.19044 -10.18630 -10.17115 -10.16403
 Alpha  occ. eigenvalues --  -10.16194 -10.15964 -10.14805  -7.99716  -7.95140
 Alpha  occ. eigenvalues --   -6.01553  -6.01091  -6.00627  -5.97088  -5.96621
 Alpha  occ. eigenvalues --   -5.95773  -1.24221  -1.21371  -1.15745  -1.08795
 Alpha  occ. eigenvalues --   -1.08082  -1.00986  -0.98770  -0.98471  -0.97716
 Alpha  occ. eigenvalues --   -0.97638  -0.96590  -0.95996  -0.94499  -0.92341
 Alpha  occ. eigenvalues --   -0.89777  -0.85031  -0.81989  -0.80889  -0.79145
 Alpha  occ. eigenvalues --   -0.78781  -0.78141  -0.76137  -0.73952  -0.73205
 Alpha  occ. eigenvalues --   -0.72503  -0.71659  -0.70770  -0.68237  -0.67116
 Alpha  occ. eigenvalues --   -0.66920  -0.65785  -0.65722  -0.65016  -0.64728
 Alpha  occ. eigenvalues --   -0.63927  -0.63802  -0.63732  -0.63024  -0.62730
 Alpha  occ. eigenvalues --   -0.61725  -0.61508  -0.61344  -0.60485  -0.59203
 Alpha  occ. eigenvalues --   -0.59123  -0.58148  -0.57617  -0.55207  -0.53469
 Alpha  occ. eigenvalues --   -0.53221  -0.52421  -0.51670  -0.48798  -0.46167
 Alpha  occ. eigenvalues --   -0.45164  -0.43549  -0.42596  -0.42313  -0.38861
 Alpha virt. eigenvalues --   -0.09476  -0.07819  -0.04518  -0.02991  -0.02722
 Alpha virt. eigenvalues --   -0.02277  -0.01732  -0.00811   0.00997   0.01650
 Alpha virt. eigenvalues --    0.02214   0.02514   0.02976   0.03981   0.04257
 Alpha virt. eigenvalues --    0.05005   0.06174   0.06334   0.06616   0.06847
 Alpha virt. eigenvalues --    0.07238   0.07713   0.08000   0.08196   0.08379
 Alpha virt. eigenvalues --    0.08441   0.09513   0.09745   0.10250   0.10318
 Alpha virt. eigenvalues --    0.11529   0.12067   0.12202   0.12714   0.12925
 Alpha virt. eigenvalues --    0.13753   0.13861   0.14743   0.15167   0.15463
 Alpha virt. eigenvalues --    0.15938   0.16302   0.16739   0.17243   0.17322
 Alpha virt. eigenvalues --    0.17955   0.19372   0.19943   0.20363   0.20925
 Alpha virt. eigenvalues --    0.21142   0.21284   0.21809   0.22380   0.22690
 Alpha virt. eigenvalues --    0.23432   0.23978   0.24018   0.24923   0.25031
 Alpha virt. eigenvalues --    0.25741   0.26061   0.26223   0.26540   0.26761
 Alpha virt. eigenvalues --    0.26838   0.27106   0.27645   0.27830   0.28492
 Alpha virt. eigenvalues --    0.28815   0.28953   0.29150   0.30252   0.30676
 Alpha virt. eigenvalues --    0.30748   0.31513   0.32101   0.32540   0.33459
 Alpha virt. eigenvalues --    0.33760   0.34470   0.34504   0.34920   0.35479
 Alpha virt. eigenvalues --    0.36071   0.36608   0.37097   0.37445   0.37611
 Alpha virt. eigenvalues --    0.38165   0.39006   0.39360   0.39777   0.40230
 Alpha virt. eigenvalues --    0.40341   0.40477   0.40904   0.41353   0.41609
 Alpha virt. eigenvalues --    0.41809   0.42192   0.42578   0.42834   0.43126
 Alpha virt. eigenvalues --    0.43390   0.43805   0.43879   0.44495   0.44659
 Alpha virt. eigenvalues --    0.45405   0.45548   0.46052   0.46559   0.46794
 Alpha virt. eigenvalues --    0.47141   0.48257   0.48387   0.48611   0.49553
 Alpha virt. eigenvalues --    0.49699   0.49921   0.50362   0.50708   0.51463
 Alpha virt. eigenvalues --    0.51898   0.52160   0.52699   0.53098   0.53974
 Alpha virt. eigenvalues --    0.54796   0.55193   0.55683   0.56155   0.56649
 Alpha virt. eigenvalues --    0.57515   0.59238   0.59898   0.60331   0.60554
 Alpha virt. eigenvalues --    0.60962   0.62097   0.63244   0.63406   0.64161
 Alpha virt. eigenvalues --    0.64854   0.66329   0.67089   0.67951   0.68427
 Alpha virt. eigenvalues --    0.69080   0.69738   0.70384   0.70601   0.70924
 Alpha virt. eigenvalues --    0.71273   0.72750   0.73968   0.75548   0.75976
 Alpha virt. eigenvalues --    0.77012   0.77926   0.79896   0.80492   0.81472
 Alpha virt. eigenvalues --    0.81613   0.84179   0.85549   0.87720   0.88475
 Alpha virt. eigenvalues --    0.89641   0.90883   0.93017   0.93839   0.95122
 Alpha virt. eigenvalues --    0.97589   1.07353   1.10512   1.10870   1.14757
 Alpha virt. eigenvalues --    1.17435   1.18297   1.19218   1.19280   1.21028
 Alpha virt. eigenvalues --    1.21461   1.22524   1.22850   1.23523   1.23963
 Alpha virt. eigenvalues --    1.25287   1.25406   1.26143   1.26868   1.27388
 Alpha virt. eigenvalues --    1.28490   1.28659   1.29313   1.29806   1.30067
 Alpha virt. eigenvalues --    1.30128   1.31103   1.31231   1.31986   1.32068
 Alpha virt. eigenvalues --    1.32513   1.33675   1.33804   1.34087   1.34605
 Alpha virt. eigenvalues --    1.35689   1.36010   1.36859   1.37646   1.38624
 Alpha virt. eigenvalues --    1.39246   1.40374   1.40884   1.41214   1.41551
 Alpha virt. eigenvalues --    1.42176   1.42723   1.43292   1.43412   1.43805
 Alpha virt. eigenvalues --    1.44128   1.44929   1.45081   1.45478   1.45672
 Alpha virt. eigenvalues --    1.45923   1.46599   1.46815   1.48032   1.48671
 Alpha virt. eigenvalues --    1.49098   1.49374   1.49622   1.50075   1.50405
 Alpha virt. eigenvalues --    1.50926   1.51535   1.51779   1.52018   1.52481
 Alpha virt. eigenvalues --    1.52928   1.52931   1.53925   1.54273   1.54765
 Alpha virt. eigenvalues --    1.55519   1.56184   1.56440   1.58199   1.58498
 Alpha virt. eigenvalues --    1.59095   1.59660   1.61023   1.61538   1.61575
 Alpha virt. eigenvalues --    1.61918   1.62388   1.63577   1.64702   1.65521
 Alpha virt. eigenvalues --    1.65638   1.66140   1.66600   1.67976   1.68349
 Alpha virt. eigenvalues --    1.69222   1.69992   1.70961   1.71618   1.72448
 Alpha virt. eigenvalues --    1.72651   1.73182   1.73605   1.73737   1.74459
 Alpha virt. eigenvalues --    1.74848   1.75044   1.75581   1.75949   1.76439
 Alpha virt. eigenvalues --    1.76623   1.77237   1.77835   1.78436   1.78595
 Alpha virt. eigenvalues --    1.79201   1.79499   1.80651   1.80897   1.81223
 Alpha virt. eigenvalues --    1.82260   1.83323   1.83375   1.84189   1.85591
 Alpha virt. eigenvalues --    1.86508   1.87482   1.88012   1.89043   1.89851
 Alpha virt. eigenvalues --    1.90312   1.90922   1.92013   1.92845   1.94735
 Alpha virt. eigenvalues --    1.95817   1.97044   1.97675   1.97821   1.98657
 Alpha virt. eigenvalues --    1.98834   1.98906   1.99802   2.01757   2.01974
 Alpha virt. eigenvalues --    2.02920   2.03667   2.05802   2.06228   2.06935
 Alpha virt. eigenvalues --    2.07135   2.09751   2.11600   2.12216   2.13845
 Alpha virt. eigenvalues --    2.14268   2.15649   2.16541   2.17493   2.18043
 Alpha virt. eigenvalues --    2.18439   2.21364   2.23209   2.24145   2.24329
 Alpha virt. eigenvalues --    2.25240   2.25814   2.25854   2.26137   2.27089
 Alpha virt. eigenvalues --    2.28470   2.28604   2.29274   2.29474   2.29745
 Alpha virt. eigenvalues --    2.30252   2.31393   2.31835   2.32204   2.32836
 Alpha virt. eigenvalues --    2.32953   2.33568   2.33837   2.34265   2.34775
 Alpha virt. eigenvalues --    2.34789   2.36207   2.38364   2.39504   2.40056
 Alpha virt. eigenvalues --    2.40785   2.41884   2.44685   2.46751   2.47001
 Alpha virt. eigenvalues --    2.47407   2.48264   2.48371   2.49724   2.50817
 Alpha virt. eigenvalues --    2.51209   2.51439   2.52886   2.53583   2.53868
 Alpha virt. eigenvalues --    2.53940   2.54939   2.55377   2.55947   2.57865
 Alpha virt. eigenvalues --    2.59547   2.60063   2.60613   2.61453   2.62173
 Alpha virt. eigenvalues --    2.62839   2.63024   2.63830   2.64685   2.65826
 Alpha virt. eigenvalues --    2.68050   2.68276   2.68807   2.69163   2.69728
 Alpha virt. eigenvalues --    2.70625   2.71164   2.72601   2.73086   2.75132
 Alpha virt. eigenvalues --    2.77660   2.79267   2.80352   2.80865   2.81250
 Alpha virt. eigenvalues --    2.81960   2.83866   2.89393   2.93742   2.96516
 Alpha virt. eigenvalues --    2.97568   3.01374   3.03724   3.05185   3.06680
 Alpha virt. eigenvalues --    3.07718   3.08610   3.09074   3.10469   3.10951
 Alpha virt. eigenvalues --    3.11548   3.11911   3.12419   3.14407   3.15305
 Alpha virt. eigenvalues --    3.16945   3.19778   3.20561   3.22431   3.24824
 Alpha virt. eigenvalues --    3.25257   3.25455   3.26018   3.26268   3.27596
 Alpha virt. eigenvalues --    3.29967   3.32244   3.32805   3.35002   3.38491
 Alpha virt. eigenvalues --    3.39829   3.40223   3.41636   3.52812   3.57327
 Alpha virt. eigenvalues --    3.57947   3.67166   3.67459   3.74479   3.75569
 Alpha virt. eigenvalues --    3.92676  18.65349  18.96574  21.09636  21.19393
 Alpha virt. eigenvalues --   21.45303  21.53999  21.59838  21.65513  21.69923
 Alpha virt. eigenvalues --   21.72254  21.73864  21.81401  21.88289  21.89584
 Alpha virt. eigenvalues --   21.91570  21.92042  21.92409  22.06265  22.07784
 Alpha virt. eigenvalues --   22.10846  22.11849  31.60684  31.75630
          Condensed to atoms (all electrons):
               1          2          3          4          5          6
     1  C    5.320623   0.223610  -0.108889  -0.015413  -0.001700   0.001525
     2  C    0.223610   5.891775   0.498994  -0.270472  -0.005487   0.011234
     3  S   -0.108889   0.498994  15.530659  -0.203403  -0.007440  -0.000172
     4  C   -0.015413  -0.270472  -0.203403   6.350700  -0.021731  -0.045725
     5  C   -0.001700  -0.005487  -0.007440  -0.021731   5.856851   0.333149
     6  C    0.001525   0.011234  -0.000172  -0.045725   0.333149   5.430258
     7  C    0.362375   0.079080   0.013771  -0.207599  -0.000709   0.000393
     8  C   -0.159263   0.118441   0.027971   0.011074   0.000884   0.003556
     9  H    0.000120   0.018938   0.001815  -0.038092  -0.004776  -0.009920
    10  C   -0.000160   0.002797   0.005758  -0.020757  -0.062357  -0.091470
    11  C   -0.000186  -0.001542  -0.000258   0.012235   0.048529   0.451993
    12  C    0.000111   0.001142   0.000204  -0.004137  -0.263322   0.040825
    13  C   -0.000041  -0.002009  -0.001047   0.003131   0.173600  -0.084526
    14  H    0.000019   0.000070   0.000563  -0.000719   0.015176   0.005716
    15  H   -0.000001  -0.000094  -0.000002   0.000357   0.023660  -0.040470
    16  H    0.000000   0.000004   0.000001  -0.000019   0.000907   0.008196
    17  C    0.064761  -0.146699  -0.006099   0.124588   0.003236  -0.011518
    18  H    0.403986  -0.060548  -0.002135   0.034584  -0.000009  -0.000008
    19  H   -0.000625  -0.026582   0.326162  -0.008613  -0.000033   0.000023
    20  H   -0.052163   0.016661  -0.000127  -0.002852  -0.000004  -0.000010
    21  H   -0.000835   0.016006   0.000087  -0.066811  -0.001769   0.009085
    22  H    0.012411  -0.002571  -0.000007   0.018199  -0.000063  -0.000330
    23  S    0.011446  -0.114076   0.000521   0.345620   0.097839  -0.137973
    24  C   -0.000006  -0.000337  -0.000119   0.000269   0.001162   0.029175
    25  C   -0.000000  -0.000003  -0.000005   0.000005  -0.017062  -0.001638
    26  C    0.000000  -0.000012  -0.000018   0.000007   0.022535   0.002087
    27  N   -0.000000  -0.000000  -0.000000   0.000000  -0.000065   0.000033
    28  N    0.000000  -0.000000   0.000002  -0.000000  -0.000046   0.000020
    29  C   -0.000000   0.000000  -0.000000  -0.000000  -0.000111   0.000057
    30  H    0.000000  -0.000000   0.000000   0.000000   0.000006   0.000001
    31  H    0.000000  -0.000000   0.000000   0.000000   0.000042   0.000034
    32  H   -0.000000  -0.000000   0.000000  -0.000000  -0.000003  -0.000000
    33  C   -0.000000  -0.000000  -0.000000   0.000000  -0.000014  -0.000000
    34  H    0.000000  -0.000000   0.000000   0.000000   0.000000   0.000000
    35  H   -0.000000   0.000000  -0.000000  -0.000000  -0.000000  -0.000000
    36  H   -0.000000   0.000000  -0.000000  -0.000000  -0.000000   0.000000
    37  C   -0.000000   0.000001  -0.000188   0.000008  -0.000137   0.000037
    38  H   -0.000000  -0.000000   0.000006  -0.000000  -0.000118  -0.000006
    39  H    0.000003  -0.000005   0.000545  -0.000021  -0.000676  -0.000009
    40  H    0.000000  -0.000000   0.000009   0.000000   0.000073   0.000003
    41  C    0.000000  -0.000000  -0.000000  -0.000000   0.000024   0.000001
    42  H   -0.000000   0.000000  -0.000000  -0.000000  -0.000002  -0.000000
    43  H    0.000000  -0.000000   0.000000   0.000000   0.000001   0.000000
    44  H    0.000000   0.000000   0.000000   0.000000   0.000002   0.000000
               7          8          9         10         11         12
     1  C    0.362375  -0.159263   0.000120  -0.000160  -0.000186   0.000111
     2  C    0.079080   0.118441   0.018938   0.002797  -0.001542   0.001142
     3  S    0.013771   0.027971   0.001815   0.005758  -0.000258   0.000204
     4  C   -0.207599   0.011074  -0.038092  -0.020757   0.012235  -0.004137
     5  C   -0.000709   0.000884  -0.004776  -0.062357   0.048529  -0.263322
     6  C    0.000393   0.003556  -0.009920  -0.091470   0.451993   0.040825
     7  C    5.025921   0.064661   0.000022   0.000150  -0.000694   0.000040
     8  C    0.064661   5.376451  -0.012209   0.010993   0.000465   0.000504
     9  H    0.000022  -0.012209   0.570369  -0.001106  -0.000770   0.000252
    10  C    0.000150   0.010993  -0.001106   5.836349  -0.080189  -0.031253
    11  C   -0.000694   0.000465  -0.000770  -0.080189   5.088110   0.235419
    12  C    0.000040   0.000504   0.000252  -0.031253   0.235419   5.672949
    13  C   -0.000026  -0.001029  -0.001073   0.251681   0.041187   0.355769
    14  H   -0.000001   0.000053   0.000132   0.354580  -0.001203   0.003126
    15  H   -0.000030  -0.000073  -0.000001  -0.000897   0.415402  -0.101086
    16  H    0.000000   0.000002   0.000002   0.006552  -0.005171   0.397411
    17  C    0.420604   0.273948   0.000767  -0.000334  -0.001231  -0.000055
    18  H   -0.046800  -0.004773   0.000001  -0.000003   0.000003  -0.000001
    19  H   -0.001128   0.000469  -0.000044   0.000061   0.000000   0.000001
    20  H    0.418988   0.014704   0.000000   0.000001  -0.000001  -0.000000
    21  H    0.008209   0.402542  -0.000234   0.000721  -0.000527   0.000315
    22  H   -0.044189  -0.047742  -0.000002  -0.000013  -0.000011  -0.000003
    23  S   -0.001176  -0.082888   0.334609   0.021057  -0.005869  -0.009041
    24  C   -0.000002  -0.000025  -0.000110  -0.076457   0.053656  -0.207933
    25  C    0.000000   0.000002  -0.000004   0.056762   0.015208  -0.055299
    26  C   -0.000000  -0.000006   0.000001  -0.069420  -0.001758   0.028462
    27  N    0.000000   0.000000  -0.000000   0.000246   0.000269   0.001002
    28  N    0.000000  -0.000000  -0.000000   0.001402   0.000026  -0.000007
    29  C    0.000000   0.000000  -0.000000   0.000190  -0.000177  -0.002631
    30  H   -0.000000  -0.000000  -0.000000  -0.000033  -0.000071   0.000187
    31  H   -0.000000  -0.000000   0.000000  -0.000202  -0.000557   0.003622
    32  H    0.000000   0.000000   0.000000   0.000024   0.000047  -0.000090
    33  C    0.000000   0.000000  -0.000000   0.000085   0.000015  -0.000029
    34  H   -0.000000  -0.000000  -0.000000  -0.000002  -0.000001   0.000005
    35  H    0.000000   0.000000   0.000000   0.000000   0.000001  -0.000014
    36  H    0.000000  -0.000000   0.000000   0.000008   0.000001   0.000011
    37  C   -0.000000  -0.000000  -0.000001  -0.002545  -0.000027  -0.000030
    38  H    0.000000   0.000000   0.000000   0.000243   0.000005  -0.000029
    39  H    0.000000   0.000000   0.000003   0.004282   0.000018   0.000011
    40  H   -0.000000  -0.000000   0.000000  -0.000132  -0.000004   0.000019
    41  C   -0.000000  -0.000000   0.000000  -0.000026  -0.000003   0.000064
    42  H    0.000000   0.000000   0.000000   0.000003   0.000000  -0.000001
    43  H   -0.000000  -0.000000  -0.000000  -0.000014  -0.000000  -0.000000
    44  H   -0.000000  -0.000000  -0.000000   0.000009  -0.000001   0.000009
              13         14         15         16         17         18
     1  C   -0.000041   0.000019  -0.000001   0.000000   0.064761   0.403986
     2  C   -0.002009   0.000070  -0.000094   0.000004  -0.146699  -0.060548
     3  S   -0.001047   0.000563  -0.000002   0.000001  -0.006099  -0.002135
     4  C    0.003131  -0.000719   0.000357  -0.000019   0.124588   0.034584
     5  C    0.173600   0.015176   0.023660   0.000907   0.003236  -0.000009
     6  C   -0.084526   0.005716  -0.040470   0.008196  -0.011518  -0.000008
     7  C   -0.000026  -0.000001  -0.000030   0.000000   0.420604  -0.046800
     8  C   -0.001029   0.000053  -0.000073   0.000002   0.273948  -0.004773
     9  H   -0.001073   0.000132  -0.000001   0.000002   0.000767   0.000001
    10  C    0.251681   0.354580  -0.000897   0.006552  -0.000334  -0.000003
    11  C    0.041187  -0.001203   0.415402  -0.005171  -0.001231   0.000003
    12  C    0.355769   0.003126  -0.101086   0.397411  -0.000055  -0.000001
    13  C    6.979081  -0.069353   0.017611  -0.087324   0.000126   0.000001
    14  H   -0.069353   0.486628   0.000022  -0.000087   0.000008   0.000000
    15  H    0.017611   0.000022   0.540650  -0.002758   0.000081   0.000000
    16  H   -0.087324  -0.000087  -0.002758   0.511329   0.000001  -0.000000
    17  C    0.000126   0.000008   0.000081   0.000001   5.040789   0.011752
    18  H    0.000001   0.000000   0.000000  -0.000000   0.011752   0.505738
    19  H    0.000001  -0.000008  -0.000000  -0.000000   0.000170  -0.000016
    20  H   -0.000000  -0.000000  -0.000000  -0.000000  -0.047496  -0.004913
    21  H   -0.000254  -0.000004  -0.000113   0.000000  -0.008382  -0.000038
    22  H    0.000002   0.000000   0.000008   0.000000   0.414022  -0.000086
    23  S    0.007650   0.009333   0.000363   0.000019   0.019038  -0.000217
    24  C   -0.603613   0.017106   0.003208   0.004762   0.000014   0.000000
    25  C   -0.496749   0.005287   0.000317   0.002706  -0.000000   0.000000
    26  C   -0.435266   0.005600   0.000108   0.004673   0.000000   0.000000
    27  N   -0.028033   0.000046   0.000007   0.000398   0.000000   0.000000
    28  N   -0.025559   0.000726   0.000000   0.000024   0.000000   0.000000
    29  C   -0.012864   0.000003  -0.000031  -0.001510  -0.000000  -0.000000
    30  H   -0.000225   0.000000   0.000000  -0.000212   0.000000   0.000000
    31  H   -0.017752  -0.000008   0.000005  -0.001336   0.000000   0.000000
    32  H    0.000673   0.000000   0.000001   0.000301  -0.000000  -0.000000
    33  C   -0.003044   0.000004   0.000000   0.000010  -0.000000  -0.000000
    34  H    0.000004  -0.000000  -0.000000   0.000006   0.000000   0.000000
    35  H    0.000078  -0.000000   0.000000   0.000001  -0.000000  -0.000000
    36  H   -0.000143  -0.000001  -0.000000   0.000001  -0.000000  -0.000000
    37  C   -0.013822  -0.001378  -0.000000  -0.000008   0.000000   0.000000
    38  H   -0.000434  -0.000110   0.000000   0.000000  -0.000000  -0.000000
    39  H   -0.017781  -0.000489  -0.000000  -0.000002  -0.000000   0.000000
    40  H    0.000906   0.000254   0.000000   0.000000   0.000000   0.000000
    41  C   -0.003163   0.000022   0.000000   0.000003   0.000000   0.000000
    42  H   -0.000022   0.000005   0.000000  -0.000000  -0.000000  -0.000000
    43  H    0.000127   0.000001  -0.000000  -0.000000   0.000000   0.000000
    44  H   -0.000115   0.000001  -0.000000  -0.000001   0.000000   0.000000
              19         20         21         22         23         24
     1  C   -0.000625  -0.052163  -0.000835   0.012411   0.011446  -0.000006
     2  C   -0.026582   0.016661   0.016006  -0.002571  -0.114076  -0.000337
     3  S    0.326162  -0.000127   0.000087  -0.000007   0.000521  -0.000119
     4  C   -0.008613  -0.002852  -0.066811   0.018199   0.345620   0.000269
     5  C   -0.000033  -0.000004  -0.001769  -0.000063   0.097839   0.001162
     6  C    0.000023  -0.000010   0.009085  -0.000330  -0.137973   0.029175
     7  C   -0.001128   0.418988   0.008209  -0.044189  -0.001176  -0.000002
     8  C    0.000469   0.014704   0.402542  -0.047742  -0.082888  -0.000025
     9  H   -0.000044   0.000000  -0.000234  -0.000002   0.334609  -0.000110
    10  C    0.000061   0.000001   0.000721  -0.000013   0.021057  -0.076457
    11  C    0.000000  -0.000001  -0.000527  -0.000011  -0.005869   0.053656
    12  C    0.000001  -0.000000   0.000315  -0.000003  -0.009041  -0.207933
    13  C    0.000001  -0.000000  -0.000254   0.000002   0.007650  -0.603613
    14  H   -0.000008  -0.000000  -0.000004   0.000000   0.009333   0.017106
    15  H   -0.000000  -0.000000  -0.000113   0.000008   0.000363   0.003208
    16  H   -0.000000  -0.000000   0.000000   0.000000   0.000019   0.004762
    17  C    0.000170  -0.047496  -0.008382   0.414022   0.019038   0.000014
    18  H   -0.000016  -0.004913  -0.000038  -0.000086  -0.000217   0.000000
    19  H    0.584089   0.000003   0.000017  -0.000001   0.002342  -0.000001
    20  H    0.000003   0.511412  -0.000168  -0.005627   0.000017   0.000000
    21  H    0.000017  -0.000168   0.506179  -0.004850  -0.012695  -0.000020
    22  H   -0.000001  -0.005627  -0.004850   0.512977  -0.000183   0.000000
    23  S    0.002342   0.000017  -0.012695  -0.000183  15.389555   0.009793
    24  C   -0.000001   0.000000  -0.000020   0.000000   0.009793   7.425935
    25  C    0.000000   0.000000   0.000000  -0.000000   0.000206  -0.017722
    26  C    0.000000  -0.000000  -0.000000   0.000000   0.000299   0.086801
    27  N   -0.000000   0.000000  -0.000000   0.000000   0.000000  -0.158764
    28  N   -0.000000   0.000000  -0.000000   0.000000   0.000012  -0.148413
    29  C    0.000000   0.000000   0.000000  -0.000000  -0.000000  -0.006593
    30  H   -0.000000  -0.000000  -0.000000   0.000000   0.000000   0.005815
    31  H   -0.000000  -0.000000  -0.000000   0.000000   0.000001   0.008226
    32  H   -0.000000   0.000000   0.000000  -0.000000   0.000000  -0.003231
    33  C    0.000000   0.000000   0.000000  -0.000000   0.000000  -0.016939
    34  H    0.000000  -0.000000  -0.000000   0.000000  -0.000000   0.001220
    35  H   -0.000000   0.000000   0.000000  -0.000000   0.000000  -0.002660
    36  H   -0.000000   0.000000   0.000000  -0.000000  -0.000000   0.008424
    37  C    0.000003  -0.000000   0.000000   0.000000  -0.000067  -0.004922
    38  H   -0.000000   0.000000   0.000000  -0.000000   0.000008   0.005364
    39  H   -0.000008   0.000000  -0.000000  -0.000000   0.000144   0.006163
    40  H   -0.000000  -0.000000  -0.000000   0.000000   0.000001  -0.002993
    41  C    0.000000  -0.000000  -0.000000   0.000000   0.000000  -0.015867
    42  H    0.000000   0.000000   0.000000  -0.000000  -0.000000   0.000889
    43  H   -0.000000  -0.000000  -0.000000   0.000000   0.000000  -0.002126
    44  H    0.000000  -0.000000  -0.000000   0.000000  -0.000000   0.008142
              25         26         27         28         29         30
     1  C   -0.000000   0.000000  -0.000000   0.000000  -0.000000   0.000000
     2  C   -0.000003  -0.000012  -0.000000  -0.000000   0.000000  -0.000000
     3  S   -0.000005  -0.000018  -0.000000   0.000002  -0.000000   0.000000
     4  C    0.000005   0.000007   0.000000  -0.000000  -0.000000   0.000000
     5  C   -0.017062   0.022535  -0.000065  -0.000046  -0.000111   0.000006
     6  C   -0.001638   0.002087   0.000033   0.000020   0.000057   0.000001
     7  C    0.000000  -0.000000   0.000000   0.000000   0.000000  -0.000000
     8  C    0.000002  -0.000006   0.000000  -0.000000   0.000000  -0.000000
     9  H   -0.000004   0.000001  -0.000000  -0.000000  -0.000000  -0.000000
    10  C    0.056762  -0.069420   0.000246   0.001402   0.000190  -0.000033
    11  C    0.015208  -0.001758   0.000269   0.000026  -0.000177  -0.000071
    12  C   -0.055299   0.028462   0.001002  -0.000007  -0.002631   0.000187
    13  C   -0.496749  -0.435266  -0.028033  -0.025559  -0.012864  -0.000225
    14  H    0.005287   0.005600   0.000046   0.000726   0.000003   0.000000
    15  H    0.000317   0.000108   0.000007   0.000000  -0.000031   0.000000
    16  H    0.002706   0.004673   0.000398   0.000024  -0.001510  -0.000212
    17  C   -0.000000   0.000000   0.000000   0.000000  -0.000000   0.000000
    18  H    0.000000   0.000000   0.000000   0.000000  -0.000000   0.000000
    19  H    0.000000   0.000000  -0.000000  -0.000000   0.000000  -0.000000
    20  H    0.000000  -0.000000   0.000000   0.000000   0.000000  -0.000000
    21  H    0.000000  -0.000000  -0.000000  -0.000000   0.000000  -0.000000
    22  H   -0.000000   0.000000   0.000000   0.000000  -0.000000   0.000000
    23  S    0.000206   0.000299   0.000000   0.000012  -0.000000   0.000000
    24  C   -0.017722   0.086801  -0.158764  -0.148413  -0.006593   0.005815
    25  C    6.305792  -0.234764   0.573408  -0.083155  -0.038471  -0.002758
    26  C   -0.234764   6.186701  -0.085485   0.560561  -0.003746  -0.001825
    27  N    0.573408  -0.085485   6.486924   0.000331   0.209503  -0.034152
    28  N   -0.083155   0.560561   0.000331   6.488262  -0.000620   0.000001
    29  C   -0.038471  -0.003746   0.209503  -0.000620   4.925486   0.413749
    30  H   -0.002758  -0.001825  -0.034152   0.000001   0.413749   0.503394
    31  H   -0.016443   0.020385  -0.028678   0.000090   0.395968  -0.016861
    32  H    0.005209  -0.000770  -0.040880  -0.000002   0.413905  -0.030087
    33  C   -0.052085  -0.008442   0.225722  -0.000130  -0.055732  -0.010102
    34  H    0.007849  -0.001257  -0.038545  -0.000005  -0.001911   0.004496
    35  H   -0.004285   0.003297  -0.037454  -0.000045  -0.006652  -0.000542
    36  H   -0.010863  -0.003416  -0.027810  -0.001798   0.009058  -0.000160
    37  C   -0.000458  -0.043040  -0.000581   0.208093  -0.000003  -0.000002
    38  H   -0.001918  -0.002399   0.000001  -0.033780  -0.000002  -0.000000
    39  H    0.018882  -0.013185   0.000073  -0.028787   0.000009  -0.000000
    40  H   -0.000930   0.005315  -0.000004  -0.041409   0.000000   0.000000
    41  C   -0.006758  -0.053998  -0.000131   0.225165  -0.000144   0.000002
    42  H   -0.001189   0.008000  -0.000001  -0.037900  -0.000001  -0.000000
    43  H    0.003273  -0.004276  -0.000058  -0.038277   0.000009   0.000000
    44  H   -0.004113  -0.011106  -0.001737  -0.027074  -0.000039   0.000005
              31         32         33         34         35         36
     1  C    0.000000  -0.000000  -0.000000   0.000000  -0.000000  -0.000000
     2  C   -0.000000  -0.000000  -0.000000  -0.000000   0.000000   0.000000
     3  S    0.000000   0.000000  -0.000000   0.000000  -0.000000  -0.000000
     4  C    0.000000  -0.000000   0.000000   0.000000  -0.000000  -0.000000
     5  C    0.000042  -0.000003  -0.000014   0.000000  -0.000000  -0.000000
     6  C    0.000034  -0.000000  -0.000000   0.000000  -0.000000   0.000000
     7  C   -0.000000   0.000000   0.000000  -0.000000   0.000000   0.000000
     8  C   -0.000000   0.000000   0.000000  -0.000000   0.000000  -0.000000
     9  H    0.000000   0.000000  -0.000000  -0.000000   0.000000   0.000000
    10  C   -0.000202   0.000024   0.000085  -0.000002   0.000000   0.000008
    11  C   -0.000557   0.000047   0.000015  -0.000001   0.000001   0.000001
    12  C    0.003622  -0.000090  -0.000029   0.000005  -0.000014   0.000011
    13  C   -0.017752   0.000673  -0.003044   0.000004   0.000078  -0.000143
    14  H   -0.000008   0.000000   0.000004  -0.000000  -0.000000  -0.000001
    15  H    0.000005   0.000001   0.000000  -0.000000   0.000000  -0.000000
    16  H   -0.001336   0.000301   0.000010   0.000006   0.000001   0.000001
    17  C    0.000000  -0.000000  -0.000000   0.000000  -0.000000  -0.000000
    18  H    0.000000  -0.000000  -0.000000   0.000000  -0.000000  -0.000000
    19  H   -0.000000  -0.000000   0.000000   0.000000  -0.000000  -0.000000
    20  H   -0.000000   0.000000   0.000000  -0.000000   0.000000   0.000000
    21  H   -0.000000   0.000000   0.000000  -0.000000   0.000000   0.000000
    22  H    0.000000  -0.000000  -0.000000   0.000000  -0.000000  -0.000000
    23  S    0.000001   0.000000   0.000000  -0.000000   0.000000  -0.000000
    24  C    0.008226  -0.003231  -0.016939   0.001220  -0.002660   0.008424
    25  C   -0.016443   0.005209  -0.052085   0.007849  -0.004285  -0.010863
    26  C    0.020385  -0.000770  -0.008442  -0.001257   0.003297  -0.003416
    27  N   -0.028678  -0.040880   0.225722  -0.038545  -0.037454  -0.027810
    28  N    0.000090  -0.000002  -0.000130  -0.000005  -0.000045  -0.001798
    29  C    0.395968   0.413905  -0.055732  -0.001911  -0.006652   0.009058
    30  H   -0.016861  -0.030087  -0.010102   0.004496  -0.000542  -0.000160
    31  H    0.515470  -0.021216   0.007770   0.000376  -0.000281  -0.000437
    32  H   -0.021216   0.510068   0.001126  -0.002515   0.003857   0.000133
    33  C    0.007770   0.001126   4.929609   0.406883   0.421827   0.397311
    34  H    0.000376  -0.002515   0.406883   0.506330  -0.027855  -0.020782
    35  H   -0.000281   0.003857   0.421827  -0.027855   0.498469  -0.022025
    36  H   -0.000437   0.000133   0.397311  -0.020782  -0.022025   0.539865
    37  C    0.000009   0.000000  -0.000136  -0.000002   0.000009  -0.000030
    38  H   -0.000000   0.000000   0.000001  -0.000000   0.000000   0.000005
    39  H   -0.000003   0.000000   0.000022  -0.000000   0.000000   0.000009
    40  H    0.000000  -0.000000  -0.000002   0.000000  -0.000000  -0.000005
    41  C    0.000028  -0.000001  -0.003702   0.000121   0.000065  -0.003232
    42  H   -0.000000   0.000000   0.000123  -0.000003   0.000006   0.000306
    43  H    0.000000  -0.000000   0.000056   0.000007  -0.000011  -0.000404
    44  H    0.000009  -0.000004  -0.003491   0.000304  -0.000356   0.001007
              37         38         39         40         41         42
     1  C   -0.000000  -0.000000   0.000003   0.000000   0.000000  -0.000000
     2  C    0.000001  -0.000000  -0.000005  -0.000000  -0.000000   0.000000
     3  S   -0.000188   0.000006   0.000545   0.000009  -0.000000  -0.000000
     4  C    0.000008  -0.000000  -0.000021   0.000000  -0.000000  -0.000000
     5  C   -0.000137  -0.000118  -0.000676   0.000073   0.000024  -0.000002
     6  C    0.000037  -0.000006  -0.000009   0.000003   0.000001  -0.000000
     7  C   -0.000000   0.000000   0.000000  -0.000000  -0.000000   0.000000
     8  C   -0.000000   0.000000   0.000000  -0.000000  -0.000000   0.000000
     9  H   -0.000001   0.000000   0.000003   0.000000   0.000000   0.000000
    10  C   -0.002545   0.000243   0.004282  -0.000132  -0.000026   0.000003
    11  C   -0.000027   0.000005   0.000018  -0.000004  -0.000003   0.000000
    12  C   -0.000030  -0.000029   0.000011   0.000019   0.000064  -0.000001
    13  C   -0.013822  -0.000434  -0.017781   0.000906  -0.003163  -0.000022
    14  H   -0.001378  -0.000110  -0.000489   0.000254   0.000022   0.000005
    15  H   -0.000000   0.000000  -0.000000   0.000000   0.000000   0.000000
    16  H   -0.000008   0.000000  -0.000002   0.000000   0.000003  -0.000000
    17  C    0.000000  -0.000000  -0.000000   0.000000   0.000000  -0.000000
    18  H    0.000000  -0.000000   0.000000   0.000000   0.000000  -0.000000
    19  H    0.000003  -0.000000  -0.000008  -0.000000   0.000000   0.000000
    20  H   -0.000000   0.000000   0.000000  -0.000000  -0.000000   0.000000
    21  H    0.000000   0.000000  -0.000000  -0.000000  -0.000000   0.000000
    22  H    0.000000  -0.000000  -0.000000   0.000000   0.000000  -0.000000
    23  S   -0.000067   0.000008   0.000144   0.000001   0.000000  -0.000000
    24  C   -0.004922   0.005364   0.006163  -0.002993  -0.015867   0.000889
    25  C   -0.000458  -0.001918   0.018882  -0.000930  -0.006758  -0.001189
    26  C   -0.043040  -0.002399  -0.013185   0.005315  -0.053998   0.008000
    27  N   -0.000581   0.000001   0.000073  -0.000004  -0.000131  -0.000001
    28  N    0.208093  -0.033780  -0.028787  -0.041409   0.225165  -0.037900
    29  C   -0.000003  -0.000002   0.000009   0.000000  -0.000144  -0.000001
    30  H   -0.000002  -0.000000  -0.000000   0.000000   0.000002  -0.000000
    31  H    0.000009  -0.000000  -0.000003   0.000000   0.000028  -0.000000
    32  H    0.000000   0.000000   0.000000  -0.000000  -0.000001   0.000000
    33  C   -0.000136   0.000001   0.000022  -0.000002  -0.003702   0.000123
    34  H   -0.000002  -0.000000  -0.000000   0.000000   0.000121  -0.000003
    35  H    0.000009   0.000000   0.000000  -0.000000   0.000065   0.000006
    36  H   -0.000030   0.000005   0.000009  -0.000005  -0.003232   0.000306
    37  C    4.931218   0.413063   0.394365   0.413951  -0.055650  -0.002058
    38  H    0.413063   0.505769  -0.017004  -0.030059  -0.010286   0.004514
    39  H    0.394365  -0.017004   0.514552  -0.020708   0.007853   0.000395
    40  H    0.413951  -0.030059  -0.020708   0.508538   0.001303  -0.002516
    41  C   -0.055650  -0.010286   0.007853   0.001303   4.931004   0.406214
    42  H   -0.002058   0.004514   0.000395  -0.002516   0.406214   0.507094
    43  H   -0.006591  -0.000538  -0.000281   0.003817   0.422059  -0.027680
    44  H    0.008987  -0.000145  -0.000430   0.000116   0.398256  -0.020792
              43         44
     1  C    0.000000   0.000000
     2  C   -0.000000   0.000000
     3  S    0.000000   0.000000
     4  C    0.000000   0.000000
     5  C    0.000001   0.000002
     6  C    0.000000   0.000000
     7  C   -0.000000  -0.000000
     8  C   -0.000000  -0.000000
     9  H   -0.000000  -0.000000
    10  C   -0.000014   0.000009
    11  C   -0.000000  -0.000001
    12  C   -0.000000   0.000009
    13  C    0.000127  -0.000115
    14  H    0.000001   0.000001
    15  H   -0.000000  -0.000000
    16  H   -0.000000  -0.000001
    17  C    0.000000   0.000000
    18  H    0.000000   0.000000
    19  H   -0.000000   0.000000
    20  H   -0.000000  -0.000000
    21  H   -0.000000  -0.000000
    22  H    0.000000   0.000000
    23  S    0.000000  -0.000000
    24  C   -0.002126   0.008142
    25  C    0.003273  -0.004113
    26  C   -0.004276  -0.011106
    27  N   -0.000058  -0.001737
    28  N   -0.038277  -0.027074
    29  C    0.000009  -0.000039
    30  H    0.000000   0.000005
    31  H    0.000000   0.000009
    32  H   -0.000000  -0.000004
    33  C    0.000056  -0.003491
    34  H    0.000007   0.000304
    35  H   -0.000011  -0.000356
    36  H   -0.000404   0.001007
    37  C   -0.006591   0.008987
    38  H   -0.000538  -0.000145
    39  H   -0.000281  -0.000430
    40  H    0.003817   0.000116
    41  C    0.422059   0.398256
    42  H   -0.027680  -0.020792
    43  H    0.497971  -0.022241
    44  H   -0.022241   0.538227
 Mulliken charges:
               1
     1  C   -0.061708
     2  C   -0.248316
     3  S   -0.077160
     4  C    0.005589
     5  C   -0.190042
     6  C    0.096378
     7  C   -0.091859
     8  C    0.001289
     9  H    0.141309
    10  C   -0.116584
    11  C   -0.262340
    12  C   -0.066496
    13  C    0.073638
    14  H    0.168879
    15  H    0.143755
    16  H    0.161118
    17  C   -0.152092
    18  H    0.163483
    19  H    0.123717
    20  H    0.151575
    21  H    0.153539
    22  H    0.148058
    23  S    0.114311
    24  C   -0.407271
    25  C    0.051766
    26  C    0.039357
    27  N   -0.015584
    28  N   -0.017708
    29  C   -0.236699
    30  H    0.169373
    31  H    0.151737
    32  H    0.163455
    33  C   -0.236716
    34  H    0.165277
    35  H    0.174569
    36  H    0.134969
    37  C   -0.238069
    38  H    0.167845
    39  H    0.152060
    40  H    0.164454
    41  C   -0.239224
    42  H    0.164617
    43  H    0.175176
    44  H    0.136572
 Sum of Mulliken charges =   1.00000
 Mulliken charges with hydrogens summed into heavy atoms:
               1
     1  C    0.101775
     2  C   -0.248316
     3  S    0.046558
     4  C    0.005589
     5  C   -0.190042
     6  C    0.096378
     7  C    0.059716
     8  C    0.154828
    10  C    0.052295
    11  C   -0.118584
    12  C    0.094622
    13  C    0.073638
    17  C   -0.004034
    23  S    0.255621
    24  C   -0.407271
    25  C    0.051766
    26  C    0.039357
    27  N   -0.015584
    28  N   -0.017708
    29  C    0.247866
    33  C    0.238099
    37  C    0.246290
    41  C    0.237141
 Electronic spatial extent (au):  <R**2>=          12334.5458
 Charge=              1.0000 electrons
 Dipole moment (field-independent basis, Debye):
    X=            -12.8759    Y=              1.1237    Z=              0.5458  Tot=             12.9364
 Quadrupole moment (field-independent basis, Debye-Ang):
   XX=            -28.1103   YY=           -114.1897   ZZ=           -140.8694
   XY=             -7.1334   XZ=              4.8538   YZ=              3.3884
 Traceless Quadrupole moment (field-independent basis, Debye-Ang):
   XX=             66.2795   YY=            -19.7999   ZZ=            -46.4796
   XY=             -7.1334   XZ=              4.8538   YZ=              3.3884
 Octapole moment (field-independent basis, Debye-Ang**2):
  XXX=           -409.0904  YYY=             36.0341  ZZZ=              9.1269  XYY=            -91.6141
  XXY=            -39.4995  XXZ=            -52.0066  XZZ=             11.0652  YZZ=              1.2221
  YYZ=             -3.1444  XYZ=              1.4232
 Hexadecapole moment (field-independent basis, Debye-Ang**3):
 XXXX=          -9365.9192 YYYY=          -2537.0521 ZZZZ=           -700.4981 XXXY=            -36.2687
 XXXZ=           -103.1800 YYYX=            -95.2240 YYYZ=             64.5413 ZZZX=             20.1150
 ZZZY=            -12.4566 XXYY=          -2010.6253 XXZZ=          -2126.3164 YYZZ=           -595.4247
 XXYZ=             59.9209 YYXZ=             54.7618 ZZXY=            -20.5213
 N-N= 2.022484843669D+03 E-N=-7.878024164575D+03  KE= 1.634061205122D+03
 No NMR shielding tensors so no spin-rotation constants.
 Leave Link  601 at Tue Jan 26 15:38:27 2021, MaxMem=  4026531840 cpu:               3.5 elap:               0.6
 (Enter /opt/ohpc/pub/libs/gaussian/g16-A.03/sandybridge/g16/l9999.exe)

 Test job not archived.
 1\1\GINC-GNODE020\SP\RLC-wHPBE\TZVP\C19H21N2S2(1+)\RDU230\26-Jan-2021\
 0\\#P LC-wHPBE/TZVP iop(3/107=0328100000, 3/108=0328100000) scf=(conve
 r=6,fermi,ndamp=35,noincfock,novaracc,vshift=500,xqc)\\H21 C19 S2 N2\\
 1,1\C,0,5.141333,0.341453,-1.428653\C,0,4.24633,0.793113,-0.45792\S,0,
 3.527427,2.438238,-0.612926\C,0,3.85258,-0.085202,0.570411\C,0,0.86370
 8,-0.787434,0.770822\C,0,1.152588,-1.949541,0.292605\C,0,5.641454,-0.9
 63707,-1.38032\C,0,4.337968,-1.397272,0.611701\H,0,2.805747,-0.536686,
 2.620663\C,0,-0.32759,-0.104924,0.757243\C,0,0.161049,-2.709273,-0.336
 618\C,0,-1.110551,-2.125038,-0.416532\C,0,-1.366563,-0.836811,0.116144
 \H,0,-0.506361,0.876389,1.203135\H,0,0.333628,-3.701573,-0.760587\H,0,
 -1.915541,-2.656529,-0.930176\C,0,5.242141,-1.827604,-0.363151\H,0,5.4
 50891,1.02542,-2.21936\H,0,4.15948,2.9901,0.460876\H,0,6.34791,-1.2988
 86,-2.140548\H,0,4.022912,-2.077842,1.402557\H,0,5.625918,-2.84765,-0.
 32369\S,0,2.641644,0.489998,1.741439\C,0,-2.680648,-0.257498,0.003764\
 C,0,-4.05427,-0.413992,-0.132503\C,0,-3.489875,0.870167,-0.052158\N,0,
 -5.09974,-1.211802,-0.243141\N,0,-3.607387,2.185094,-0.049886\C,0,-4.9
 5887,-2.66296,-0.086881\H,0,-5.24939,-3.175063,-1.01565\H,0,-3.921906,
 -2.911213,0.159186\H,0,-5.607057,-3.011636,0.730112\C,0,-6.456302,-0.7
 08508,-0.463149\H,0,-6.932296,-1.289768,-1.265044\H,0,-7.06234,-0.8046
 38,0.450448\H,0,-6.424137,0.340187,-0.774131\C,0,-2.422516,3.047015,-0
 .104701\H,0,-2.374233,3.683098,0.791036\H,0,-1.518165,2.434104,-0.1685
 34\H,0,-2.472812,3.689712,-0.995626\C,0,-4.905946,2.85982,-0.071613\H,
 0,-4.903422,3.671788,0.668659\H,0,-5.109136,3.28812,-1.064906\H,0,-5.7
 0105,2.156915,0.195603\\Version=EM64L-G16RevA.03\State=1-A\HF=-1641.48
 89849\RMSD=8.600e-07\Dipole=-5.0657882,0.4421031,0.2147527\Quadrupole=
 49.2771738,-14.7207346,-34.5564392,-5.3034776,3.6086533,2.5192129\PG=C
 01 [X(C19H21N2S2)]\\@


 BE LIKE A POSTAGE STAMP.  STICK TO ONE THING UNTIL
 YOU GET THERE -- JOSH BILLINGS
 Job cpu time:       0 days  1 hours 30 minutes 12.3 seconds.
 Elapsed time:       0 days  0 hours 11 minutes 17.8 seconds.
 File lengths (MBytes):  RWF=    156 Int=      0 D2E=      0 Chk=     24 Scr=      8
 Normal termination of Gaussian 16 at Tue Jan 26 15:38:28 2021.
