 Entering Gaussian System, Link 0=g16
 Input=mol_ta_cp_half_tune_n8.gjf
 Output=mol_ta_cp_half_tune_n8.log
 Initial command:
 /opt/ohpc/pub/libs/gaussian/g16-A.03/sandybridge/g16/l1.exe "/mnt/gpfs2_4m/scratch/rdu230/ondemand/projects/init_structures/gaussian/wtuning/mol_ta_cp_half/tuning_mol_ta_cp_half_ocycle0/Gau-12070.inp" -scrdir="/mnt/gpfs2_4m/scratch/rdu230/ondemand/projects/init_structures/gaussian/wtuning/mol_ta_cp_half/tuning_mol_ta_cp_half_ocycle0/"
 Entering Link 1 = /opt/ohpc/pub/libs/gaussian/g16-A.03/sandybridge/g16/l1.exe PID=     12071.
  
 Copyright (c) 1988,1990,1992,1993,1995,1998,2003,2009,2016,
            Gaussian, Inc.  All Rights Reserved.
  
 This is part of the Gaussian(R) 16 program.  It is based on
 the Gaussian(R) 09 system (copyright 2009, Gaussian, Inc.),
 the Gaussian(R) 03 system (copyright 2003, Gaussian, Inc.),
 the Gaussian(R) 98 system (copyright 1998, Gaussian, Inc.),
 the Gaussian(R) 94 system (copyright 1995, Gaussian, Inc.),
 the Gaussian 92(TM) system (copyright 1992, Gaussian, Inc.),
 the Gaussian 90(TM) system (copyright 1990, Gaussian, Inc.),
 the Gaussian 88(TM) system (copyright 1988, Gaussian, Inc.),
 the Gaussian 86(TM) system (copyright 1986, Carnegie Mellon
 University), and the Gaussian 82(TM) system (copyright 1983,
 Carnegie Mellon University). Gaussian is a federally registered
 trademark of Gaussian, Inc.
  
 This software contains proprietary and confidential information,
 including trade secrets, belonging to Gaussian, Inc.
  
 This software is provided under written license and may be
 used, copied, transmitted, or stored only in accord with that
 written license.
  
 The following legend is applicable only to US Government
 contracts under FAR:
  
                    RESTRICTED RIGHTS LEGEND
  
 Use, reproduction and disclosure by the US Government is
 subject to restrictions as set forth in subparagraphs (a)
 and (c) of the Commercial Computer Software - Restricted
 Rights clause in FAR 52.227-19.
  
 Gaussian, Inc.
 340 Quinnipiac St., Bldg. 40, Wallingford CT 06492
  
  
 ---------------------------------------------------------------
 Warning -- This program may not be used in any manner that
 competes with the business of Gaussian, Inc. or will provide
 assistance to any competitor of Gaussian, Inc.  The licensee
 of this program is prohibited from giving any competitor of
 Gaussian, Inc. access to this program.  By using this program,
 the user acknowledges that Gaussian, Inc. is engaged in the
 business of creating and licensing software in the field of
 computational chemistry and represents and warrants to the
 licensee that it is not a competitor of Gaussian, Inc. and that
 it will not use this program in any manner prohibited above.
 ---------------------------------------------------------------
  

 Cite this work as:
 Gaussian 16, Revision A.03,
 M. J. Frisch, G. W. Trucks, H. B. Schlegel, G. E. Scuseria, 
 M. A. Robb, J. R. Cheeseman, G. Scalmani, V. Barone, 
 G. A. Petersson, H. Nakatsuji, X. Li, M. Caricato, A. V. Marenich, 
 J. Bloino, B. G. Janesko, R. Gomperts, B. Mennucci, H. P. Hratchian, 
 J. V. Ortiz, A. F. Izmaylov, J. L. Sonnenberg, D. Williams-Young, 
 F. Ding, F. Lipparini, F. Egidi, J. Goings, B. Peng, A. Petrone, 
 T. Henderson, D. Ranasinghe, V. G. Zakrzewski, J. Gao, N. Rega, 
 G. Zheng, W. Liang, M. Hada, M. Ehara, K. Toyota, R. Fukuda, 
 J. Hasegawa, M. Ishida, T. Nakajima, Y. Honda, O. Kitao, H. Nakai, 
 T. Vreven, K. Throssell, J. A. Montgomery, Jr., J. E. Peralta, 
 F. Ogliaro, M. J. Bearpark, J. J. Heyd, E. N. Brothers, K. N. Kudin, 
 V. N. Staroverov, T. A. Keith, R. Kobayashi, J. Normand, 
 K. Raghavachari, A. P. Rendell, J. C. Burant, S. S. Iyengar, 
 J. Tomasi, M. Cossi, J. M. Millam, M. Klene, C. Adamo, R. Cammi, 
 J. W. Ochterski, R. L. Martin, K. Morokuma, O. Farkas, 
 J. B. Foresman, and D. J. Fox, Gaussian, Inc., Wallingford CT, 2016.
 
 ******************************************
 Gaussian 16:  EM64L-G16RevA.03 25-Dec-2016
                26-Jan-2021 
 ******************************************
 %mem=30GB
 %nproc=8
 Will use up to    8 processors via shared memory.
 ----------------------------------------------------------------------
 #P LC-wHPBE/TZVP iop(3/107=0173000000, 3/108=0173000000) scf=(conver=6
 ,fermi,ndamp=35,noincfock,novaracc,vshift=500,xqc)
 ----------------------------------------------------------------------
 1/38=1,172=1/1;
 2/12=2,17=6,18=5,40=1/2;
 3/5=19,7=101,11=2,25=1,30=1,74=-71,107=173000000,108=173000000/1,2,3;
 4//1;
 5/5=100002,6=6,8=3,10=500,13=1,18=-1,22=13,38=1,93=35/2,8;
 6/7=2,8=2,9=2,10=2,28=1/1;
 99/5=1,9=1/99;
 Leave Link    1 at Tue Jan 26 21:47:21 2021, MaxMem=  4026531840 cpu:               1.1 elap:               0.2
 (Enter /opt/ohpc/pub/libs/gaussian/g16-A.03/sandybridge/g16/l101.exe)
 -------------
 H21 C19 S2 N2
 -------------
 Symbolic Z-matrix:
 Charge =  1 Multiplicity = 1
 C                     5.14133   0.34145  -1.42865 
 C                     4.24633   0.79311  -0.45792 
 S                     3.52743   2.43824  -0.61293 
 C                     3.85258  -0.0852    0.57041 
 C                     0.86371  -0.78743   0.77082 
 C                     1.15259  -1.94954   0.29261 
 C                     5.64145  -0.96371  -1.38032 
 C                     4.33797  -1.39727   0.6117 
 H                     2.80575  -0.53669   2.62066 
 C                    -0.32759  -0.10492   0.75724 
 C                     0.16105  -2.70927  -0.33662 
 C                    -1.11055  -2.12504  -0.41653 
 C                    -1.36656  -0.83681   0.11614 
 H                    -0.50636   0.87639   1.20314 
 H                     0.33363  -3.70157  -0.76059 
 H                    -1.91554  -2.65653  -0.93018 
 C                     5.24214  -1.8276   -0.36315 
 H                     5.45089   1.02542  -2.21936 
 H                     4.15948   2.9901    0.46088 
 H                     6.34791  -1.29889  -2.14055 
 H                     4.02291  -2.07784   1.40256 
 H                     5.62592  -2.84765  -0.32369 
 S                     2.64164   0.49      1.74144 
 C                    -2.68065  -0.2575    0.00376 
 C                    -4.05427  -0.41399  -0.1325 
 C                    -3.48988   0.87017  -0.05216 
 N                    -5.09974  -1.2118   -0.24314 
 N                    -3.60739   2.18509  -0.04989 
 C                    -4.95887  -2.66296  -0.08688 
 H                    -5.24939  -3.17506  -1.01565 
 H                    -3.92191  -2.91121   0.15919 
 H                    -5.60706  -3.01164   0.73011 
 C                    -6.4563   -0.70851  -0.46315 
 H                    -6.9323   -1.28977  -1.26504 
 H                    -7.06234  -0.80464   0.45045 
 H                    -6.42414   0.34019  -0.77413 
 C                    -2.42252   3.04702  -0.1047 
 H                    -2.37423   3.6831    0.79104 
 H                    -1.51817   2.4341   -0.16853 
 H                    -2.47281   3.68971  -0.99563 
 C                    -4.90595   2.85982  -0.07161 
 H                    -4.90342   3.67179   0.66866 
 H                    -5.10914   3.28812  -1.06491 
 H                    -5.70105   2.15692   0.1956 
 
 ITRead=  0  0  0  0  0  0  0  0  0  0  0  0  0  0  0  0  0  0  0  0
 ITRead=  0  0  0  0  0  0  0  0  0  0  0  0  0  0  0  0  0  0  0  0
 ITRead=  0  0  0  0
 MicOpt= -1 -1 -1 -1 -1 -1 -1 -1 -1 -1 -1 -1 -1 -1 -1 -1 -1 -1 -1 -1
 MicOpt= -1 -1 -1 -1 -1 -1 -1 -1 -1 -1 -1 -1 -1 -1 -1 -1 -1 -1 -1 -1
 MicOpt= -1 -1 -1 -1
 NAtoms=     44 NQM=       44 NQMF=       0 NMMI=      0 NMMIF=      0
                NMic=       0 NMicF=      0.
                    Isotopes and Nuclear Properties:
 (Nuclear quadrupole moments (NQMom) in fm**2, nuclear magnetic moments (NMagM)
  in nuclear magnetons)

  Atom         1           2           3           4           5           6           7           8           9          10
 IAtWgt=          12          12          32          12          12          12          12          12           1          12
 AtmWgt=  12.0000000  12.0000000  31.9720718  12.0000000  12.0000000  12.0000000  12.0000000  12.0000000   1.0078250  12.0000000
 NucSpn=           0           0           0           0           0           0           0           0           1           0
 AtZEff=  -0.0000000  -0.0000000  -0.0000000  -0.0000000  -0.0000000  -0.0000000  -0.0000000  -0.0000000  -0.0000000  -0.0000000
 NQMom=    0.0000000   0.0000000   0.0000000   0.0000000   0.0000000   0.0000000   0.0000000   0.0000000   0.0000000   0.0000000
 NMagM=    0.0000000   0.0000000   0.0000000   0.0000000   0.0000000   0.0000000   0.0000000   0.0000000   2.7928460   0.0000000
 AtZNuc=   6.0000000   6.0000000  16.0000000   6.0000000   6.0000000   6.0000000   6.0000000   6.0000000   1.0000000   6.0000000

  Atom        11          12          13          14          15          16          17          18          19          20
 IAtWgt=          12          12          12           1           1           1          12           1           1           1
 AtmWgt=  12.0000000  12.0000000  12.0000000   1.0078250   1.0078250   1.0078250  12.0000000   1.0078250   1.0078250   1.0078250
 NucSpn=           0           0           0           1           1           1           0           1           1           1
 AtZEff=  -0.0000000  -0.0000000  -0.0000000  -0.0000000  -0.0000000  -0.0000000  -0.0000000  -0.0000000  -0.0000000  -0.0000000
 NQMom=    0.0000000   0.0000000   0.0000000   0.0000000   0.0000000   0.0000000   0.0000000   0.0000000   0.0000000   0.0000000
 NMagM=    0.0000000   0.0000000   0.0000000   2.7928460   2.7928460   2.7928460   0.0000000   2.7928460   2.7928460   2.7928460
 AtZNuc=   6.0000000   6.0000000   6.0000000   1.0000000   1.0000000   1.0000000   6.0000000   1.0000000   1.0000000   1.0000000

  Atom        21          22          23          24          25          26          27          28          29          30
 IAtWgt=           1           1          32          12          12          12          14          14          12           1
 AtmWgt=   1.0078250   1.0078250  31.9720718  12.0000000  12.0000000  12.0000000  14.0030740  14.0030740  12.0000000   1.0078250
 NucSpn=           1           1           0           0           0           0           2           2           0           1
 AtZEff=  -0.0000000  -0.0000000  -0.0000000  -0.0000000  -0.0000000  -0.0000000  -0.0000000  -0.0000000  -0.0000000  -0.0000000
 NQMom=    0.0000000   0.0000000   0.0000000   0.0000000   0.0000000   0.0000000   2.0440000   2.0440000   0.0000000   0.0000000
 NMagM=    2.7928460   2.7928460   0.0000000   0.0000000   0.0000000   0.0000000   0.4037610   0.4037610   0.0000000   2.7928460
 AtZNuc=   1.0000000   1.0000000  16.0000000   6.0000000   6.0000000   6.0000000   7.0000000   7.0000000   6.0000000   1.0000000

  Atom        31          32          33          34          35          36          37          38          39          40
 IAtWgt=           1           1          12           1           1           1          12           1           1           1
 AtmWgt=   1.0078250   1.0078250  12.0000000   1.0078250   1.0078250   1.0078250  12.0000000   1.0078250   1.0078250   1.0078250
 NucSpn=           1           1           0           1           1           1           0           1           1           1
 AtZEff=  -0.0000000  -0.0000000  -0.0000000  -0.0000000  -0.0000000  -0.0000000  -0.0000000  -0.0000000  -0.0000000  -0.0000000
 NQMom=    0.0000000   0.0000000   0.0000000   0.0000000   0.0000000   0.0000000   0.0000000   0.0000000   0.0000000   0.0000000
 NMagM=    2.7928460   2.7928460   0.0000000   2.7928460   2.7928460   2.7928460   0.0000000   2.7928460   2.7928460   2.7928460
 AtZNuc=   1.0000000   1.0000000   6.0000000   1.0000000   1.0000000   1.0000000   6.0000000   1.0000000   1.0000000   1.0000000

  Atom        41          42          43          44
 IAtWgt=          12           1           1           1
 AtmWgt=  12.0000000   1.0078250   1.0078250   1.0078250
 NucSpn=           0           1           1           1
 AtZEff=  -0.0000000  -0.0000000  -0.0000000  -0.0000000
 NQMom=    0.0000000   0.0000000   0.0000000   0.0000000
 NMagM=    0.0000000   2.7928460   2.7928460   2.7928460
 AtZNuc=   6.0000000   1.0000000   1.0000000   1.0000000
 Leave Link  101 at Tue Jan 26 21:47:21 2021, MaxMem=  4026531840 cpu:               0.9 elap:               0.2
 (Enter /opt/ohpc/pub/libs/gaussian/g16-A.03/sandybridge/g16/l202.exe)
                          Input orientation:                          
 ---------------------------------------------------------------------
 Center     Atomic      Atomic             Coordinates (Angstroms)
 Number     Number       Type             X           Y           Z
 ---------------------------------------------------------------------
      1          6           0        5.141333    0.341453   -1.428653
      2          6           0        4.246330    0.793113   -0.457920
      3         16           0        3.527427    2.438238   -0.612926
      4          6           0        3.852580   -0.085202    0.570411
      5          6           0        0.863708   -0.787434    0.770822
      6          6           0        1.152588   -1.949541    0.292605
      7          6           0        5.641454   -0.963707   -1.380320
      8          6           0        4.337968   -1.397272    0.611701
      9          1           0        2.805747   -0.536686    2.620663
     10          6           0       -0.327590   -0.104924    0.757243
     11          6           0        0.161049   -2.709273   -0.336618
     12          6           0       -1.110551   -2.125038   -0.416532
     13          6           0       -1.366563   -0.836811    0.116144
     14          1           0       -0.506361    0.876389    1.203135
     15          1           0        0.333628   -3.701573   -0.760587
     16          1           0       -1.915541   -2.656529   -0.930176
     17          6           0        5.242141   -1.827604   -0.363151
     18          1           0        5.450891    1.025420   -2.219360
     19          1           0        4.159480    2.990100    0.460876
     20          1           0        6.347910   -1.298886   -2.140548
     21          1           0        4.022912   -2.077842    1.402557
     22          1           0        5.625918   -2.847650   -0.323690
     23         16           0        2.641644    0.489998    1.741439
     24          6           0       -2.680648   -0.257498    0.003764
     25          6           0       -4.054270   -0.413992   -0.132503
     26          6           0       -3.489875    0.870167   -0.052158
     27          7           0       -5.099740   -1.211802   -0.243141
     28          7           0       -3.607387    2.185094   -0.049886
     29          6           0       -4.958870   -2.662960   -0.086881
     30          1           0       -5.249390   -3.175063   -1.015650
     31          1           0       -3.921906   -2.911213    0.159186
     32          1           0       -5.607057   -3.011636    0.730112
     33          6           0       -6.456302   -0.708508   -0.463149
     34          1           0       -6.932296   -1.289768   -1.265044
     35          1           0       -7.062340   -0.804638    0.450448
     36          1           0       -6.424137    0.340187   -0.774131
     37          6           0       -2.422516    3.047015   -0.104701
     38          1           0       -2.374233    3.683098    0.791036
     39          1           0       -1.518165    2.434104   -0.168534
     40          1           0       -2.472812    3.689712   -0.995626
     41          6           0       -4.905946    2.859820   -0.071613
     42          1           0       -4.903422    3.671788    0.668659
     43          1           0       -5.109136    3.288120   -1.064906
     44          1           0       -5.701050    2.156915    0.195603
 ---------------------------------------------------------------------
                    Distance matrix (angstroms):
                    1          2          3          4          5
     1  C    0.000000
     2  C    1.395475   0.000000
     3  S    2.768864   1.802022   0.000000
     4  C    2.416439   1.408524   2.806022   0.000000
     5  C    4.940663   3.930657   4.406259   3.076792   0.000000
     6  C    4.911361   4.201985   5.070745   3.292855   1.289432
     7  C    1.398535   2.425615   4.078141   2.788762   5.242646
     8  C    2.798500   2.439318   4.107046   1.399584   3.530964
     9  H    4.756369   3.649838   4.452762   2.345897   2.693752
    10  C    5.906481   4.817036   4.817281   4.184390   1.373024
    11  C    5.941607   5.382466   6.156762   4.619075   2.326718
    12  C    6.796618   6.100286   6.509447   5.455974   2.663962
    13  C    6.791717   5.872884   5.933686   5.292516   2.324898
    14  H    6.253712   5.035287   4.691364   4.508366   2.198247
    15  H    6.317151   5.966829   6.922387   5.218498   3.334427
    16  H    7.683479   7.077550   7.462118   6.491125   3.756479
    17  C    2.418732   2.805134   4.604350   2.416275   4.640962
    18  H    1.090346   2.146533   2.876873   3.401603   5.768004
    19  H    3.398483   2.382956   1.362752   3.092518   5.022743
    20  H    2.157159   3.409448   4.924921   3.879304   6.230099
    21  H    3.888393   3.428363   4.970177   2.166124   3.470564
    22  H    3.409713   3.895695   5.694553   3.402244   5.302932
    23  S    4.039801   2.739357   3.181711   1.780036   2.394783
    24  C    7.974581   7.021393   6.796138   6.560019   3.664924
    25  C    9.317179   8.394222   8.114687   7.944839   5.014176
    26  C    8.756257   7.747222   7.212200   7.430476   4.730605
    27  N   10.425815   9.561111   9.374836   9.059532   6.063903
    28  N    9.046553   7.986550   7.161471   7.822411   5.431406
    29  C   10.622662   9.839605   9.915452   9.204266   6.177027
    30  H   10.977412  10.306609  10.426114   9.742109   6.801634
    31  H    9.759271   8.990157   9.203551   8.282396   5.271303
    32  H   11.464352  10.629053  10.721179   9.903245   6.842480
    33  C   11.685023  10.807462  10.468968  10.379297   7.423709
    34  H   12.184423  11.399628  11.123358  11.006063   8.073089
    35  H   12.400572  11.457048  11.126103  10.939262   7.932539
    36  H   11.583976  10.684755  10.171599  10.373026   7.534659
    37  C    8.141543   7.048287   6.002560   7.045807   5.125311
    38  H    8.519234   7.331013   6.192768   7.281618   5.519993
    39  H    7.093377   6.000500   5.065126   5.978114   4.115096
    40  H    8.329079   7.336640   6.141296   7.530806   5.856410
    41  C   10.446604   9.390669   8.461237   9.262674   6.877577
    42  H   10.788278   9.657842   8.616456   9.528494   7.290740
    43  H   10.671798   9.701455   8.690041   9.714212   7.460221
    44  H   11.112667  10.061681   9.268098   9.820357   7.217764
                    6          7          8          9         10
     6  C    0.000000
     7  C    4.890855   0.000000
     8  C    3.248610   2.419752   0.000000
     9  H    3.185741   4.922545   2.669127   0.000000
    10  C    2.410275   6.398138   4.843426   3.671043   0.000000
    11  C    1.398665   5.845610   4.479655   4.523281   2.866694
    12  C    2.378124   6.918609   5.592251   5.204306   2.464069
    13  C    2.759607   7.167134   5.753379   4.875537   1.423422
    14  H    3.401038   6.917790   5.383944   3.869913   1.092590
    15  H    2.202164   6.004415   4.819514   5.249832   3.959407
    16  H    3.377638   7.757348   6.562735   6.276365   3.446688
    17  C    4.143589   1.392983   1.397516   4.062712   5.936734
    18  H    5.799635   2.167240   3.888823   5.732607   6.597627
    19  H    5.785306   4.606391   4.393591   4.351493   5.459011
    20  H    5.773643   1.090583   3.409461   5.983059   7.374621
    21  H    3.080132   3.406667   1.089903   2.310938   4.820343
    22  H    4.604031   2.160081   2.153455   4.686484   6.643434
    23  S    3.204334   4.567001   2.777699   1.361633   3.184168
    24  C    4.200016   8.465920   7.136501   6.084952   2.475458
    25  C    5.445181   9.791134   8.482354   7.392889   3.843867
    26  C    5.442617   9.407884   8.176620   6.982697   3.406755
    27  N    6.318456  10.804072   9.478158   8.435276   4.999936
    28  N    6.314259   9.860328   8.740693   7.461113   4.080773
    29  C    6.164649  10.813293   9.408569   8.493592   5.357691
    30  H    6.648215  11.119063   9.885659   9.223288   6.065725
    31  H    5.166537   9.880319   8.409656   7.547090   4.599134
    32  H    6.856549  11.626562  10.075898   8.970777   6.026814
    33  C    7.746388  12.135157  10.869497   9.763451   6.278119
    34  H    8.259959  12.578505  11.425961  10.511676   7.008255
    35  H    8.295828  12.836019  11.416840  10.107461   6.777948
    36  H    7.986710  12.150971  10.989186   9.873413   6.301676
    37  C    6.156687   9.096192   8.122134   6.899656   3.881544
    38  H    6.664347   9.516240   8.419974   6.927215   4.305694
    39  H    5.153825   8.017087   7.041484   5.941500   2.953167
    40  H    6.826730   9.361817   8.651453   7.668323   4.698275
    41  C    7.743929  11.295119  10.199985   8.846175   5.517069
    42  H    8.271397  11.699596  10.540489   8.997381   5.933771
    43  H    8.275573  11.565150  10.677625   9.531943   6.139720
    44  H    7.990291  11.869044  10.657733   9.246729   5.857084
                   11         12         13         14         15
    11  C    0.000000
    12  C    1.401672   0.000000
    13  C    2.458598   1.417327   0.000000
    14  H    3.958945   3.463659   2.203758   0.000000
    15  H    1.092791   2.165523   3.444730   5.051685   0.000000
    16  H    2.160398   1.092850   2.169686   4.360999   2.485888
    17  C    5.157086   6.359875   6.699729   6.542943   5.269081
    18  H    6.743521   7.498540   7.443129   6.872011   7.117504
    19  H    7.007589   7.396466   6.730620   5.175789   7.804332
    20  H    6.597015   7.699571   8.051041   7.930515   6.621842
    21  H    4.282221   5.446444   5.678156   5.411244   4.574550
    22  H    5.466636   6.775751   7.289151   7.335156   5.378513
    23  S    4.550495   5.057096   4.524127   3.216987   5.399661
    24  C    3.768594   2.475795   1.440504   2.729783   4.640231
    25  C    4.804050   3.416699   2.732100   4.004581   5.518725
    26  C    5.120796   3.842552   2.729570   3.236843   6.001821
    27  N    5.470563   4.096058   3.769126   5.248941   5.999016
    28  N    6.183701   4.994583   3.765736   3.591536   7.119659
    29  C    5.126215   3.899691   4.034936   5.832321   5.435359
    30  H    5.472741   4.311784   4.671694   6.620694   5.613587
    31  H    4.117903   2.975439   3.291622   5.205930   4.424954
    32  H    5.873703   4.724343   4.805061   6.430987   6.163598
    33  C    6.914362   5.530442   5.124206   6.378887   7.426308
    34  H    7.293320   5.942252   5.752411   7.216425   7.672349
    35  H    7.511621   6.157833   5.705670   6.809791   8.034873
    36  H    7.270165   5.868510   5.268488   6.262361   7.874223
    37  C    6.313750   5.344962   4.030870   3.177059   7.319150
    38  H    6.968620   6.065440   4.679792   3.396526   8.017070
    39  H    5.413163   4.584041   3.286778   2.309047   6.436319
    40  H    6.951153   6.000202   4.790535   4.076305   7.909642
    41  C    7.533888   6.274775   5.121286   4.991526   8.424945
    42  H    8.208373   7.011897   5.756918   5.237754   9.156194
    43  H    8.017105   6.761017   5.693574   5.669744   8.864090
    44  H    7.637228   6.307338   5.268443   5.444232   8.464840
                   16         17         18         19         20
    16  H    0.000000
    17  C    7.227797   0.000000
    18  H    8.335650   3.410108   0.000000
    19  H    8.409835   5.006141   3.565302   0.000000
    20  H    8.461254   2.159029   2.492640   5.472845   0.000000
    21  H    6.406383   2.160292   4.978719   5.156496   4.308826
    22  H    7.568220   1.090567   4.315654   6.070034   2.494176
    23  S    6.148666   4.069787   4.885333   3.192832   5.657414
    24  C    2.685700   8.085199   8.527021   7.585723   9.337956
    25  C    3.199909   9.406102   9.837427   8.910984  10.631116
    26  C    3.960685   9.144550   9.200987   7.954241  10.288254
    27  N    3.563478  10.360894  10.964781  10.192388  11.604156
    28  N    5.203707   9.721832   9.386366   7.825160  10.752531
    29  C    3.158012  10.238885  11.247877  10.742506  11.572447
    30  H    3.375016  10.597812  11.558070  11.345316  11.801814
    31  H    2.297188   9.242662  10.440493  10.011259  10.646948
    32  H    4.063243  10.968238  12.135708  11.466410  12.413518
    33  C    4.963004  11.752274  12.160264  11.279555  12.927106
    34  H    5.210375  12.219640  12.633849  12.013474  13.309037
    35  H    5.641380  12.373708  12.925089  11.846071  13.667200
    36  H    5.415911  11.873090  11.982259  10.979992  12.949086
    37  C    5.785227   9.087116   8.399355   6.606496   9.997595
    38  H    6.585123   9.471491   8.795357   6.578652  10.463753
    39  H    5.162611   7.993858   7.399866   5.739420   8.927440
    40  H    6.370998   9.505856   8.448730   6.826284  10.198142
    41  C    6.333227  11.182156  10.735079   9.081986  12.174753
    42  H    7.178531  11.586216  11.070488   9.090878  12.617120
    43  H    6.749522  11.567715  10.861250   9.398089  12.387959
    44  H    6.226291  11.659418  11.466391   9.899223  12.750592
                   21         22         23         24         25
    21  H    0.000000
    22  H    2.478338   0.000000
    23  S    2.935395   4.930572   0.000000
    24  C    7.085760   8.707190   5.648456   0.000000
    25  C    8.388425   9.983250   7.011713   1.389207   0.000000
    26  C    8.200544   9.848532   6.399769   1.389102   1.405013
    27  N    9.310270  10.849987   8.170906   2.612214   1.319753
    28  N    8.860230  10.519382   6.718079   2.613040   2.638518
    29  C    9.123223  10.589047   8.429218   3.314326   2.424508
    30  H    9.645061  10.902217   9.127027   4.018685   3.135566
    31  H    8.084591   9.560238   7.559891   2.933783   2.517681
    32  H    9.698477  11.283489   9.018054   4.083715   3.146904
    33  C   10.731722  12.270918   9.437650   3.831055   2.442504
    34  H   11.302820  12.689440  10.191508   4.555433   3.214447
    35  H   11.198677  12.874979   9.874717   4.438256   3.088838
    36  H   10.941922  12.472731   9.409512   3.869891   2.568412
    37  C    8.371352   9.978593   5.965927   3.316354   3.826482
    38  H    8.630519  10.387285   6.021476   4.030135   4.523449
    39  H    7.316387   8.885883   4.973083   2.936967   3.813762
    40  H    9.011681  10.429671   6.624753   4.077063   4.481783
    41  C   10.309131  11.981607   8.115992   3.830836   3.383327
    42  H   10.643133  12.423962   8.258491   4.563124   4.249296
    43  H   10.875487  12.387028   8.705151   4.428433   3.960777
    44  H   10.674518  12.394174   8.646893   3.871566   3.070684
                   26         27         28         29         30
    26  C    0.000000
    27  N    2.638699   0.000000
    28  N    1.320169   3.715288   0.000000
    29  C    3.826505   1.466329   5.033041   0.000000
    30  H    4.515318   2.115079   5.688599   1.099665   0.000000
    31  H    3.811844   2.106456   5.110282   1.094291   1.792225
    32  H    4.490301   2.108078   5.622551   1.099636   1.789502
    33  C    3.385383   1.463547   4.081671   2.490735   2.801033
    34  H    4.241070   2.099673   4.960473   2.677337   2.539430
    35  H    3.977448   2.121001   4.596252   2.857738   3.324928
    36  H    3.067901   2.108233   3.444168   3.411482   3.714208
    37  C    2.425012   5.032317   1.466230   6.247978   6.894585
    38  H    3.141371   5.697188   2.114671   6.908223   7.652778
    39  H    2.519342   5.111348   2.107352   6.150218   6.789875
    40  H    3.142353   5.611758   2.108450   6.882060   7.405061
    41  C    2.442203   4.079839   1.463551   5.523055   6.117922
    42  H    3.219747   4.971858   2.099112   6.379886   7.059459
    43  H    3.081260   4.574351   2.121835   6.032783   6.464892
    44  H    2.570292   3.449975   2.108194   4.884857   5.486449
                   31         32         33         34         35
    31  H    0.000000
    32  H    1.782070   0.000000
    33  C    3.415022   2.729375   0.000000
    34  H    3.704047   2.949870   1.098849   0.000000
    35  H    3.792732   2.658364   1.100537   1.787505   0.000000
    36  H    4.207593   3.763653   1.094306   1.776506   1.793745
    37  C    6.149658   6.895322   5.523031   6.363348   6.055691
    38  H    6.802901   7.434671   6.125559   7.052149   6.498778
    39  H    5.870075   6.868965   5.860717   6.662010   6.450617
    40  H    6.856068   7.596692   5.957857   6.689903   6.584381
    41  C    5.858876   5.967270   3.910226   4.769639   4.283787
    42  H    6.675241   6.720642   4.783244   5.698471   4.974629
    43  H    6.429591   6.569394   4.260282   4.931635   4.781419
    44  H    5.371462   5.196966   3.035623   3.940695   3.269381
                   36         37         38         39         40
    36  H    0.000000
    37  C    4.877297   0.000000
    38  H    5.479646   1.099672   0.000000
    39  H    5.368407   1.094342   1.792655   0.000000
    40  H    5.184722   1.099698   1.789392   1.781006   0.000000
    41  C    3.024398   2.490695   2.798485   3.415800   2.731787
    42  H    3.936214   2.672699   2.532173   3.700367   2.945850
    43  H    3.241001   2.863224   3.328697   3.798407   2.667636
    44  H    2.182599   3.410461   3.708300   4.207845   3.766963
                   41         42         43         44
    41  C    0.000000
    42  H    1.098773   0.000000
    43  H    1.100617   1.787391   0.000000
    44  H    1.094381   1.776185   1.794121   0.000000
 Stoichiometry    C19H21N2S2(1+)
 Framework group  C1[X(C19H21N2S2)]
 Deg. of freedom   126
 Full point group                 C1      NOp   1
 Largest Abelian subgroup         C1      NOp   1
 Largest concise Abelian subgroup C1      NOp   1
                         Standard orientation:                         
 ---------------------------------------------------------------------
 Center     Atomic      Atomic             Coordinates (Angstroms)
 Number     Number       Type             X           Y           Z
 ---------------------------------------------------------------------
      1          6           0        5.141333    0.341453   -1.428653
      2          6           0        4.246330    0.793113   -0.457920
      3         16           0        3.527427    2.438238   -0.612926
      4          6           0        3.852580   -0.085202    0.570411
      5          6           0        0.863708   -0.787434    0.770822
      6          6           0        1.152588   -1.949541    0.292605
      7          6           0        5.641454   -0.963707   -1.380320
      8          6           0        4.337968   -1.397272    0.611701
      9          1           0        2.805747   -0.536686    2.620663
     10          6           0       -0.327590   -0.104924    0.757243
     11          6           0        0.161049   -2.709273   -0.336618
     12          6           0       -1.110551   -2.125038   -0.416532
     13          6           0       -1.366563   -0.836811    0.116144
     14          1           0       -0.506361    0.876389    1.203135
     15          1           0        0.333628   -3.701573   -0.760587
     16          1           0       -1.915541   -2.656529   -0.930176
     17          6           0        5.242141   -1.827604   -0.363151
     18          1           0        5.450891    1.025420   -2.219360
     19          1           0        4.159480    2.990100    0.460876
     20          1           0        6.347910   -1.298886   -2.140548
     21          1           0        4.022912   -2.077842    1.402557
     22          1           0        5.625918   -2.847650   -0.323690
     23         16           0        2.641644    0.489998    1.741439
     24          6           0       -2.680648   -0.257498    0.003764
     25          6           0       -4.054270   -0.413992   -0.132503
     26          6           0       -3.489875    0.870167   -0.052158
     27          7           0       -5.099740   -1.211802   -0.243141
     28          7           0       -3.607387    2.185094   -0.049886
     29          6           0       -4.958870   -2.662960   -0.086881
     30          1           0       -5.249390   -3.175063   -1.015650
     31          1           0       -3.921906   -2.911213    0.159186
     32          1           0       -5.607057   -3.011636    0.730112
     33          6           0       -6.456302   -0.708508   -0.463149
     34          1           0       -6.932296   -1.289768   -1.265044
     35          1           0       -7.062340   -0.804638    0.450448
     36          1           0       -6.424137    0.340187   -0.774131
     37          6           0       -2.422516    3.047015   -0.104701
     38          1           0       -2.374233    3.683098    0.791036
     39          1           0       -1.518165    2.434104   -0.168534
     40          1           0       -2.472812    3.689712   -0.995626
     41          6           0       -4.905946    2.859820   -0.071613
     42          1           0       -4.903422    3.671788    0.668659
     43          1           0       -5.109136    3.288120   -1.064906
     44          1           0       -5.701050    2.156915    0.195603
 ---------------------------------------------------------------------
 Rotational constants (GHZ):           0.4060159           0.0982633           0.0849802
 Leave Link  202 at Tue Jan 26 21:47:21 2021, MaxMem=  4026531840 cpu:               0.1 elap:               0.0
 (Enter /opt/ohpc/pub/libs/gaussian/g16-A.03/sandybridge/g16/l301.exe)
 Standard basis: TZVP (5D, 7F)
 Ernie: Thresh=  0.10000D-02 Tol=  0.10000D-05 Strict=F.
 There are   592 symmetry adapted cartesian basis functions of A   symmetry.
 There are   569 symmetry adapted basis functions of A   symmetry.
   569 basis functions,   997 primitive gaussians,   592 cartesian basis functions
    90 alpha electrons       90 beta electrons
       nuclear repulsion energy      2022.4848436690 Hartrees.
 IExCor=33909 DFT=T Ex+Corr=LC-wHPBE ExCW=0 ScaHFX=  1.000000
 ScaDFX=  1.000000  1.000000  1.000000  1.000000 ScalE2=  1.000000  1.000000
 IRadAn=      5 IRanWt=     -1 IRanGd=            0 ICorTp=0 IEmpDi=  4
 HFx  wShort=  0.000000 wLong=  0.173000 cFull=  0.000000 cShort=  0.000000 cLong=  1.000000
 DFx  wShort=  0.000000 wLong=  0.173000 cFull=  0.000000 cShort=  1.000000 cLong=  0.000000
 NAtoms=   44 NActive=   44 NUniq=   44 SFac= 1.00D+00 NAtFMM=   60 NAOKFM=F Big=F
 Integral buffers will be    131072 words long.
 Raffenetti 2 integral format.
 Two-electron integral symmetry is turned on.
 Leave Link  301 at Tue Jan 26 21:47:21 2021, MaxMem=  4026531840 cpu:               0.5 elap:               0.1
 (Enter /opt/ohpc/pub/libs/gaussian/g16-A.03/sandybridge/g16/l302.exe)
 NPDir=0 NMtPBC=     1 NCelOv=     1 NCel=       1 NClECP=     1 NCelD=      1
         NCelK=      1 NCelE2=     1 NClLst=     1 CellRange=     0.0.
 One-electron integrals computed using PRISM.
 One-electron integral symmetry used in STVInt
 NBasis=   569 RedAO= T EigKep=  9.00D-06  NBF=   569
 NBsUse=   569 1.00D-06 EigRej= -1.00D+00 NBFU=   569
 Precomputing XC quadrature grid using
 IXCGrd= 4 IRadAn=           5 IRanWt=          -1 IRanGd=           0 AccXCQ= 0.00D+00.
 Generated NRdTot=       0 NPtTot=           0 NUsed=           0 NTot=          32
 NSgBfM=   570   570   570   570   570 MxSgAt=    44 MxSgA2=    44.
 Leave Link  302 at Tue Jan 26 21:47:22 2021, MaxMem=  4026531840 cpu:               9.3 elap:               1.2
 (Enter /opt/ohpc/pub/libs/gaussian/g16-A.03/sandybridge/g16/l303.exe)
 DipDrv:  MaxL=1.
 Leave Link  303 at Tue Jan 26 21:47:23 2021, MaxMem=  4026531840 cpu:               0.9 elap:               0.1
 (Enter /opt/ohpc/pub/libs/gaussian/g16-A.03/sandybridge/g16/l401.exe)
 ExpMin= 9.52D-02 ExpMax= 6.07D+04 ExpMxC= 2.07D+03 IAcc=3 IRadAn=         5 AccDes= 0.00D+00
 Harris functional with IExCor=33909 and IRadAn=       5 diagonalized for initial guess.
 HarFok:  IExCor=33909 AccDes= 0.00D+00 IRadAn=         5 IDoV= 1 UseB2=F ITyADJ=14
 ICtDFT=  3500011 ScaDFX=  1.000000  1.000000  1.000000  1.000000
 FoFCou: FMM=F IPFlag=           0 FMFlag=      100000 FMFlg1=           0
         NFxFlg=           0 DoJE=T BraDBF=F KetDBF=T FulRan=T
         wScrn=  0.000000 ICntrl=       500 IOpCl=  0 I1Cent=   200000004 NGrid=           0
         NMat0=    1 NMatS0=      1 NMatT0=    0 NMatD0=    1 NMtDS0=    0 NMtDT0=    0
 Petite list used in FoFCou.
 Harris En= -1624.52646336169    
 JPrj=0 DoOrth=F DoCkMO=F.
 Leave Link  401 at Tue Jan 26 21:47:29 2021, MaxMem=  4026531840 cpu:              52.1 elap:               6.6
 (Enter /opt/ohpc/pub/libs/gaussian/g16-A.03/sandybridge/g16/l502.exe)
 Integral symmetry usage will be decided dynamically.
 Closed shell SCF:
 Using DIIS extrapolation, IDIIS=    10.
 NGot=  4026531840 LenX=  4025820226 LenY=  4025469170
 Requested convergence on RMS density matrix=1.00D-06 within  32 cycles.
 Requested convergence on MAX density matrix=1.00D-04.
 Requested convergence on             energy=1.00D-04.
 Virtual orbitals will be shifted by   0.500 hartree.
 No special actions if energy rises.
 Dynamic level shift is on during FON iterations.

 Cycle   1  Pass 1  IDiag  1:
 FoFJK:  IHMeth= 1 ICntrl=       0 DoSepK=T KAlg= 0 I1Cent=           0 FoldK=F
 IRaf=         1 NMat=       1 IRICut=       1 DoRegI=T DoRafI=F ISym2E= 0 IDoP0=0 IntGTp=1.
 FoFCou: FMM=F IPFlag=           0 FMFlag=      100000 FMFlg1=           0
         NFxFlg=           0 DoJE=T BraDBF=F KetDBF=F FulRan=T
         wScrn=  0.000000 ICntrl=       500 IOpCl=  0 I1Cent=           0 NGrid=           0
         NMat0=    1 NMatS0=      1 NMatT0=    0 NMatD0=    1 NMtDS0=    0 NMtDT0=    0
 Symmetry not used in FoFCou.
 E= -1640.80053593668    
 DIIS: error= 2.90D-02 at cycle   1 NSaved=   1.
 NSaved= 1 IEnMin= 1 EnMin= -1640.80053593668     IErMin= 1 ErrMin= 2.90D-02
 ErrMax= 2.90D-02  0.00D+00 EMaxC= 1.00D+00 BMatC= 4.87D-01 BMatP= 4.87D-01
 IDIUse=1 WtCom= 1.00D+00 WtEn= 0.00D+00
 Coeff-Com:  0.100D+01
 Coeff:      0.100D+01
 Gap=     0.407 Goal=   None    Shift=    0.500
 T= 1475. Gap= 0.511 NK=0 IS=   91 IE=  569 IFin=   90
          NO(<0.9)=   0  NV(>0.1)=   0     90.00e < EF      0.00e >EF  Err=0.0D+00
 GapD=    0.407 DampG=2.000 DampE=0.500 DampFc=1.0000 IDamp=-1.
 RMSDP=4.03D-03 MaxDP=2.42D-01              OVMax= 1.64D-01

 Cycle   2  Pass 1  IDiag  1:
 E= -1641.24408875574     Delta-E=       -0.443552819069 Rises=F Damp=F
 DIIS: error= 7.51D-03 at cycle   2 NSaved=   2.
 NSaved= 2 IEnMin= 2 EnMin= -1641.24408875574     IErMin= 2 ErrMin= 7.51D-03
 ErrMax= 7.51D-03  0.00D+00 EMaxC= 1.00D+00 BMatC= 8.13D-02 BMatP= 4.87D-01
 IDIUse=1 WtCom= 1.00D+00 WtEn= 0.00D+00
 Coeff-Com:  0.265D+00 0.735D+00
 Coeff:      0.265D+00 0.735D+00
 Gap=     0.306 Goal=   None    Shift=    0.500
 T= 1305. Gap= 0.731 NK=0 IS=   91 IE=  569 IFin=   90
          NO(<0.9)=   0  NV(>0.1)=   0     90.00e < EF      0.00e >EF  Err=0.0D+00
 GapD=    0.306 DampG=1.000 DampE=1.000 DampFc=1.0000 IDamp=-1.
 RMSDP=1.09D-03 MaxDP=7.93D-02 DE=-4.44D-01 OVMax= 2.39D-02

 Cycle   3  Pass 1  IDiag  1:
 E= -1641.30174240461     Delta-E=       -0.057653648870 Rises=F Damp=F
 DIIS: error= 2.69D-03 at cycle   3 NSaved=   3.
 NSaved= 3 IEnMin= 3 EnMin= -1641.30174240461     IErMin= 3 ErrMin= 2.69D-03
 ErrMax= 2.69D-03  0.00D+00 EMaxC= 1.00D+00 BMatC= 8.60D-03 BMatP= 8.13D-02
 IDIUse=1 WtCom= 1.00D+00 WtEn= 0.00D+00
 Coeff-Com:  0.878D-01-0.784D-01 0.991D+00
 Coeff:      0.878D-01-0.784D-01 0.991D+00
 Gap=     0.230 Goal=   None    Shift=    0.500
 T=  997. Gap= 0.729 NK=0 IS=   91 IE=  569 IFin=   90
          NO(<0.9)=   0  NV(>0.1)=   0     90.00e < EF      0.00e >EF  Err=0.0D+00
 GapD=    0.230 DampG=1.000 DampE=1.000 DampFc=1.0000 IDamp=-1.
 RMSDP=7.23D-04 MaxDP=5.91D-02 DE=-5.77D-02 OVMax= 1.43D-02

 Cycle   4  Pass 1  IDiag  1:
 E= -1641.31042129608     Delta-E=       -0.008678891466 Rises=F Damp=F
 DIIS: error= 1.63D-03 at cycle   4 NSaved=   4.
 NSaved= 4 IEnMin= 4 EnMin= -1641.31042129608     IErMin= 4 ErrMin= 1.63D-03
 ErrMax= 1.63D-03  0.00D+00 EMaxC= 1.00D+00 BMatC= 1.30D-03 BMatP= 8.60D-03
 IDIUse=1 WtCom= 1.00D+00 WtEn= 0.00D+00
 Coeff-Com:  0.152D-01-0.725D-01-0.364D-01 0.109D+01
 Coeff:      0.152D-01-0.725D-01-0.364D-01 0.109D+01
 Gap=     0.233 Goal=   None    Shift=    0.500
 T=  279. Gap= 0.733 NK=0 IS=   91 IE=  569 IFin=   90
          NO(<0.9)=   0  NV(>0.1)=   0     90.00e < EF      0.00e >EF  Err=0.0D+00
 GapD=    0.233 DampG=1.000 DampE=1.000 DampFc=1.0000 IDamp=-1.
 RMSDP=4.05D-04 MaxDP=3.12D-02 DE=-8.68D-03 OVMax= 8.66D-03

 Cycle   5  Pass 1  IDiag  1:
 E= -1641.31225438391     Delta-E=       -0.001833087832 Rises=F Damp=F
 DIIS: error= 1.45D-03 at cycle   5 NSaved=   5.
 NSaved= 5 IEnMin= 5 EnMin= -1641.31225438391     IErMin= 5 ErrMin= 1.45D-03
 ErrMax= 1.45D-03  0.00D+00 EMaxC= 1.00D+00 BMatC= 2.15D-04 BMatP= 1.30D-03
 IDIUse=1 WtCom= 1.00D+00 WtEn= 0.00D+00
 Coeff-Com: -0.634D-02-0.715D-03-0.179D+00 0.472D-01 0.114D+01
 Coeff:     -0.634D-02-0.715D-03-0.179D+00 0.472D-01 0.114D+01
 Gap=     0.234 Goal=   None    Shift=    0.500
 GapD=    0.234 DampG=1.000 DampE=1.000 DampFc=1.0000 IDamp=-1.
 RMSDP=2.27D-04 MaxDP=1.54D-02 DE=-1.83D-03 OVMax= 7.81D-03

 Cycle   6  Pass 1  IDiag  1:
 E= -1641.31280968594     Delta-E=       -0.000555302024 Rises=F Damp=F
 DIIS: error= 1.11D-03 at cycle   6 NSaved=   6.
 NSaved= 6 IEnMin= 6 EnMin= -1641.31280968594     IErMin= 6 ErrMin= 1.11D-03
 ErrMax= 1.11D-03  0.00D+00 EMaxC= 1.00D+00 BMatC= 6.31D-05 BMatP= 2.15D-04
 IDIUse=1 WtCom= 1.00D+00 WtEn= 0.00D+00
 Coeff-Com: -0.653D-02 0.121D-01-0.433D-02-0.296D+00-0.301D+00 0.160D+01
 Coeff:     -0.653D-02 0.121D-01-0.433D-02-0.296D+00-0.301D+00 0.160D+01
 Gap=     0.234 Goal=   None    Shift=    0.500
 GapD=    0.234 DampG=1.000 DampE=1.000 DampFc=1.0000 IDamp=-1.
 RMSDP=1.41D-04 MaxDP=9.35D-03 DE=-5.55D-04 OVMax= 6.60D-03

 Cycle   7  Pass 1  IDiag  1:
 E= -1641.31306745003     Delta-E=       -0.000257764092 Rises=F Damp=F
 DIIS: error= 8.14D-04 at cycle   7 NSaved=   7.
 NSaved= 7 IEnMin= 7 EnMin= -1641.31306745003     IErMin= 7 ErrMin= 8.14D-04
 ErrMax= 8.14D-04  0.00D+00 EMaxC= 1.00D+00 BMatC= 2.69D-05 BMatP= 6.31D-05
 IDIUse=1 WtCom= 1.00D+00 WtEn= 0.00D+00
 Coeff-Com: -0.318D-02 0.310D-02 0.428D-01-0.156D+00-0.443D+00 0.302D+00
 Coeff-Com:  0.125D+01
 Coeff:     -0.318D-02 0.310D-02 0.428D-01-0.156D+00-0.443D+00 0.302D+00
 Coeff:      0.125D+01
 Gap=     0.235 Goal=   None    Shift=    0.500
 RMSDP=7.43D-05 MaxDP=4.17D-03 DE=-2.58D-04 OVMax= 4.64D-03

 Cycle   8  Pass 1  IDiag  1:
 E= -1641.31319045854     Delta-E=       -0.000123008510 Rises=F Damp=F
 DIIS: error= 5.61D-04 at cycle   8 NSaved=   8.
 NSaved= 8 IEnMin= 8 EnMin= -1641.31319045854     IErMin= 8 ErrMin= 5.61D-04
 ErrMax= 5.61D-04  0.00D+00 EMaxC= 1.00D+00 BMatC= 1.11D-05 BMatP= 2.69D-05
 IDIUse=1 WtCom= 1.00D+00 WtEn= 0.00D+00
 Coeff-Com:  0.708D-03-0.439D-02 0.200D-01 0.912D-01-0.114D+00-0.719D+00
 Coeff-Com: -0.388D-01 0.176D+01
 Coeff:      0.708D-03-0.439D-02 0.200D-01 0.912D-01-0.114D+00-0.719D+00
 Coeff:     -0.388D-01 0.176D+01
 Gap=     0.235 Goal=   None    Shift=    0.500
 RMSDP=4.60D-05 MaxDP=2.29D-03 DE=-1.23D-04 OVMax= 3.75D-03

 Cycle   9  Pass 1  IDiag  1:
 E= -1641.31325115198     Delta-E=       -0.000060693440 Rises=F Damp=F
 DIIS: error= 4.07D-04 at cycle   9 NSaved=   9.
 NSaved= 9 IEnMin= 9 EnMin= -1641.31325115198     IErMin= 9 ErrMin= 4.07D-04
 ErrMax= 4.07D-04  0.00D+00 EMaxC= 1.00D+00 BMatC= 5.41D-06 BMatP= 1.11D-05
 IDIUse=1 WtCom= 1.00D+00 WtEn= 0.00D+00
 Coeff-Com:  0.113D-02-0.254D-02-0.723D-02 0.132D+00 0.556D-01-0.581D+00
 Coeff-Com: -0.448D+00 0.505D+00 0.134D+01
 Coeff:      0.113D-02-0.254D-02-0.723D-02 0.132D+00 0.556D-01-0.581D+00
 Coeff:     -0.448D+00 0.505D+00 0.134D+01
 Gap=     0.235 Goal=   None    Shift=    0.500
 RMSDP=2.61D-05 MaxDP=1.18D-03 DE=-6.07D-05 OVMax= 2.64D-03

 Cycle  10  Pass 1  IDiag  1:
 E= -1641.31327937755     Delta-E=       -0.000028225572 Rises=F Damp=F
 DIIS: error= 2.67D-04 at cycle  10 NSaved=  10.
 NSaved=10 IEnMin=10 EnMin= -1641.31327937755     IErMin=10 ErrMin= 2.67D-04
 ErrMax= 2.67D-04  0.00D+00 EMaxC= 1.00D+00 BMatC= 2.44D-06 BMatP= 5.41D-06
 IDIUse=1 WtCom= 1.00D+00 WtEn= 0.00D+00
 Coeff-Com: -0.158D-03 0.973D-03-0.934D-02 0.244D-01 0.217D-01 0.976D-01
 Coeff-Com: -0.164D+00-0.510D+00-0.763D+00 0.230D+01
 Coeff:     -0.158D-03 0.973D-03-0.934D-02 0.244D-01 0.217D-01 0.976D-01
 Coeff:     -0.164D+00-0.510D+00-0.763D+00 0.230D+01
 Gap=     0.235 Goal=   None    Shift=    0.500
 RMSDP=1.63D-05 MaxDP=8.29D-04 DE=-2.82D-05 OVMax= 1.90D-03

 Cycle  11  Pass 1  IDiag  1:
 E= -1641.31329214949     Delta-E=       -0.000012771942 Rises=F Damp=F
 DIIS: error= 1.82D-04 at cycle  11 NSaved=  11.
 NSaved=11 IEnMin=11 EnMin= -1641.31329214949     IErMin=11 ErrMin= 1.82D-04
 ErrMax= 1.82D-04  0.00D+00 EMaxC= 1.00D+00 BMatC= 1.27D-06 BMatP= 2.44D-06
 IDIUse=1 WtCom= 1.00D+00 WtEn= 0.00D+00
 Coeff-Com: -0.441D-03 0.116D-02-0.101D-02-0.172D-01-0.240D-01 0.232D+00
 Coeff-Com:  0.381D-01-0.421D+00-0.111D+01 0.924D+00 0.138D+01
 Coeff:     -0.441D-03 0.116D-02-0.101D-02-0.172D-01-0.240D-01 0.232D+00
 Coeff:      0.381D-01-0.421D+00-0.111D+01 0.924D+00 0.138D+01
 Gap=     0.235 Goal=   None    Shift=    0.500
 RMSDP=9.80D-06 MaxDP=4.40D-04 DE=-1.28D-05 OVMax= 1.28D-03

 Cycle  12  Pass 1  IDiag  1:
 E= -1641.31329786319     Delta-E=       -0.000005713703 Rises=F Damp=F
 DIIS: error= 1.18D-04 at cycle  12 NSaved=  12.
 NSaved=12 IEnMin=12 EnMin= -1641.31329786319     IErMin=12 ErrMin= 1.18D-04
 ErrMax= 1.18D-04  0.00D+00 EMaxC= 1.00D+00 BMatC= 5.93D-07 BMatP= 1.27D-06
 IDIUse=1 WtCom= 1.00D+00 WtEn= 0.00D+00
 Coeff-Com: -0.148D-03 0.171D-03 0.302D-02-0.606D-02-0.216D-01 0.243D-01
 Coeff-Com:  0.720D-01 0.113D+00-0.235D+00-0.592D+00-0.714D+00 0.236D+01
 Coeff:     -0.148D-03 0.171D-03 0.302D-02-0.606D-02-0.216D-01 0.243D-01
 Coeff:      0.720D-01 0.113D+00-0.235D+00-0.592D+00-0.714D+00 0.236D+01
 Gap=     0.235 Goal=   None    Shift=    0.500
 RMSDP=6.26D-06 MaxDP=2.66D-04 DE=-5.71D-06 OVMax= 8.59D-04

 Cycle  13  Pass 1  IDiag  1:
 E= -1641.31330029174     Delta-E=       -0.000002428541 Rises=F Damp=F
 DIIS: error= 7.78D-05 at cycle  13 NSaved=  13.
 NSaved=13 IEnMin=13 EnMin= -1641.31330029174     IErMin=13 ErrMin= 7.78D-05
 ErrMax= 7.78D-05  0.00D+00 EMaxC= 1.00D+00 BMatC= 3.35D-07 BMatP= 5.93D-07
 IDIUse=1 WtCom= 1.00D+00 WtEn= 0.00D+00
 Coeff-Com: -0.136D-04-0.449D-04 0.191D-02 0.401D-02-0.135D-01-0.457D-01
 Coeff-Com:  0.520D-01 0.213D+00 0.906D-01-0.707D+00-0.108D+01 0.137D+01
 Coeff-Com:  0.111D+01
 Coeff:     -0.136D-04-0.449D-04 0.191D-02 0.401D-02-0.135D-01-0.457D-01
 Coeff:      0.520D-01 0.213D+00 0.906D-01-0.707D+00-0.108D+01 0.137D+01
 Coeff:      0.111D+01
 Gap=     0.235 Goal=   None    Shift=    0.500
 RMSDP=3.76D-06 MaxDP=1.42D-04 DE=-2.43D-06 OVMax= 5.80D-04

 Cycle  14  Pass 1  IDiag  1:
 E= -1641.31330138041     Delta-E=       -0.000001088673 Rises=F Damp=F
 DIIS: error= 5.00D-05 at cycle  14 NSaved=  14.
 NSaved=14 IEnMin=14 EnMin= -1641.31330138041     IErMin=14 ErrMin= 5.00D-05
 ErrMax= 5.00D-05  0.00D+00 EMaxC= 1.00D+00 BMatC= 1.60D-07 BMatP= 3.35D-07
 IDIUse=1 WtCom= 1.00D+00 WtEn= 0.00D+00
 Coeff-Com:  0.353D-04-0.683D-04-0.335D-03 0.766D-02-0.584D-02-0.310D-01
 Coeff-Com:  0.101D-01 0.733D-01 0.959D-01-0.891D-01-0.386D+00-0.130D+00
 Coeff-Com: -0.802D+00 0.226D+01
 Coeff:      0.353D-04-0.683D-04-0.335D-03 0.766D-02-0.584D-02-0.310D-01
 Coeff:      0.101D-01 0.733D-01 0.959D-01-0.891D-01-0.386D+00-0.130D+00
 Coeff:     -0.802D+00 0.226D+01
 Gap=     0.235 Goal=   None    Shift=    0.500
 RMSDP=2.46D-06 MaxDP=9.90D-05 DE=-1.09D-06 OVMax= 3.88D-04

 Cycle  15  Pass 1  IDiag  1:
 E= -1641.31330185071     Delta-E=       -0.000000470300 Rises=F Damp=F
 DIIS: error= 3.21D-05 at cycle  15 NSaved=  15.
 NSaved=15 IEnMin=15 EnMin= -1641.31330185071     IErMin=15 ErrMin= 3.21D-05
 ErrMax= 3.21D-05  0.00D+00 EMaxC= 1.00D+00 BMatC= 7.45D-08 BMatP= 1.60D-07
 IDIUse=1 WtCom= 1.00D+00 WtEn= 0.00D+00
 Coeff-Com:  0.183D-05-0.216D-04-0.609D-03 0.292D-02-0.228D-02 0.392D-02
 Coeff-Com: -0.241D-02-0.322D-01-0.108D-01 0.207D+00 0.800D-01-0.399D+00
 Coeff-Com: -0.110D+01 0.530D+00 0.173D+01
 Coeff:      0.183D-05-0.216D-04-0.609D-03 0.292D-02-0.228D-02 0.392D-02
 Coeff:     -0.241D-02-0.322D-01-0.108D-01 0.207D+00 0.800D-01-0.399D+00
 Coeff:     -0.110D+01 0.530D+00 0.173D+01
 Gap=     0.235 Goal=   None    Shift=    0.500
 RMSDP=1.64D-06 MaxDP=7.72D-05 DE=-4.70D-07 OVMax= 2.55D-04

 Cycle  16  Pass 1  IDiag  1:
 E= -1641.31330205085     Delta-E=       -0.000000200142 Rises=F Damp=F
 DIIS: error= 2.05D-05 at cycle  16 NSaved=  16.
 NSaved=16 IEnMin=16 EnMin= -1641.31330205085     IErMin=16 ErrMin= 2.05D-05
 ErrMax= 2.05D-05  0.00D+00 EMaxC= 1.00D+00 BMatC= 3.42D-08 BMatP= 7.45D-08
 IDIUse=1 WtCom= 1.00D+00 WtEn= 0.00D+00
 Coeff-Com: -0.141D-04 0.578D-05-0.245D-03-0.307D-03 0.319D-03 0.107D-01
 Coeff-Com: -0.229D-02-0.394D-01-0.312D-01 0.152D+00 0.121D+00-0.150D+00
 Coeff-Com: -0.480D+00-0.579D+00 0.454D+00 0.154D+01
 Coeff:     -0.141D-04 0.578D-05-0.245D-03-0.307D-03 0.319D-03 0.107D-01
 Coeff:     -0.229D-02-0.394D-01-0.312D-01 0.152D+00 0.121D+00-0.150D+00
 Coeff:     -0.480D+00-0.579D+00 0.454D+00 0.154D+01
 Gap=     0.235 Goal=   None    Shift=    0.500
 RMSDP=1.04D-06 MaxDP=4.44D-05 DE=-2.00D-07 OVMax= 1.68D-04

 Cycle  17  Pass 1  IDiag  1:
 E= -1641.31330213698     Delta-E=       -0.000000086133 Rises=F Damp=F
 DIIS: error= 1.30D-05 at cycle  17 NSaved=  17.
 NSaved=17 IEnMin=17 EnMin= -1641.31330213698     IErMin=17 ErrMin= 1.30D-05
 ErrMax= 1.30D-05  0.00D+00 EMaxC= 1.00D+00 BMatC= 1.56D-08 BMatP= 3.42D-08
 IDIUse=1 WtCom= 1.00D+00 WtEn= 0.00D+00
 Coeff-Com: -0.789D-05 0.205D-04 0.202D-03-0.972D-03 0.934D-04 0.253D-02
 Coeff-Com:  0.385D-02-0.464D-02-0.773D-02-0.153D-01-0.780D-02 0.130D+00
 Coeff-Com:  0.173D+00-0.520D+00-0.485D+00-0.521D+00 0.225D+01
 Coeff:     -0.789D-05 0.205D-04 0.202D-03-0.972D-03 0.934D-04 0.253D-02
 Coeff:      0.385D-02-0.464D-02-0.773D-02-0.153D-01-0.780D-02 0.130D+00
 Coeff:      0.173D+00-0.520D+00-0.485D+00-0.521D+00 0.225D+01
 Gap=     0.235 Goal=   None    Shift=    0.500
 RMSDP=6.79D-07 MaxDP=3.28D-05 DE=-8.61D-08 OVMax= 1.11D-04

 SCF Done:  E(RLC-wHPBE) =  -1641.31330214     A.U. after   17 cycles
            NFock= 17  Conv=0.68D-06     -V/T= 2.0041
 KE= 1.634568203663D+03 PE=-7.878566814468D+03 EE= 2.580200464999D+03
 Leave Link  502 at Tue Jan 26 21:59:30 2021, MaxMem=  4026531840 cpu:            5755.2 elap:             720.4
 (Enter /opt/ohpc/pub/libs/gaussian/g16-A.03/sandybridge/g16/l508.exe)
 QCSCF skips out because SCF is already converged.
 Leave Link  508 at Tue Jan 26 21:59:30 2021, MaxMem=  4026531840 cpu:               0.0 elap:               0.0
 (Enter /opt/ohpc/pub/libs/gaussian/g16-A.03/sandybridge/g16/l601.exe)
 Copying SCF densities to generalized density rwf, IOpCl= 0 IROHF=0.

 **********************************************************************

            Population analysis using the SCF density.

 **********************************************************************

 Orbital symmetries:
       Occupied  (A) (A) (A) (A) (A) (A) (A) (A) (A) (A) (A) (A)
                 (A) (A) (A) (A) (A) (A) (A) (A) (A) (A) (A) (A)
                 (A) (A) (A) (A) (A) (A) (A) (A) (A) (A) (A) (A)
                 (A) (A) (A) (A) (A) (A) (A) (A) (A) (A) (A) (A)
                 (A) (A) (A) (A) (A) (A) (A) (A) (A) (A) (A) (A)
                 (A) (A) (A) (A) (A) (A) (A) (A) (A) (A) (A) (A)
                 (A) (A) (A) (A) (A) (A) (A) (A) (A) (A) (A) (A)
                 (A) (A) (A) (A) (A) (A)
       Virtual   (A) (A) (A) (A) (A) (A) (A) (A) (A) (A) (A) (A)
                 (A) (A) (A) (A) (A) (A) (A) (A) (A) (A) (A) (A)
                 (A) (A) (A) (A) (A) (A) (A) (A) (A) (A) (A) (A)
                 (A) (A) (A) (A) (A) (A) (A) (A) (A) (A) (A) (A)
                 (A) (A) (A) (A) (A) (A) (A) (A) (A) (A) (A) (A)
                 (A) (A) (A) (A) (A) (A) (A) (A) (A) (A) (A) (A)
                 (A) (A) (A) (A) (A) (A) (A) (A) (A) (A) (A) (A)
                 (A) (A) (A) (A) (A) (A) (A) (A) (A) (A) (A) (A)
                 (A) (A) (A) (A) (A) (A) (A) (A) (A) (A) (A) (A)
                 (A) (A) (A) (A) (A) (A) (A) (A) (A) (A) (A) (A)
                 (A) (A) (A) (A) (A) (A) (A) (A) (A) (A) (A) (A)
                 (A) (A) (A) (A) (A) (A) (A) (A) (A) (A) (A) (A)
                 (A) (A) (A) (A) (A) (A) (A) (A) (A) (A) (A) (A)
                 (A) (A) (A) (A) (A) (A) (A) (A) (A) (A) (A) (A)
                 (A) (A) (A) (A) (A) (A) (A) (A) (A) (A) (A) (A)
                 (A) (A) (A) (A) (A) (A) (A) (A) (A) (A) (A) (A)
                 (A) (A) (A) (A) (A) (A) (A) (A) (A) (A) (A) (A)
                 (A) (A) (A) (A) (A) (A) (A) (A) (A) (A) (A) (A)
                 (A) (A) (A) (A) (A) (A) (A) (A) (A) (A) (A) (A)
                 (A) (A) (A) (A) (A) (A) (A) (A) (A) (A) (A) (A)
                 (A) (A) (A) (A) (A) (A) (A) (A) (A) (A) (A) (A)
                 (A) (A) (A) (A) (A) (A) (A) (A) (A) (A) (A) (A)
                 (A) (A) (A) (A) (A) (A) (A) (A) (A) (A) (A) (A)
                 (A) (A) (A) (A) (A) (A) (A) (A) (A) (A) (A) (A)
                 (A) (A) (A) (A) (A) (A) (A) (A) (A) (A) (A) (A)
                 (A) (A) (A) (A) (A) (A) (A) (A) (A) (A) (A) (A)
                 (A) (A) (A) (A) (A) (A) (A) (A) (A) (A) (A) (A)
                 (A) (A) (A) (A) (A) (A) (A) (A) (A) (A) (A) (A)
                 (A) (A) (A) (A) (A) (A) (A) (A) (A) (A) (A) (A)
                 (A) (A) (A) (A) (A) (A) (A) (A) (A) (A) (A) (A)
                 (A) (A) (A) (A) (A) (A) (A) (A) (A) (A) (A) (A)
                 (A) (A) (A) (A) (A) (A) (A) (A) (A) (A) (A) (A)
                 (A) (A) (A) (A) (A) (A) (A) (A) (A) (A) (A) (A)
                 (A) (A) (A) (A) (A) (A) (A) (A) (A) (A) (A) (A)
                 (A) (A) (A) (A) (A) (A) (A) (A) (A) (A) (A) (A)
                 (A) (A) (A) (A) (A) (A) (A) (A) (A) (A) (A) (A)
                 (A) (A) (A) (A) (A) (A) (A) (A) (A) (A) (A) (A)
                 (A) (A) (A) (A) (A) (A) (A) (A) (A) (A) (A) (A)
                 (A) (A) (A) (A) (A) (A) (A) (A) (A) (A) (A) (A)
                 (A) (A) (A) (A) (A) (A) (A) (A) (A) (A) (A)
 The electronic state is 1-A.
 Alpha  occ. eigenvalues --  -88.32118 -88.27404 -14.27774 -14.27768 -10.20258
 Alpha  occ. eigenvalues --  -10.20225 -10.16650 -10.14858 -10.14833 -10.14366
 Alpha  occ. eigenvalues --  -10.14324 -10.12518 -10.12238 -10.11559 -10.11548
 Alpha  occ. eigenvalues --  -10.10228 -10.10094 -10.09762 -10.08482 -10.07779
 Alpha  occ. eigenvalues --  -10.07566 -10.07353 -10.06146  -7.91134  -7.86600
 Alpha  occ. eigenvalues --   -5.93240  -5.92811  -5.92394  -5.88821  -5.88395
 Alpha  occ. eigenvalues --   -5.87570  -1.14844  -1.12420  -1.06834  -0.99553
 Alpha  occ. eigenvalues --   -0.99029  -0.92407  -0.90257  -0.90021  -0.89460
 Alpha  occ. eigenvalues --   -0.89308  -0.88076  -0.87954  -0.86671  -0.84366
 Alpha  occ. eigenvalues --   -0.81981  -0.77417  -0.74567  -0.73704  -0.72384
 Alpha  occ. eigenvalues --   -0.72104  -0.71230  -0.69242  -0.66938  -0.66766
 Alpha  occ. eigenvalues --   -0.66307  -0.65070  -0.64502  -0.61938  -0.61104
 Alpha  occ. eigenvalues --   -0.60656  -0.59839  -0.59620  -0.59104  -0.58890
 Alpha  occ. eigenvalues --   -0.58098  -0.57993  -0.57821  -0.57328  -0.57105
 Alpha  occ. eigenvalues --   -0.56152  -0.55800  -0.55722  -0.54870  -0.53573
 Alpha  occ. eigenvalues --   -0.53224  -0.52756  -0.52256  -0.50057  -0.48506
 Alpha  occ. eigenvalues --   -0.48102  -0.47555  -0.46910  -0.44529  -0.42188
 Alpha  occ. eigenvalues --   -0.41093  -0.39983  -0.39055  -0.38243  -0.35314
 Alpha virt. eigenvalues --   -0.11808  -0.10369  -0.07163  -0.05905  -0.05672
 Alpha virt. eigenvalues --   -0.05399  -0.04385  -0.04168  -0.01671  -0.01465
 Alpha virt. eigenvalues --   -0.01034  -0.00398  -0.00364   0.00877   0.01252
 Alpha virt. eigenvalues --    0.01931   0.02836   0.02896   0.03283   0.04070
 Alpha virt. eigenvalues --    0.04497   0.04547   0.05062   0.05329   0.05509
 Alpha virt. eigenvalues --    0.05680   0.06647   0.06718   0.07246   0.07371
 Alpha virt. eigenvalues --    0.08389   0.08928   0.09015   0.09294   0.09573
 Alpha virt. eigenvalues --    0.10343   0.10883   0.11030   0.11990   0.12287
 Alpha virt. eigenvalues --    0.12546   0.12873   0.13035   0.13633   0.14305
 Alpha virt. eigenvalues --    0.14734   0.16181   0.16609   0.17124   0.17531
 Alpha virt. eigenvalues --    0.17869   0.18025   0.18450   0.19188   0.19454
 Alpha virt. eigenvalues --    0.19987   0.20546   0.20703   0.21112   0.21584
 Alpha virt. eigenvalues --    0.22225   0.22417   0.22559   0.22878   0.23011
 Alpha virt. eigenvalues --    0.23389   0.23563   0.24079   0.24249   0.24814
 Alpha virt. eigenvalues --    0.25061   0.25322   0.25410   0.26432   0.26710
 Alpha virt. eigenvalues --    0.26998   0.27736   0.28525   0.28769   0.29631
 Alpha virt. eigenvalues --    0.29779   0.30648   0.30712   0.31051   0.31794
 Alpha virt. eigenvalues --    0.32312   0.32476   0.32936   0.33277   0.33691
 Alpha virt. eigenvalues --    0.34044   0.35150   0.35403   0.35809   0.36069
 Alpha virt. eigenvalues --    0.36350   0.36470   0.36638   0.37356   0.37423
 Alpha virt. eigenvalues --    0.37790   0.38048   0.38440   0.38597   0.39053
 Alpha virt. eigenvalues --    0.39115   0.39754   0.40025   0.40348   0.40644
 Alpha virt. eigenvalues --    0.41066   0.41379   0.42057   0.42328   0.42693
 Alpha virt. eigenvalues --    0.43133   0.43831   0.44303   0.44454   0.45022
 Alpha virt. eigenvalues --    0.45492   0.45620   0.45904   0.46451   0.46827
 Alpha virt. eigenvalues --    0.47627   0.48131   0.48300   0.48704   0.49307
 Alpha virt. eigenvalues --    0.50439   0.51065   0.51337   0.52020   0.52500
 Alpha virt. eigenvalues --    0.53299   0.54381   0.55256   0.56113   0.56253
 Alpha virt. eigenvalues --    0.56550   0.57830   0.58675   0.59410   0.59669
 Alpha virt. eigenvalues --    0.60236   0.62000   0.62339   0.62686   0.63423
 Alpha virt. eigenvalues --    0.64149   0.64925   0.65186   0.65672   0.66138
 Alpha virt. eigenvalues --    0.66951   0.67633   0.68459   0.70601   0.71082
 Alpha virt. eigenvalues --    0.72046   0.72849   0.75201   0.75690   0.76386
 Alpha virt. eigenvalues --    0.76941   0.79460   0.80700   0.82562   0.82900
 Alpha virt. eigenvalues --    0.83614   0.85043   0.87255   0.88006   0.89544
 Alpha virt. eigenvalues --    0.91273   1.01445   1.04487   1.04850   1.09227
 Alpha virt. eigenvalues --    1.11536   1.12519   1.13247   1.13437   1.14942
 Alpha virt. eigenvalues --    1.15335   1.16576   1.16835   1.17332   1.17954
 Alpha virt. eigenvalues --    1.18988   1.19305   1.20092   1.20592   1.21304
 Alpha virt. eigenvalues --    1.22367   1.22747   1.23322   1.23526   1.23729
 Alpha virt. eigenvalues --    1.24055   1.25111   1.25283   1.25984   1.26118
 Alpha virt. eigenvalues --    1.26486   1.27643   1.27807   1.28088   1.28379
 Alpha virt. eigenvalues --    1.29616   1.29949   1.30789   1.31498   1.32489
 Alpha virt. eigenvalues --    1.33135   1.34115   1.34876   1.34920   1.35479
 Alpha virt. eigenvalues --    1.35929   1.36770   1.37256   1.37268   1.37476
 Alpha virt. eigenvalues --    1.37957   1.38558   1.38576   1.39112   1.39335
 Alpha virt. eigenvalues --    1.39703   1.40299   1.40442   1.41690   1.42298
 Alpha virt. eigenvalues --    1.42729   1.42978   1.43488   1.43607   1.44047
 Alpha virt. eigenvalues --    1.44690   1.45157   1.45537   1.45634   1.46138
 Alpha virt. eigenvalues --    1.46428   1.46545   1.47541   1.47920   1.48278
 Alpha virt. eigenvalues --    1.49386   1.49670   1.50067   1.51872   1.52213
 Alpha virt. eigenvalues --    1.52709   1.53177   1.54513   1.55002   1.55248
 Alpha virt. eigenvalues --    1.55733   1.56136   1.57130   1.58502   1.59281
 Alpha virt. eigenvalues --    1.59388   1.59878   1.60382   1.61831   1.62184
 Alpha virt. eigenvalues --    1.62938   1.63557   1.64533   1.65047   1.65941
 Alpha virt. eigenvalues --    1.66215   1.66627   1.66797   1.66881   1.67924
 Alpha virt. eigenvalues --    1.68270   1.68488   1.68968   1.69268   1.69645
 Alpha virt. eigenvalues --    1.69997   1.70760   1.71123   1.71807   1.71977
 Alpha virt. eigenvalues --    1.72528   1.72815   1.74104   1.74332   1.74656
 Alpha virt. eigenvalues --    1.75765   1.76570   1.76834   1.77504   1.78913
 Alpha virt. eigenvalues --    1.79983   1.81006   1.81242   1.82316   1.83303
 Alpha virt. eigenvalues --    1.83637   1.84376   1.85200   1.86178   1.87686
 Alpha virt. eigenvalues --    1.89120   1.90069   1.90841   1.91050   1.91671
 Alpha virt. eigenvalues --    1.91994   1.92176   1.93037   1.95015   1.95363
 Alpha virt. eigenvalues --    1.96084   1.96780   1.98672   1.99616   2.00327
 Alpha virt. eigenvalues --    2.00537   2.03128   2.04783   2.05381   2.07021
 Alpha virt. eigenvalues --    2.07416   2.08786   2.09766   2.10511   2.10952
 Alpha virt. eigenvalues --    2.11679   2.14215   2.16217   2.17179   2.17352
 Alpha virt. eigenvalues --    2.18414   2.18573   2.19080   2.19342   2.20130
 Alpha virt. eigenvalues --    2.21469   2.21674   2.22202   2.22296   2.22812
 Alpha virt. eigenvalues --    2.23336   2.24294   2.24888   2.25369   2.25534
 Alpha virt. eigenvalues --    2.25708   2.26631   2.26941   2.27134   2.27503
 Alpha virt. eigenvalues --    2.27744   2.29186   2.31374   2.32361   2.33142
 Alpha virt. eigenvalues --    2.33794   2.35025   2.37837   2.39668   2.39728
 Alpha virt. eigenvalues --    2.40195   2.41040   2.41156   2.42492   2.43920
 Alpha virt. eigenvalues --    2.44113   2.44419   2.45834   2.46412   2.46788
 Alpha virt. eigenvalues --    2.46802   2.47860   2.48256   2.48719   2.50822
 Alpha virt. eigenvalues --    2.52378   2.53041   2.53363   2.54363   2.55075
 Alpha virt. eigenvalues --    2.55436   2.55844   2.56709   2.57503   2.58709
 Alpha virt. eigenvalues --    2.60924   2.61140   2.61780   2.62082   2.62466
 Alpha virt. eigenvalues --    2.63501   2.63881   2.65376   2.65990   2.67997
 Alpha virt. eigenvalues --    2.70585   2.71929   2.73145   2.73753   2.74041
 Alpha virt. eigenvalues --    2.74793   2.76808   2.82187   2.87056   2.89793
 Alpha virt. eigenvalues --    2.90737   2.94311   2.96878   2.98346   2.99734
 Alpha virt. eigenvalues --    3.00881   3.01778   3.01971   3.03673   3.03755
 Alpha virt. eigenvalues --    3.04477   3.05036   3.05425   3.07551   3.08083
 Alpha virt. eigenvalues --    3.09621   3.12778   3.13606   3.15422   3.17683
 Alpha virt. eigenvalues --    3.18136   3.18321   3.18678   3.19072   3.20525
 Alpha virt. eigenvalues --    3.23005   3.25195   3.25754   3.27937   3.31464
 Alpha virt. eigenvalues --    3.32656   3.33024   3.34590   3.45407   3.50166
 Alpha virt. eigenvalues --    3.50594   3.59716   3.59779   3.67339   3.68175
 Alpha virt. eigenvalues --    3.85553  18.56720  18.87988  21.00976  21.11102
 Alpha virt. eigenvalues --   21.37489  21.45688  21.51230  21.57176  21.61260
 Alpha virt. eigenvalues --   21.63695  21.65344  21.73067  21.79719  21.81126
 Alpha virt. eigenvalues --   21.82963  21.83451  21.83805  21.97633  21.99707
 Alpha virt. eigenvalues --   22.03103  22.03614  31.51801  31.66749
          Condensed to atoms (all electrons):
               1          2          3          4          5          6
     1  C    5.405592   0.098259  -0.112499   0.113496  -0.001606  -0.000021
     2  C    0.098259   6.084000   0.502227  -0.463776  -0.006348   0.014862
     3  S   -0.112499   0.502227  15.545451  -0.220399  -0.007412  -0.000428
     4  C    0.113496  -0.463776  -0.220399   6.617144  -0.022080  -0.053609
     5  C   -0.001606  -0.006348  -0.007412  -0.022080   5.859870   0.311604
     6  C   -0.000021   0.014862  -0.000428  -0.053609   0.311604   5.523789
     7  C    0.268719   0.174992   0.015487  -0.295284  -0.001099   0.001633
     8  C   -0.225855   0.216491   0.033539  -0.182953   0.005849   0.008999
     9  H   -0.000279   0.019997   0.002346  -0.044104  -0.007129  -0.008805
    10  C   -0.000127   0.002013   0.006664  -0.022873  -0.005724  -0.145058
    11  C   -0.000122  -0.002528  -0.000299   0.013602   0.048573   0.406355
    12  C    0.000050   0.001358   0.000228  -0.005160  -0.277551   0.091308
    13  C    0.000014  -0.001968  -0.001155   0.003585   0.168358  -0.110384
    14  H    0.000029   0.000046   0.000717  -0.000383   0.003080   0.007991
    15  H    0.000012  -0.000127  -0.000002   0.000542   0.029523  -0.057977
    16  H    0.000000   0.000003   0.000001  -0.000022   0.000657   0.014869
    17  C    0.134813  -0.220022  -0.006604   0.221040   0.004394  -0.013817
    18  H    0.416725  -0.083907  -0.001039   0.045394  -0.000012  -0.000023
    19  H   -0.003849  -0.027939   0.317342  -0.009428  -0.000024   0.000048
    20  H   -0.073704   0.024223  -0.000271  -0.005186  -0.000006  -0.000003
    21  H   -0.002670   0.022440   0.000004  -0.088819  -0.001192   0.011255
    22  H    0.018777  -0.004526  -0.000000   0.025993  -0.000073  -0.000406
    23  S    0.013901  -0.113473   0.006220   0.350217   0.077939  -0.147451
    24  C    0.000001  -0.000320  -0.000140   0.000385   0.008855   0.016944
    25  C   -0.000000  -0.000003  -0.000005   0.000005  -0.017018  -0.002865
    26  C    0.000000  -0.000010  -0.000023   0.000011   0.022936   0.001985
    27  N   -0.000000  -0.000000  -0.000000   0.000000  -0.000074   0.000020
    28  N    0.000000  -0.000000   0.000003  -0.000000  -0.000121   0.000016
    29  C   -0.000000   0.000000  -0.000000  -0.000000  -0.000132   0.000072
    30  H    0.000000  -0.000000   0.000000   0.000000   0.000006   0.000000
    31  H    0.000000  -0.000000   0.000000   0.000000   0.000132  -0.000061
    32  H   -0.000000  -0.000000   0.000000  -0.000000  -0.000003  -0.000000
    33  C   -0.000000  -0.000000  -0.000000   0.000000  -0.000015  -0.000001
    34  H    0.000000  -0.000000   0.000000   0.000000   0.000000   0.000000
    35  H   -0.000000   0.000000  -0.000000  -0.000000  -0.000000  -0.000000
    36  H    0.000000   0.000000   0.000000  -0.000000  -0.000000   0.000000
    37  C   -0.000000  -0.000002  -0.000230   0.000012  -0.000330   0.000027
    38  H   -0.000000   0.000000   0.000008  -0.000000  -0.000127  -0.000006
    39  H    0.000003   0.000002   0.000681  -0.000028  -0.000031  -0.000046
    40  H    0.000000  -0.000000   0.000012   0.000000   0.000081   0.000003
    41  C    0.000000  -0.000000  -0.000000   0.000000   0.000027   0.000001
    42  H   -0.000000   0.000000  -0.000000  -0.000000  -0.000002  -0.000000
    43  H    0.000000  -0.000000   0.000000   0.000000   0.000001   0.000000
    44  H    0.000000   0.000000   0.000000   0.000000   0.000000   0.000000
               7          8          9         10         11         12
     1  C    0.268719  -0.225855  -0.000279  -0.000127  -0.000122   0.000050
     2  C    0.174992   0.216491   0.019997   0.002013  -0.002528   0.001358
     3  S    0.015487   0.033539   0.002346   0.006664  -0.000299   0.000228
     4  C   -0.295284  -0.182953  -0.044104  -0.022873   0.013602  -0.005160
     5  C   -0.001099   0.005849  -0.007129  -0.005724   0.048573  -0.277551
     6  C    0.001633   0.008999  -0.008805  -0.145058   0.406355   0.091308
     7  C    5.121025   0.128247   0.000246   0.000109  -0.000813   0.000088
     8  C    0.128247   5.548067  -0.005410   0.013468   0.000317   0.001060
     9  H    0.000246  -0.005410   0.585449  -0.001236  -0.000905   0.000300
    10  C    0.000109   0.013468  -0.001236   5.845000  -0.080051  -0.061402
    11  C   -0.000813   0.000317  -0.000905  -0.080051   5.140744   0.203613
    12  C    0.000088   0.001060   0.000300  -0.061402   0.203613   5.667780
    13  C   -0.000047  -0.001661  -0.001187   0.232273   0.074141   0.334153
    14  H   -0.000002   0.000048   0.000142   0.361037  -0.001786   0.005937
    15  H   -0.000053  -0.000207  -0.000000  -0.000054   0.418917  -0.111239
    16  H    0.000000   0.000003   0.000002   0.010891  -0.020224   0.403295
    17  C    0.333538   0.168438   0.000440  -0.000243  -0.000703  -0.000178
    18  H   -0.066527  -0.007006  -0.000001  -0.000004   0.000005  -0.000002
    19  H   -0.000463   0.001858  -0.000049   0.000061  -0.000001   0.000001
    20  H    0.434809   0.021384   0.000001   0.000001  -0.000001   0.000000
    21  H    0.014025   0.414652   0.001470   0.000883  -0.000703   0.000379
    22  H   -0.062779  -0.066070  -0.000033  -0.000014  -0.000008  -0.000006
    23  S   -0.000574  -0.093405   0.318821   0.033524  -0.003465  -0.008437
    24  C   -0.000003  -0.000080  -0.000119  -0.066492   0.057802  -0.181148
    25  C    0.000000   0.000001  -0.000005   0.061641   0.014610  -0.059800
    26  C   -0.000000  -0.000008   0.000001  -0.073575  -0.001954   0.032325
    27  N    0.000000   0.000000  -0.000000   0.000385   0.000226   0.001044
    28  N    0.000000  -0.000000  -0.000000   0.001578   0.000011   0.000154
    29  C    0.000000   0.000000  -0.000000   0.000162  -0.000362  -0.002427
    30  H   -0.000000  -0.000000  -0.000000  -0.000034  -0.000074   0.000095
    31  H   -0.000000  -0.000000   0.000000  -0.000413   0.000124   0.005692
    32  H    0.000000  -0.000000   0.000000   0.000028   0.000054  -0.000099
    33  C    0.000000   0.000000  -0.000000   0.000090   0.000015  -0.000032
    34  H   -0.000000  -0.000000  -0.000000  -0.000002  -0.000002  -0.000002
    35  H    0.000000   0.000000   0.000000  -0.000000   0.000001  -0.000010
    36  H    0.000000  -0.000000   0.000000   0.000006   0.000000   0.000010
    37  C   -0.000000  -0.000000  -0.000002  -0.002044  -0.000015  -0.000136
    38  H    0.000000   0.000000   0.000000   0.000157   0.000005  -0.000029
    39  H    0.000000  -0.000001   0.000006   0.006134   0.000027  -0.000050
    40  H   -0.000000  -0.000000   0.000000  -0.000146  -0.000003   0.000023
    41  C   -0.000000  -0.000000   0.000000  -0.000012  -0.000003   0.000062
    42  H    0.000000   0.000000   0.000000  -0.000004   0.000000  -0.000001
    43  H   -0.000000  -0.000000  -0.000000  -0.000011  -0.000000  -0.000001
    44  H   -0.000000   0.000000   0.000000   0.000009  -0.000000   0.000007
              13         14         15         16         17         18
     1  C    0.000014   0.000029   0.000012   0.000000   0.134813   0.416725
     2  C   -0.001968   0.000046  -0.000127   0.000003  -0.220022  -0.083907
     3  S   -0.001155   0.000717  -0.000002   0.000001  -0.006604  -0.001039
     4  C    0.003585  -0.000383   0.000542  -0.000022   0.221040   0.045394
     5  C    0.168358   0.003080   0.029523   0.000657   0.004394  -0.000012
     6  C   -0.110384   0.007991  -0.057977   0.014869  -0.013817  -0.000023
     7  C   -0.000047  -0.000002  -0.000053   0.000000   0.333538  -0.066527
     8  C   -0.001661   0.000048  -0.000207   0.000003   0.168438  -0.007006
     9  H   -0.001187   0.000142  -0.000000   0.000002   0.000440  -0.000001
    10  C    0.232273   0.361037  -0.000054   0.010891  -0.000243  -0.000004
    11  C    0.074141  -0.001786   0.418917  -0.020224  -0.000703   0.000005
    12  C    0.334153   0.005937  -0.111239   0.403295  -0.000178  -0.000002
    13  C    6.703801  -0.086798   0.019387  -0.107334   0.000162   0.000002
    14  H   -0.086798   0.530190   0.000055  -0.000025   0.000010   0.000000
    15  H    0.019387   0.000055   0.574178  -0.003843   0.000150   0.000000
    16  H   -0.107334  -0.000025  -0.003843   0.554757   0.000001  -0.000000
    17  C    0.000162   0.000010   0.000150   0.000001   5.142116   0.017964
    18  H    0.000002   0.000000   0.000000  -0.000000   0.017964   0.545690
    19  H    0.000001  -0.000011  -0.000000  -0.000000  -0.000200  -0.000319
    20  H   -0.000000  -0.000000  -0.000000  -0.000000  -0.066508  -0.008040
    21  H   -0.000269  -0.000009  -0.000145  -0.000000  -0.024373  -0.000042
    22  H    0.000003   0.000000   0.000014   0.000000   0.425991  -0.000119
    23  S    0.002660   0.011408   0.000374   0.000048   0.021270  -0.000374
    24  C   -0.420009   0.013913   0.002435   0.002714   0.000016   0.000000
    25  C   -0.421441   0.005143   0.000307   0.002548  -0.000000   0.000000
    26  C   -0.349261   0.005854   0.000100   0.004765   0.000000   0.000000
    27  N   -0.025706   0.000055   0.000007   0.000241   0.000000   0.000000
    28  N   -0.023425   0.000472   0.000000   0.000036   0.000000   0.000000
    29  C   -0.011748   0.000004  -0.000041  -0.001563  -0.000000  -0.000000
    30  H   -0.000258   0.000000  -0.000000   0.000026   0.000000   0.000000
    31  H   -0.016160  -0.000016   0.000033  -0.000170   0.000000   0.000000
    32  H    0.000656   0.000000   0.000001   0.000298  -0.000000  -0.000000
    33  C   -0.002786   0.000004   0.000000   0.000017  -0.000000   0.000000
    34  H    0.000020   0.000000  -0.000000   0.000010   0.000000   0.000000
    35  H    0.000056  -0.000000   0.000000   0.000001  -0.000000  -0.000000
    36  H   -0.000156  -0.000001  -0.000000  -0.000001  -0.000000  -0.000000
    37  C   -0.013784  -0.001434  -0.000000  -0.000009   0.000000   0.000000
    38  H   -0.000509   0.000161   0.000000   0.000000  -0.000000  -0.000000
    39  H   -0.015021   0.000682  -0.000000  -0.000006   0.000000  -0.000000
    40  H    0.000893   0.000245   0.000000   0.000000   0.000000   0.000000
    41  C   -0.002763   0.000035   0.000000   0.000003   0.000000   0.000000
    42  H   -0.000009   0.000009   0.000000   0.000000  -0.000000  -0.000000
    43  H    0.000105  -0.000000  -0.000000  -0.000000   0.000000   0.000000
    44  H   -0.000174  -0.000000  -0.000000  -0.000001   0.000000   0.000000
              19         20         21         22         23         24
     1  C   -0.003849  -0.073704  -0.002670   0.018777   0.013901   0.000001
     2  C   -0.027939   0.024223   0.022440  -0.004526  -0.113473  -0.000320
     3  S    0.317342  -0.000271   0.000004  -0.000000   0.006220  -0.000140
     4  C   -0.009428  -0.005186  -0.088819   0.025993   0.350217   0.000385
     5  C   -0.000024  -0.000006  -0.001192  -0.000073   0.077939   0.008855
     6  C    0.000048  -0.000003   0.011255  -0.000406  -0.147451   0.016944
     7  C   -0.000463   0.434809   0.014025  -0.062779  -0.000574  -0.000003
     8  C    0.001858   0.021384   0.414652  -0.066070  -0.093405  -0.000080
     9  H   -0.000049   0.000001   0.001470  -0.000033   0.318821  -0.000119
    10  C    0.000061   0.000001   0.000883  -0.000014   0.033524  -0.066492
    11  C   -0.000001  -0.000001  -0.000703  -0.000008  -0.003465   0.057802
    12  C    0.000001   0.000000   0.000379  -0.000006  -0.008437  -0.181148
    13  C    0.000001  -0.000000  -0.000269   0.000003   0.002660  -0.420009
    14  H   -0.000011  -0.000000  -0.000009   0.000000   0.011408   0.013913
    15  H   -0.000000  -0.000000  -0.000145   0.000014   0.000374   0.002435
    16  H   -0.000000  -0.000000  -0.000000   0.000000   0.000048   0.002714
    17  C   -0.000200  -0.066508  -0.024373   0.425991   0.021270   0.000016
    18  H   -0.000319  -0.008040  -0.000042  -0.000119  -0.000374   0.000000
    19  H    0.596241   0.000009   0.000029  -0.000003   0.002908  -0.000001
    20  H    0.000009   0.550114  -0.000228  -0.008602   0.000036  -0.000000
    21  H    0.000029  -0.000228   0.545989  -0.007736  -0.014391  -0.000021
    22  H   -0.000003  -0.008602  -0.007736   0.550838  -0.000293   0.000000
    23  S    0.002908   0.000036  -0.014391  -0.000293  15.418571   0.008677
    24  C   -0.000001  -0.000000  -0.000021   0.000000   0.008677   7.216238
    25  C    0.000000   0.000000   0.000000  -0.000000   0.000190  -0.001685
    26  C    0.000000  -0.000000  -0.000000   0.000000   0.000229   0.078140
    27  N   -0.000000   0.000000  -0.000000   0.000000   0.000000  -0.153616
    28  N   -0.000000   0.000000  -0.000000   0.000000   0.000011  -0.146089
    29  C    0.000000   0.000000   0.000000  -0.000000  -0.000000  -0.002792
    30  H   -0.000000  -0.000000  -0.000000   0.000000   0.000000   0.005655
    31  H   -0.000000  -0.000000  -0.000000   0.000000   0.000001   0.009090
    32  H   -0.000000   0.000000   0.000000  -0.000000   0.000000  -0.003320
    33  C    0.000000   0.000000   0.000000  -0.000000   0.000000  -0.014279
    34  H    0.000000  -0.000000  -0.000000   0.000000  -0.000000   0.001160
    35  H   -0.000000   0.000000   0.000000  -0.000000  -0.000000  -0.002350
    36  H    0.000000   0.000000   0.000000   0.000000  -0.000000   0.007305
    37  C    0.000004  -0.000000   0.000000   0.000000  -0.000062  -0.002875
    38  H   -0.000000   0.000000   0.000000  -0.000000   0.000009   0.005268
    39  H   -0.000010   0.000000  -0.000000   0.000000   0.000136   0.007481
    40  H   -0.000000  -0.000000  -0.000000   0.000000   0.000002  -0.003030
    41  C    0.000000  -0.000000  -0.000000   0.000000   0.000000  -0.012864
    42  H    0.000000   0.000000   0.000000  -0.000000  -0.000000   0.000830
    43  H   -0.000000  -0.000000  -0.000000   0.000000   0.000000  -0.001847
    44  H   -0.000000  -0.000000  -0.000000   0.000000  -0.000000   0.006790
              25         26         27         28         29         30
     1  C   -0.000000   0.000000  -0.000000   0.000000  -0.000000   0.000000
     2  C   -0.000003  -0.000010  -0.000000  -0.000000   0.000000  -0.000000
     3  S   -0.000005  -0.000023  -0.000000   0.000003  -0.000000   0.000000
     4  C    0.000005   0.000011   0.000000  -0.000000  -0.000000   0.000000
     5  C   -0.017018   0.022936  -0.000074  -0.000121  -0.000132   0.000006
     6  C   -0.002865   0.001985   0.000020   0.000016   0.000072   0.000000
     7  C    0.000000  -0.000000   0.000000   0.000000   0.000000  -0.000000
     8  C    0.000001  -0.000008   0.000000  -0.000000   0.000000  -0.000000
     9  H   -0.000005   0.000001  -0.000000  -0.000000  -0.000000  -0.000000
    10  C    0.061641  -0.073575   0.000385   0.001578   0.000162  -0.000034
    11  C    0.014610  -0.001954   0.000226   0.000011  -0.000362  -0.000074
    12  C   -0.059800   0.032325   0.001044   0.000154  -0.002427   0.000095
    13  C   -0.421441  -0.349261  -0.025706  -0.023425  -0.011748  -0.000258
    14  H    0.005143   0.005854   0.000055   0.000472   0.000004   0.000000
    15  H    0.000307   0.000100   0.000007   0.000000  -0.000041  -0.000000
    16  H    0.002548   0.004765   0.000241   0.000036  -0.001563   0.000026
    17  C   -0.000000   0.000000   0.000000   0.000000  -0.000000   0.000000
    18  H    0.000000   0.000000   0.000000   0.000000  -0.000000   0.000000
    19  H    0.000000   0.000000  -0.000000  -0.000000   0.000000  -0.000000
    20  H    0.000000  -0.000000   0.000000   0.000000   0.000000  -0.000000
    21  H    0.000000  -0.000000  -0.000000  -0.000000   0.000000  -0.000000
    22  H   -0.000000   0.000000   0.000000   0.000000  -0.000000   0.000000
    23  S    0.000190   0.000229   0.000000   0.000011  -0.000000   0.000000
    24  C   -0.001685   0.078140  -0.153616  -0.146089  -0.002792   0.005655
    25  C    6.217856  -0.211892   0.554942  -0.075367  -0.047729  -0.000893
    26  C   -0.211892   6.111562  -0.079583   0.542745  -0.001528  -0.001245
    27  N    0.554942  -0.079583   6.424503  -0.000903   0.229296  -0.035892
    28  N   -0.075367   0.542745  -0.000903   6.425995  -0.000668   0.000004
    29  C   -0.047729  -0.001528   0.229296  -0.000668   4.940128   0.405806
    30  H   -0.000893  -0.001245  -0.035892   0.000004   0.405806   0.512657
    31  H   -0.017362   0.018034  -0.026290   0.000082   0.390750  -0.017068
    32  H    0.005926  -0.001147  -0.041018  -0.000003   0.407467  -0.031941
    33  C   -0.059251  -0.008751   0.248065   0.000409  -0.061925  -0.009777
    34  H    0.008732  -0.001084  -0.038950  -0.000022  -0.002081   0.006322
    35  H   -0.002791   0.002985  -0.039761  -0.000072  -0.005808  -0.001183
    36  H   -0.013352   0.000428  -0.026989  -0.001898   0.009702  -0.000053
    37  C    0.002527  -0.051027  -0.000622   0.227973   0.000020  -0.000002
    38  H   -0.001316  -0.000477   0.000004  -0.035506  -0.000002  -0.000000
    39  H    0.015710  -0.015048   0.000060  -0.026215   0.000006  -0.000000
    40  H   -0.001324   0.006012  -0.000006  -0.041509  -0.000000   0.000000
    41  C   -0.007608  -0.060818   0.000362   0.247496  -0.000150   0.000004
    42  H   -0.001011   0.008888  -0.000017  -0.038330   0.000000  -0.000000
    43  H    0.003001  -0.002841  -0.000087  -0.040600   0.000007   0.000001
    44  H   -0.000161  -0.013361  -0.001810  -0.026383   0.000001   0.000001
              31         32         33         34         35         36
     1  C    0.000000  -0.000000  -0.000000   0.000000  -0.000000   0.000000
     2  C   -0.000000  -0.000000  -0.000000  -0.000000   0.000000   0.000000
     3  S    0.000000   0.000000  -0.000000   0.000000  -0.000000   0.000000
     4  C    0.000000  -0.000000   0.000000   0.000000  -0.000000  -0.000000
     5  C    0.000132  -0.000003  -0.000015   0.000000  -0.000000  -0.000000
     6  C   -0.000061  -0.000000  -0.000001   0.000000  -0.000000   0.000000
     7  C   -0.000000   0.000000   0.000000  -0.000000   0.000000   0.000000
     8  C   -0.000000  -0.000000   0.000000  -0.000000   0.000000  -0.000000
     9  H    0.000000   0.000000  -0.000000  -0.000000   0.000000   0.000000
    10  C   -0.000413   0.000028   0.000090  -0.000002  -0.000000   0.000006
    11  C    0.000124   0.000054   0.000015  -0.000002   0.000001   0.000000
    12  C    0.005692  -0.000099  -0.000032  -0.000002  -0.000010   0.000010
    13  C   -0.016160   0.000656  -0.002786   0.000020   0.000056  -0.000156
    14  H   -0.000016   0.000000   0.000004   0.000000  -0.000000  -0.000001
    15  H    0.000033   0.000001   0.000000  -0.000000   0.000000  -0.000000
    16  H   -0.000170   0.000298   0.000017   0.000010   0.000001  -0.000001
    17  C    0.000000  -0.000000  -0.000000   0.000000  -0.000000  -0.000000
    18  H    0.000000  -0.000000   0.000000   0.000000  -0.000000  -0.000000
    19  H   -0.000000  -0.000000   0.000000   0.000000  -0.000000   0.000000
    20  H   -0.000000   0.000000   0.000000  -0.000000   0.000000   0.000000
    21  H   -0.000000   0.000000   0.000000  -0.000000   0.000000   0.000000
    22  H    0.000000  -0.000000  -0.000000   0.000000  -0.000000   0.000000
    23  S    0.000001   0.000000   0.000000  -0.000000  -0.000000  -0.000000
    24  C    0.009090  -0.003320  -0.014279   0.001160  -0.002350   0.007305
    25  C   -0.017362   0.005926  -0.059251   0.008732  -0.002791  -0.013352
    26  C    0.018034  -0.001147  -0.008751  -0.001084   0.002985   0.000428
    27  N   -0.026290  -0.041018   0.248065  -0.038950  -0.039761  -0.026989
    28  N    0.000082  -0.000003   0.000409  -0.000022  -0.000072  -0.001898
    29  C    0.390750   0.407467  -0.061925  -0.002081  -0.005808   0.009702
    30  H   -0.017068  -0.031941  -0.009777   0.006322  -0.001183  -0.000053
    31  H    0.510718  -0.021041   0.008411   0.000429  -0.000277  -0.000491
    32  H   -0.021041   0.517310   0.000932  -0.003137   0.005400   0.000100
    33  C    0.008411   0.000932   4.942784   0.399031   0.415768   0.392584
    34  H    0.000429  -0.003137   0.399031   0.513861  -0.030257  -0.020038
    35  H   -0.000277   0.005400   0.415768  -0.030257   0.509167  -0.023580
    36  H   -0.000491   0.000100   0.392584  -0.020038  -0.023580   0.535770
    37  C    0.000006  -0.000000  -0.000137  -0.000000   0.000007   0.000010
    38  H   -0.000000   0.000000   0.000004  -0.000000   0.000001   0.000001
    39  H   -0.000001   0.000000   0.000022  -0.000000   0.000000   0.000004
    40  H    0.000000  -0.000000  -0.000006   0.000000  -0.000000   0.000000
    41  C    0.000029  -0.000004  -0.003457   0.000186  -0.000098  -0.002085
    42  H   -0.000001   0.000000   0.000191  -0.000007   0.000014   0.000252
    43  H    0.000000  -0.000000  -0.000115   0.000017  -0.000025  -0.000143
    44  H    0.000005   0.000001  -0.002387   0.000249  -0.000108   0.002819
              37         38         39         40         41         42
     1  C   -0.000000  -0.000000   0.000003   0.000000   0.000000  -0.000000
     2  C   -0.000002   0.000000   0.000002  -0.000000  -0.000000   0.000000
     3  S   -0.000230   0.000008   0.000681   0.000012  -0.000000  -0.000000
     4  C    0.000012  -0.000000  -0.000028   0.000000   0.000000  -0.000000
     5  C   -0.000330  -0.000127  -0.000031   0.000081   0.000027  -0.000002
     6  C    0.000027  -0.000006  -0.000046   0.000003   0.000001  -0.000000
     7  C   -0.000000   0.000000   0.000000  -0.000000  -0.000000   0.000000
     8  C   -0.000000   0.000000  -0.000001  -0.000000  -0.000000   0.000000
     9  H   -0.000002   0.000000   0.000006   0.000000   0.000000   0.000000
    10  C   -0.002044   0.000157   0.006134  -0.000146  -0.000012  -0.000004
    11  C   -0.000015   0.000005   0.000027  -0.000003  -0.000003   0.000000
    12  C   -0.000136  -0.000029  -0.000050   0.000023   0.000062  -0.000001
    13  C   -0.013784  -0.000509  -0.015021   0.000893  -0.002763  -0.000009
    14  H   -0.001434   0.000161   0.000682   0.000245   0.000035   0.000009
    15  H   -0.000000   0.000000  -0.000000   0.000000   0.000000   0.000000
    16  H   -0.000009   0.000000  -0.000006   0.000000   0.000003   0.000000
    17  C    0.000000  -0.000000   0.000000   0.000000   0.000000  -0.000000
    18  H    0.000000  -0.000000  -0.000000   0.000000   0.000000  -0.000000
    19  H    0.000004  -0.000000  -0.000010  -0.000000   0.000000   0.000000
    20  H   -0.000000   0.000000   0.000000  -0.000000  -0.000000   0.000000
    21  H    0.000000   0.000000  -0.000000  -0.000000  -0.000000   0.000000
    22  H    0.000000  -0.000000   0.000000   0.000000   0.000000  -0.000000
    23  S   -0.000062   0.000009   0.000136   0.000002   0.000000  -0.000000
    24  C   -0.002875   0.005268   0.007481  -0.003030  -0.012864   0.000830
    25  C    0.002527  -0.001316   0.015710  -0.001324  -0.007608  -0.001011
    26  C   -0.051027  -0.000477  -0.015048   0.006012  -0.060818   0.008888
    27  N   -0.000622   0.000004   0.000060  -0.000006   0.000362  -0.000017
    28  N    0.227973  -0.035506  -0.026215  -0.041509   0.247496  -0.038330
    29  C    0.000020  -0.000002   0.000006  -0.000000  -0.000150   0.000000
    30  H   -0.000002  -0.000000  -0.000000   0.000000   0.000004  -0.000000
    31  H    0.000006  -0.000000  -0.000001   0.000000   0.000029  -0.000001
    32  H   -0.000000   0.000000   0.000000  -0.000000  -0.000004   0.000000
    33  C   -0.000137   0.000004   0.000022  -0.000006  -0.003457   0.000191
    34  H   -0.000000  -0.000000  -0.000000   0.000000   0.000186  -0.000007
    35  H    0.000007   0.000001   0.000000  -0.000000  -0.000098   0.000014
    36  H    0.000010   0.000001   0.000004   0.000000  -0.002085   0.000252
    37  C    4.948345   0.404625   0.388776   0.407353  -0.061752  -0.002217
    38  H    0.404625   0.515329  -0.017000  -0.031942  -0.009954   0.006361
    39  H    0.388776  -0.017000   0.508961  -0.020578   0.008439   0.000453
    40  H    0.407353  -0.031942  -0.020578   0.516261   0.001054  -0.003138
    41  C   -0.061752  -0.009954   0.008439   0.001054   4.943661   0.398346
    42  H   -0.002217   0.006361   0.000453  -0.003138   0.398346   0.514683
    43  H   -0.005751  -0.001183  -0.000277   0.005354   0.416061  -0.030162
    44  H    0.009625  -0.000034  -0.000480   0.000081   0.393458  -0.020029
              43         44
     1  C    0.000000   0.000000
     2  C   -0.000000   0.000000
     3  S    0.000000   0.000000
     4  C    0.000000   0.000000
     5  C    0.000001   0.000000
     6  C    0.000000   0.000000
     7  C   -0.000000  -0.000000
     8  C   -0.000000   0.000000
     9  H   -0.000000   0.000000
    10  C   -0.000011   0.000009
    11  C   -0.000000  -0.000000
    12  C   -0.000001   0.000007
    13  C    0.000105  -0.000174
    14  H   -0.000000  -0.000000
    15  H   -0.000000  -0.000000
    16  H   -0.000000  -0.000001
    17  C    0.000000   0.000000
    18  H    0.000000   0.000000
    19  H   -0.000000  -0.000000
    20  H   -0.000000  -0.000000
    21  H   -0.000000  -0.000000
    22  H    0.000000   0.000000
    23  S    0.000000  -0.000000
    24  C   -0.001847   0.006790
    25  C    0.003001  -0.000161
    26  C   -0.002841  -0.013361
    27  N   -0.000087  -0.001810
    28  N   -0.040600  -0.026383
    29  C    0.000007   0.000001
    30  H    0.000001   0.000001
    31  H    0.000000   0.000005
    32  H   -0.000000   0.000001
    33  C   -0.000115  -0.002387
    34  H    0.000017   0.000249
    35  H   -0.000025  -0.000108
    36  H   -0.000143   0.002819
    37  C   -0.005751   0.009625
    38  H   -0.001183  -0.000034
    39  H   -0.000277  -0.000480
    40  H    0.005354   0.000081
    41  C    0.416061   0.393458
    42  H   -0.030162  -0.020029
    43  H    0.508944  -0.023853
    44  H   -0.023853   0.534469
 Mulliken charges:
               1
     1  C   -0.049658
     2  C   -0.235963
     3  S   -0.080421
     4  C    0.022678
     5  C   -0.193776
     6  C    0.129181
     7  C   -0.065275
     8  C    0.020235
     9  H    0.140044
    10  C   -0.116592
    11  C   -0.265116
    12  C   -0.041254
    13  C    0.073748
    14  H    0.143196
    15  H    0.127653
    16  H    0.138010
    17  C   -0.137696
    18  H    0.141635
    19  H    0.123797
    20  H    0.131971
    21  H    0.129472
    22  H    0.129053
    23  S    0.114772
    24  C   -0.436621
    25  C    0.049740
    26  C    0.036635
    27  N    0.012113
    28  N    0.010128
    29  C   -0.244463
    30  H    0.167844
    31  H    0.155812
    32  H    0.163540
    33  C   -0.245408
    34  H    0.165565
    35  H    0.172922
    36  H    0.139794
    37  C   -0.246878
    38  H    0.166154
    39  H    0.157210
    40  H    0.164308
    41  C   -0.247657
    42  H    0.164899
    43  H    0.173403
    44  H    0.141266
 Sum of Mulliken charges =   1.00000
 Mulliken charges with hydrogens summed into heavy atoms:
               1
     1  C    0.091978
     2  C   -0.235963
     3  S    0.043376
     4  C    0.022678
     5  C   -0.193776
     6  C    0.129181
     7  C    0.066696
     8  C    0.149707
    10  C    0.026604
    11  C   -0.137463
    12  C    0.096756
    13  C    0.073748
    17  C   -0.008642
    23  S    0.254816
    24  C   -0.436621
    25  C    0.049740
    26  C    0.036635
    27  N    0.012113
    28  N    0.010128
    29  C    0.242734
    33  C    0.232873
    37  C    0.240794
    41  C    0.231910
 Electronic spatial extent (au):  <R**2>=          12335.3586
 Charge=              1.0000 electrons
 Dipole moment (field-independent basis, Debye):
    X=            -12.4781    Y=              1.2022    Z=              0.5039  Tot=             12.5460
 Quadrupole moment (field-independent basis, Debye-Ang):
   XX=            -28.2430   YY=           -114.6652   ZZ=           -141.3544
   XY=             -6.8624   XZ=              4.8105   YZ=              3.2427
 Traceless Quadrupole moment (field-independent basis, Debye-Ang):
   XX=             66.5112   YY=            -19.9110   ZZ=            -46.6002
   XY=             -6.8624   XZ=              4.8105   YZ=              3.2427
 Octapole moment (field-independent basis, Debye-Ang**2):
  XXX=           -403.0596  YYY=             37.3556  ZZZ=              9.2973  XYY=            -90.9201
  XXY=            -38.6733  XXZ=            -51.3485  XZZ=             11.6759  YZZ=              1.5610
  YYZ=             -3.0167  XYZ=              1.5591
 Hexadecapole moment (field-independent basis, Debye-Ang**3):
 XXXX=          -9412.9480 YYYY=          -2558.7205 ZZZZ=           -705.4024 XXXY=            -30.8469
 XXXZ=            -97.8437 YYYX=            -91.8678 YYYZ=             61.4865 ZZZX=             20.9292
 ZZZY=            -11.9235 XXYY=          -2024.5679 XXZZ=          -2138.6238 YYZZ=           -598.9692
 XXYZ=             59.6272 YYXZ=             52.8431 ZZXY=            -18.9659
 N-N= 2.022484843669D+03 E-N=-7.878566784525D+03  KE= 1.634568203663D+03
 No NMR shielding tensors so no spin-rotation constants.
 Leave Link  601 at Tue Jan 26 21:59:30 2021, MaxMem=  4026531840 cpu:               3.3 elap:               0.5
 (Enter /opt/ohpc/pub/libs/gaussian/g16-A.03/sandybridge/g16/l9999.exe)

 Test job not archived.
 1\1\GINC-GNODE020\SP\RLC-wHPBE\TZVP\C19H21N2S2(1+)\RDU230\26-Jan-2021\
 0\\#P LC-wHPBE/TZVP iop(3/107=0173000000, 3/108=0173000000) scf=(conve
 r=6,fermi,ndamp=35,noincfock,novaracc,vshift=500,xqc)\\H21 C19 S2 N2\\
 1,1\C,0,5.141333,0.341453,-1.428653\C,0,4.24633,0.793113,-0.45792\S,0,
 3.527427,2.438238,-0.612926\C,0,3.85258,-0.085202,0.570411\C,0,0.86370
 8,-0.787434,0.770822\C,0,1.152588,-1.949541,0.292605\C,0,5.641454,-0.9
 63707,-1.38032\C,0,4.337968,-1.397272,0.611701\H,0,2.805747,-0.536686,
 2.620663\C,0,-0.32759,-0.104924,0.757243\C,0,0.161049,-2.709273,-0.336
 618\C,0,-1.110551,-2.125038,-0.416532\C,0,-1.366563,-0.836811,0.116144
 \H,0,-0.506361,0.876389,1.203135\H,0,0.333628,-3.701573,-0.760587\H,0,
 -1.915541,-2.656529,-0.930176\C,0,5.242141,-1.827604,-0.363151\H,0,5.4
 50891,1.02542,-2.21936\H,0,4.15948,2.9901,0.460876\H,0,6.34791,-1.2988
 86,-2.140548\H,0,4.022912,-2.077842,1.402557\H,0,5.625918,-2.84765,-0.
 32369\S,0,2.641644,0.489998,1.741439\C,0,-2.680648,-0.257498,0.003764\
 C,0,-4.05427,-0.413992,-0.132503\C,0,-3.489875,0.870167,-0.052158\N,0,
 -5.09974,-1.211802,-0.243141\N,0,-3.607387,2.185094,-0.049886\C,0,-4.9
 5887,-2.66296,-0.086881\H,0,-5.24939,-3.175063,-1.01565\H,0,-3.921906,
 -2.911213,0.159186\H,0,-5.607057,-3.011636,0.730112\C,0,-6.456302,-0.7
 08508,-0.463149\H,0,-6.932296,-1.289768,-1.265044\H,0,-7.06234,-0.8046
 38,0.450448\H,0,-6.424137,0.340187,-0.774131\C,0,-2.422516,3.047015,-0
 .104701\H,0,-2.374233,3.683098,0.791036\H,0,-1.518165,2.434104,-0.1685
 34\H,0,-2.472812,3.689712,-0.995626\C,0,-4.905946,2.85982,-0.071613\H,
 0,-4.903422,3.671788,0.668659\H,0,-5.109136,3.28812,-1.064906\H,0,-5.7
 0105,2.156915,0.195603\\Version=EM64L-G16RevA.03\State=1-A\HF=-1641.31
 33021\RMSD=6.791e-07\Dipole=-4.909255,0.4729877,0.1982609\Quadrupole=4
 9.4494702,-14.8033435,-34.6461266,-5.1020036,3.5765003,2.4108896\PG=C0
 1 [X(C19H21N2S2)]\\@



 WE LOSE BECAUSE WE WIN

 GAMBLERS,

 RECOLLECTING WHICH,

 TOSS THEIR DICE AGAIN....


                          EMILY DICKINSON  BOLTS OF MELODY NO. 533
 Job cpu time:       0 days  1 hours 37 minutes  4.5 seconds.
 Elapsed time:       0 days  0 hours 12 minutes  9.4 seconds.
 File lengths (MBytes):  RWF=    156 Int=      0 D2E=      0 Chk=     24 Scr=      8
 Normal termination of Gaussian 16 at Tue Jan 26 21:59:30 2021.
