 Entering Gaussian System, Link 0=g16
 Input=mol_ta_cp_whol_tune_n0.gjf
 Output=mol_ta_cp_whol_tune_n0.log
 Initial command:
 /opt/ohpc/pub/libs/gaussian/g16-A.03/sandybridge/g16/l1.exe "/mnt/gpfs2_4m/scratch/rdu230/ondemand/projects/init_structures/gaussian/wtuning/mol_ta_cp_whol/tuning_mol_ta_cp_whol_ocycle0/Gau-117964.inp" -scrdir="/mnt/gpfs2_4m/scratch/rdu230/ondemand/projects/init_structures/gaussian/wtuning/mol_ta_cp_whol/tuning_mol_ta_cp_whol_ocycle0/"
 Entering Link 1 = /opt/ohpc/pub/libs/gaussian/g16-A.03/sandybridge/g16/l1.exe PID=    117965.
  
 Copyright (c) 1988,1990,1992,1993,1995,1998,2003,2009,2016,
            Gaussian, Inc.  All Rights Reserved.
  
 This is part of the Gaussian(R) 16 program.  It is based on
 the Gaussian(R) 09 system (copyright 2009, Gaussian, Inc.),
 the Gaussian(R) 03 system (copyright 2003, Gaussian, Inc.),
 the Gaussian(R) 98 system (copyright 1998, Gaussian, Inc.),
 the Gaussian(R) 94 system (copyright 1995, Gaussian, Inc.),
 the Gaussian 92(TM) system (copyright 1992, Gaussian, Inc.),
 the Gaussian 90(TM) system (copyright 1990, Gaussian, Inc.),
 the Gaussian 88(TM) system (copyright 1988, Gaussian, Inc.),
 the Gaussian 86(TM) system (copyright 1986, Carnegie Mellon
 University), and the Gaussian 82(TM) system (copyright 1983,
 Carnegie Mellon University). Gaussian is a federally registered
 trademark of Gaussian, Inc.
  
 This software contains proprietary and confidential information,
 including trade secrets, belonging to Gaussian, Inc.
  
 This software is provided under written license and may be
 used, copied, transmitted, or stored only in accord with that
 written license.
  
 The following legend is applicable only to US Government
 contracts under FAR:
  
                    RESTRICTED RIGHTS LEGEND
  
 Use, reproduction and disclosure by the US Government is
 subject to restrictions as set forth in subparagraphs (a)
 and (c) of the Commercial Computer Software - Restricted
 Rights clause in FAR 52.227-19.
  
 Gaussian, Inc.
 340 Quinnipiac St., Bldg. 40, Wallingford CT 06492
  
  
 ---------------------------------------------------------------
 Warning -- This program may not be used in any manner that
 competes with the business of Gaussian, Inc. or will provide
 assistance to any competitor of Gaussian, Inc.  The licensee
 of this program is prohibited from giving any competitor of
 Gaussian, Inc. access to this program.  By using this program,
 the user acknowledges that Gaussian, Inc. is engaged in the
 business of creating and licensing software in the field of
 computational chemistry and represents and warrants to the
 licensee that it is not a competitor of Gaussian, Inc. and that
 it will not use this program in any manner prohibited above.
 ---------------------------------------------------------------
  

 Cite this work as:
 Gaussian 16, Revision A.03,
 M. J. Frisch, G. W. Trucks, H. B. Schlegel, G. E. Scuseria, 
 M. A. Robb, J. R. Cheeseman, G. Scalmani, V. Barone, 
 G. A. Petersson, H. Nakatsuji, X. Li, M. Caricato, A. V. Marenich, 
 J. Bloino, B. G. Janesko, R. Gomperts, B. Mennucci, H. P. Hratchian, 
 J. V. Ortiz, A. F. Izmaylov, J. L. Sonnenberg, D. Williams-Young, 
 F. Ding, F. Lipparini, F. Egidi, J. Goings, B. Peng, A. Petrone, 
 T. Henderson, D. Ranasinghe, V. G. Zakrzewski, J. Gao, N. Rega, 
 G. Zheng, W. Liang, M. Hada, M. Ehara, K. Toyota, R. Fukuda, 
 J. Hasegawa, M. Ishida, T. Nakajima, Y. Honda, O. Kitao, H. Nakai, 
 T. Vreven, K. Throssell, J. A. Montgomery, Jr., J. E. Peralta, 
 F. Ogliaro, M. J. Bearpark, J. J. Heyd, E. N. Brothers, K. N. Kudin, 
 V. N. Staroverov, T. A. Keith, R. Kobayashi, J. Normand, 
 K. Raghavachari, A. P. Rendell, J. C. Burant, S. S. Iyengar, 
 J. Tomasi, M. Cossi, J. M. Millam, M. Klene, C. Adamo, R. Cammi, 
 J. W. Ochterski, R. L. Martin, K. Morokuma, O. Farkas, 
 J. B. Foresman, and D. J. Fox, Gaussian, Inc., Wallingford CT, 2016.
 
 ******************************************
 Gaussian 16:  EM64L-G16RevA.03 25-Dec-2016
                27-Jan-2021 
 ******************************************
 %mem=30GB
 %nproc=8
 Will use up to    8 processors via shared memory.
 ----------------------------------------------------------------------
 #P LC-wHPBE/TZVP iop(3/107=0221900000, 3/108=0221900000) scf=(conver=6
 ,fermi,ndamp=35,noincfock,novaracc,vshift=500,xqc)
 ----------------------------------------------------------------------
 1/38=1,172=1/1;
 2/12=2,17=6,18=5,40=1/2;
 3/5=19,7=101,11=2,25=1,30=1,74=-71,107=221900000,108=221900000/1,2,3;
 4//1;
 5/5=100002,6=6,8=3,10=500,13=1,18=-1,22=13,38=1,93=35/2,8;
 6/7=2,8=2,9=2,10=2,28=1/1;
 99/5=1,9=1/99;
 Leave Link    1 at Wed Jan 27 00:03:55 2021, MaxMem=  4026531840 cpu:               1.1 elap:               0.2
 (Enter /opt/ohpc/pub/libs/gaussian/g16-A.03/sandybridge/g16/l101.exe)
 -------------
 H32 C26 S2 N4
 -------------
 Symbolic Z-matrix:
 Charge =  2 Multiplicity = 1
 C                    -2.92895  -0.20959  -0.46643 
 C                    -1.56391  -0.06118  -0.30379 
 S                    -0.54963  -0.92994  -1.46504 
 C                    -1.08049   0.7448    0.70659 
 C                     1.72098  -1.17803   0.12402 
 C                     1.10473  -0.55679  -0.96128 
 C                    -3.80444   0.45306   0.37376 
 C                    -1.95757   1.39872   1.5461 
 H                    -0.01706   0.86739   0.84383 
 C                     3.05531  -0.9059    0.3754 
 C                     1.83438   0.30367  -1.7635 
 C                     3.15732   0.57014  -1.50685 
 C                     3.77282  -0.04371  -0.42944 
 H                     3.53594  -1.38585   1.21576 
 H                     1.34641   0.76308  -2.61 
 H                     3.71103   1.22712  -2.16041 
 C                    -3.31633   1.26263   1.38651 
 H                    -3.30996  -0.82598  -1.26894 
 H                    -0.12139  -2.54684   0.4375 
 H                    -1.57041   2.02093   2.33906 
 H                    -3.99396   1.76653   2.0594 
 S                     0.92347  -2.27951   1.22941 
 C                     5.17937   0.18663  -0.15991 
 C                     6.25826   1.01319  -0.19424 
 C                     6.37398  -0.29155   0.281 
 N                     6.77888   2.1722   -0.46639 
 N                     7.08584  -1.26425   0.76507 
 C                     5.94379   3.27428  -0.90768 
 H                     6.18795   3.5455   -1.93194 
 H                     4.89881   2.99417  -0.84651 
 H                     6.10895   4.1348   -0.26479 
 C                     8.19498   2.45119  -0.31831 
 H                     8.53714   3.01109  -1.1837 
 H                     8.38087   3.03907   0.57771 
 H                     8.75822   1.52753  -0.27382 
 C                     6.51597  -2.58961   0.93143 
 H                     6.46052  -2.8465    1.98643 
 H                     5.52424  -2.62481   0.4964 
 H                     7.14039  -3.31844   0.42172 
 C                     8.48493  -1.11201   1.11844 
 H                     8.66773  -1.62125   2.05998 
 H                     9.12592  -1.5452    0.35389 
 H                     8.72829  -0.06533   1.25212 
 C                    -5.23491   0.30144   0.19256 
 C                    -6.48221   0.8377    0.27429 
 C                    -6.2962   -0.46914  -0.16637 
 N                    -7.25832   1.84294   0.55157 
 N                    -6.77161  -1.60175  -0.5935 
 C                    -6.6997    3.13527   0.90486 
 H                    -6.94343   3.38264   1.93526 
 H                    -5.62343   3.11982   0.78042 
 H                    -7.11117   3.89934   0.25065 
 C                    -8.70492   1.7578    0.48653 
 H                    -9.12754   2.25749   1.35324 
 H                    -9.08035   2.23816  -0.41432 
 H                    -9.02284   0.72292   0.50958 
 C                    -5.90293  -2.75078  -0.76879 
 H                    -5.85073  -3.02756  -1.81903 
 H                    -4.90858  -2.52128  -0.40444 
 H                    -6.2922   -3.59128  -0.20018 
 C                    -8.18148  -1.80619  -0.86682 
 H                    -8.28372  -2.37526  -1.7861 
 H                    -8.6573   -2.35626  -0.05791 
 H                    -8.67988  -0.85495  -1.00634 
 
 ITRead=  0  0  0  0  0  0  0  0  0  0  0  0  0  0  0  0  0  0  0  0
 ITRead=  0  0  0  0  0  0  0  0  0  0  0  0  0  0  0  0  0  0  0  0
 ITRead=  0  0  0  0  0  0  0  0  0  0  0  0  0  0  0  0  0  0  0  0
 ITRead=  0  0  0  0
 MicOpt= -1 -1 -1 -1 -1 -1 -1 -1 -1 -1 -1 -1 -1 -1 -1 -1 -1 -1 -1 -1
 MicOpt= -1 -1 -1 -1 -1 -1 -1 -1 -1 -1 -1 -1 -1 -1 -1 -1 -1 -1 -1 -1
 MicOpt= -1 -1 -1 -1 -1 -1 -1 -1 -1 -1 -1 -1 -1 -1 -1 -1 -1 -1 -1 -1
 MicOpt= -1 -1 -1 -1
 NAtoms=     64 NQM=       64 NQMF=       0 NMMI=      0 NMMIF=      0
                NMic=       0 NMicF=      0.
                    Isotopes and Nuclear Properties:
 (Nuclear quadrupole moments (NQMom) in fm**2, nuclear magnetic moments (NMagM)
  in nuclear magnetons)

  Atom         1           2           3           4           5           6           7           8           9          10
 IAtWgt=          12          12          32          12          12          12          12          12           1          12
 AtmWgt=  12.0000000  12.0000000  31.9720718  12.0000000  12.0000000  12.0000000  12.0000000  12.0000000   1.0078250  12.0000000
 NucSpn=           0           0           0           0           0           0           0           0           1           0
 AtZEff=  -0.0000000  -0.0000000  -0.0000000  -0.0000000  -0.0000000  -0.0000000  -0.0000000  -0.0000000  -0.0000000  -0.0000000
 NQMom=    0.0000000   0.0000000   0.0000000   0.0000000   0.0000000   0.0000000   0.0000000   0.0000000   0.0000000   0.0000000
 NMagM=    0.0000000   0.0000000   0.0000000   0.0000000   0.0000000   0.0000000   0.0000000   0.0000000   2.7928460   0.0000000
 AtZNuc=   6.0000000   6.0000000  16.0000000   6.0000000   6.0000000   6.0000000   6.0000000   6.0000000   1.0000000   6.0000000

  Atom        11          12          13          14          15          16          17          18          19          20
 IAtWgt=          12          12          12           1           1           1          12           1           1           1
 AtmWgt=  12.0000000  12.0000000  12.0000000   1.0078250   1.0078250   1.0078250  12.0000000   1.0078250   1.0078250   1.0078250
 NucSpn=           0           0           0           1           1           1           0           1           1           1
 AtZEff=  -0.0000000  -0.0000000  -0.0000000  -0.0000000  -0.0000000  -0.0000000  -0.0000000  -0.0000000  -0.0000000  -0.0000000
 NQMom=    0.0000000   0.0000000   0.0000000   0.0000000   0.0000000   0.0000000   0.0000000   0.0000000   0.0000000   0.0000000
 NMagM=    0.0000000   0.0000000   0.0000000   2.7928460   2.7928460   2.7928460   0.0000000   2.7928460   2.7928460   2.7928460
 AtZNuc=   6.0000000   6.0000000   6.0000000   1.0000000   1.0000000   1.0000000   6.0000000   1.0000000   1.0000000   1.0000000

  Atom        21          22          23          24          25          26          27          28          29          30
 IAtWgt=           1          32          12          12          12          14          14          12           1           1
 AtmWgt=   1.0078250  31.9720718  12.0000000  12.0000000  12.0000000  14.0030740  14.0030740  12.0000000   1.0078250   1.0078250
 NucSpn=           1           0           0           0           0           2           2           0           1           1
 AtZEff=  -0.0000000  -0.0000000  -0.0000000  -0.0000000  -0.0000000  -0.0000000  -0.0000000  -0.0000000  -0.0000000  -0.0000000
 NQMom=    0.0000000   0.0000000   0.0000000   0.0000000   0.0000000   2.0440000   2.0440000   0.0000000   0.0000000   0.0000000
 NMagM=    2.7928460   0.0000000   0.0000000   0.0000000   0.0000000   0.4037610   0.4037610   0.0000000   2.7928460   2.7928460
 AtZNuc=   1.0000000  16.0000000   6.0000000   6.0000000   6.0000000   7.0000000   7.0000000   6.0000000   1.0000000   1.0000000

  Atom        31          32          33          34          35          36          37          38          39          40
 IAtWgt=           1          12           1           1           1          12           1           1           1          12
 AtmWgt=   1.0078250  12.0000000   1.0078250   1.0078250   1.0078250  12.0000000   1.0078250   1.0078250   1.0078250  12.0000000
 NucSpn=           1           0           1           1           1           0           1           1           1           0
 AtZEff=  -0.0000000  -0.0000000  -0.0000000  -0.0000000  -0.0000000  -0.0000000  -0.0000000  -0.0000000  -0.0000000  -0.0000000
 NQMom=    0.0000000   0.0000000   0.0000000   0.0000000   0.0000000   0.0000000   0.0000000   0.0000000   0.0000000   0.0000000
 NMagM=    2.7928460   0.0000000   2.7928460   2.7928460   2.7928460   0.0000000   2.7928460   2.7928460   2.7928460   0.0000000
 AtZNuc=   1.0000000   6.0000000   1.0000000   1.0000000   1.0000000   6.0000000   1.0000000   1.0000000   1.0000000   6.0000000

  Atom        41          42          43          44          45          46          47          48          49          50
 IAtWgt=           1           1           1          12          12          12          14          14          12           1
 AtmWgt=   1.0078250   1.0078250   1.0078250  12.0000000  12.0000000  12.0000000  14.0030740  14.0030740  12.0000000   1.0078250
 NucSpn=           1           1           1           0           0           0           2           2           0           1
 AtZEff=  -0.0000000  -0.0000000  -0.0000000  -0.0000000  -0.0000000  -0.0000000  -0.0000000  -0.0000000  -0.0000000  -0.0000000
 NQMom=    0.0000000   0.0000000   0.0000000   0.0000000   0.0000000   0.0000000   2.0440000   2.0440000   0.0000000   0.0000000
 NMagM=    2.7928460   2.7928460   2.7928460   0.0000000   0.0000000   0.0000000   0.4037610   0.4037610   0.0000000   2.7928460
 AtZNuc=   1.0000000   1.0000000   1.0000000   6.0000000   6.0000000   6.0000000   7.0000000   7.0000000   6.0000000   1.0000000

  Atom        51          52          53          54          55          56          57          58          59          60
 IAtWgt=           1           1          12           1           1           1          12           1           1           1
 AtmWgt=   1.0078250   1.0078250  12.0000000   1.0078250   1.0078250   1.0078250  12.0000000   1.0078250   1.0078250   1.0078250
 NucSpn=           1           1           0           1           1           1           0           1           1           1
 AtZEff=  -0.0000000  -0.0000000  -0.0000000  -0.0000000  -0.0000000  -0.0000000  -0.0000000  -0.0000000  -0.0000000  -0.0000000
 NQMom=    0.0000000   0.0000000   0.0000000   0.0000000   0.0000000   0.0000000   0.0000000   0.0000000   0.0000000   0.0000000
 NMagM=    2.7928460   2.7928460   0.0000000   2.7928460   2.7928460   2.7928460   0.0000000   2.7928460   2.7928460   2.7928460
 AtZNuc=   1.0000000   1.0000000   6.0000000   1.0000000   1.0000000   1.0000000   6.0000000   1.0000000   1.0000000   1.0000000

  Atom        61          62          63          64
 IAtWgt=          12           1           1           1
 AtmWgt=  12.0000000   1.0078250   1.0078250   1.0078250
 NucSpn=           0           1           1           1
 AtZEff=  -0.0000000  -0.0000000  -0.0000000  -0.0000000
 NQMom=    0.0000000   0.0000000   0.0000000   0.0000000
 NMagM=    0.0000000   2.7928460   2.7928460   2.7928460
 AtZNuc=   6.0000000   1.0000000   1.0000000   1.0000000
 Leave Link  101 at Wed Jan 27 00:03:56 2021, MaxMem=  4026531840 cpu:               0.9 elap:               0.1
 (Enter /opt/ohpc/pub/libs/gaussian/g16-A.03/sandybridge/g16/l202.exe)
 Stoichiometry    C26H32N4S2(2+)
 Framework group  C1[X(C26H32N4S2)]
 Deg. of freedom   186
 Full point group                 C1      NOp   1
 Largest Abelian subgroup         C1      NOp   1
 Largest concise Abelian subgroup C1      NOp   1
                         Standard orientation:                         
 ---------------------------------------------------------------------
 Center     Atomic      Atomic             Coordinates (Angstroms)
 Number     Number       Type             X           Y           Z
 ---------------------------------------------------------------------
      1          6           0        2.928949   -0.209586    0.466429
      2          6           0        1.563914   -0.061175    0.303790
      3         16           0        0.549634   -0.929940    1.465043
      4          6           0        1.080492    0.744795   -0.706590
      5          6           0       -1.720975   -1.178026   -0.124019
      6          6           0       -1.104728   -0.556786    0.961278
      7          6           0        3.804439    0.453059   -0.373760
      8          6           0        1.957571    1.398720   -1.546095
      9          1           0        0.017059    0.867388   -0.843825
     10          6           0       -3.055310   -0.905897   -0.375396
     11          6           0       -1.834379    0.303673    1.763498
     12          6           0       -3.157322    0.570140    1.506853
     13          6           0       -3.772824   -0.043708    0.429435
     14          1           0       -3.535939   -1.385849   -1.215765
     15          1           0       -1.346414    0.763075    2.610001
     16          1           0       -3.711030    1.227115    2.160412
     17          6           0        3.316329    1.262630   -1.386512
     18          1           0        3.309964   -0.825983    1.268943
     19          1           0        0.121390   -2.546838   -0.437504
     20          1           0        1.570409    2.020933   -2.339064
     21          1           0        3.993957    1.766527   -2.059405
     22         16           0       -0.923466   -2.279512   -1.229412
     23          6           0       -5.179371    0.186625    0.159910
     24          6           0       -6.258258    1.013194    0.194238
     25          6           0       -6.373984   -0.291545   -0.281001
     26          7           0       -6.778879    2.172200    0.466391
     27          7           0       -7.085837   -1.264246   -0.765069
     28          6           0       -5.943792    3.274283    0.907684
     29          1           0       -6.187951    3.545500    1.931936
     30          1           0       -4.898805    2.994168    0.846509
     31          1           0       -6.108951    4.134804    0.264794
     32          6           0       -8.194976    2.451187    0.318309
     33          1           0       -8.537142    3.011091    1.183702
     34          1           0       -8.380874    3.039067   -0.577705
     35          1           0       -8.758216    1.527533    0.273817
     36          6           0       -6.515968   -2.589608   -0.931428
     37          1           0       -6.460524   -2.846499   -1.986434
     38          1           0       -5.524243   -2.624805   -0.496396
     39          1           0       -7.140387   -3.318442   -0.421721
     40          6           0       -8.484929   -1.112006   -1.118438
     41          1           0       -8.667734   -1.621246   -2.059984
     42          1           0       -9.125917   -1.545202   -0.353886
     43          1           0       -8.728287   -0.065327   -1.252120
     44          6           0        5.234909    0.301436   -0.192555
     45          6           0        6.482207    0.837696   -0.274291
     46          6           0        6.296202   -0.469144    0.166373
     47          7           0        7.258316    1.842942   -0.551570
     48          7           0        6.771609   -1.601745    0.593499
     49          6           0        6.699705    3.135271   -0.904858
     50          1           0        6.943427    3.382636   -1.935256
     51          1           0        5.623434    3.119821   -0.780416
     52          1           0        7.111169    3.899344   -0.250646
     53          6           0        8.704916    1.757804   -0.486526
     54          1           0        9.127537    2.257490   -1.353238
     55          1           0        9.080352    2.238157    0.414316
     56          1           0        9.022841    0.722915   -0.509579
     57          6           0        5.902929   -2.750782    0.768792
     58          1           0        5.850729   -3.027562    1.819029
     59          1           0        4.908582   -2.521281    0.404440
     60          1           0        6.292204   -3.591280    0.200176
     61          6           0        8.181475   -1.806186    0.866823
     62          1           0        8.283723   -2.375263    1.786100
     63          1           0        8.657299   -2.356258    0.057912
     64          1           0        8.679880   -0.854950    1.006340
 ---------------------------------------------------------------------
 Rotational constants (GHZ):           0.3037259           0.0375439           0.0353071
 Leave Link  202 at Wed Jan 27 00:03:56 2021, MaxMem=  4026531840 cpu:               0.2 elap:               0.1
 (Enter /opt/ohpc/pub/libs/gaussian/g16-A.03/sandybridge/g16/l301.exe)
 Standard basis: TZVP (5D, 7F)
 Ernie: Thresh=  0.10000D-02 Tol=  0.10000D-05 Strict=F.
 There are   838 symmetry adapted cartesian basis functions of A   symmetry.
 There are   806 symmetry adapted basis functions of A   symmetry.
   806 basis functions,  1400 primitive gaussians,   838 cartesian basis functions
   123 alpha electrons      123 beta electrons
       nuclear repulsion energy      3278.9471045421 Hartrees.
 IExCor=33909 DFT=T Ex+Corr=LC-wHPBE ExCW=0 ScaHFX=  1.000000
 ScaDFX=  1.000000  1.000000  1.000000  1.000000 ScalE2=  1.000000  1.000000
 IRadAn=      5 IRanWt=     -1 IRanGd=            0 ICorTp=0 IEmpDi=  4
 HFx  wShort=  0.000000 wLong=  0.221900 cFull=  0.000000 cShort=  0.000000 cLong=  1.000000
 DFx  wShort=  0.000000 wLong=  0.221900 cFull=  0.000000 cShort=  1.000000 cLong=  0.000000
 NAtoms=   64 NActive=   64 NUniq=   64 SFac= 1.00D+00 NAtFMM=   60 NAOKFM=T Big=T
 Integral buffers will be    131072 words long.
 Raffenetti 2 integral format.
 Two-electron integral symmetry is turned on.
 Leave Link  301 at Wed Jan 27 00:03:56 2021, MaxMem=  4026531840 cpu:               0.4 elap:               0.1
 (Enter /opt/ohpc/pub/libs/gaussian/g16-A.03/sandybridge/g16/l302.exe)
 NPDir=0 NMtPBC=     1 NCelOv=     1 NCel=       1 NClECP=     1 NCelD=      1
         NCelK=      1 NCelE2=     1 NClLst=     1 CellRange=     0.0.
 One-electron integrals computed using PRISM.
 One-electron integral symmetry used in STVInt
 NBasis=   806 RedAO= T EigKep=  6.39D-06  NBF=   806
 NBsUse=   806 1.00D-06 EigRej= -1.00D+00 NBFU=   806
 Precomputing XC quadrature grid using
 IXCGrd= 4 IRadAn=           5 IRanWt=          -1 IRanGd=           0 AccXCQ= 0.00D+00.
 Generated NRdTot=       0 NPtTot=           0 NUsed=           0 NTot=          32
 NSgBfM=   770   766   769   770   770 MxSgAt=    64 MxSgA2=    64.
 Leave Link  302 at Wed Jan 27 00:03:58 2021, MaxMem=  4026531840 cpu:              18.6 elap:               2.3
 (Enter /opt/ohpc/pub/libs/gaussian/g16-A.03/sandybridge/g16/l303.exe)
 DipDrv:  MaxL=1.
 Leave Link  303 at Wed Jan 27 00:03:58 2021, MaxMem=  4026531840 cpu:               1.4 elap:               0.2
 (Enter /opt/ohpc/pub/libs/gaussian/g16-A.03/sandybridge/g16/l401.exe)
 ExpMin= 9.52D-02 ExpMax= 6.07D+04 ExpMxC= 2.07D+03 IAcc=3 IRadAn=         5 AccDes= 0.00D+00
 Harris functional with IExCor=33909 and IRadAn=       5 diagonalized for initial guess.
 HarFok:  IExCor=33909 AccDes= 0.00D+00 IRadAn=         5 IDoV= 1 UseB2=F ITyADJ=14
 ICtDFT=  3500011 ScaDFX=  1.000000  1.000000  1.000000  1.000000
 FoFCou: FMM=F IPFlag=           0 FMFlag=      100000 FMFlg1=        2001
         NFxFlg=           0 DoJE=T BraDBF=F KetDBF=T FulRan=T
         wScrn=  0.000000 ICntrl=       500 IOpCl=  0 I1Cent=   200000004 NGrid=           0
         NMat0=    1 NMatS0=      1 NMatT0=    0 NMatD0=    1 NMtDS0=    0 NMtDT0=    0
 Petite list used in FoFCou.
 Harris En= -1994.88961162294    
 JPrj=0 DoOrth=F DoCkMO=F.
 Leave Link  401 at Wed Jan 27 00:04:09 2021, MaxMem=  4026531840 cpu:              88.4 elap:              11.1
 (Enter /opt/ohpc/pub/libs/gaussian/g16-A.03/sandybridge/g16/l502.exe)
 Integral symmetry usage will be decided dynamically.
 Closed shell SCF:
 Using DIIS extrapolation, IDIIS=    10.
 NGot=  4026531840 LenX=  4025112240 LenY=  4024409158
 Requested convergence on RMS density matrix=1.00D-06 within  32 cycles.
 Requested convergence on MAX density matrix=1.00D-04.
 Requested convergence on             energy=1.00D-04.
 Virtual orbitals will be shifted by   0.500 hartree.
 No special actions if energy rises.
 Dynamic level shift is on during FON iterations.

 Cycle   1  Pass 1  IDiag  1:
 FoFJK:  IHMeth= 1 ICntrl=       0 DoSepK=T KAlg= 0 I1Cent=           0 FoldK=F
 IRaf=         1 NMat=       1 IRICut=       1 DoRegI=T DoRafI=F ISym2E= 0 IDoP0=0 IntGTp=1.
 FoFCou: FMM=T IPFlag=           0 FMFlag=      100000 FMFlg1=        2001
         NFxFlg=           0 DoJE=T BraDBF=F KetDBF=F FulRan=T
         wScrn=  0.000000 ICntrl=       500 IOpCl=  0 I1Cent=           0 NGrid=           0
         NMat0=    1 NMatS0=      1 NMatT0=    0 NMatD0=    1 NMtDS0=    0 NMtDT0=    0
 Symmetry not used in FoFCou.
 FMM levels:  10  Number of levels for PrismC:   9
 E= -2023.31016883590    
 DIIS: error= 2.83D-02 at cycle   1 NSaved=   1.
 NSaved= 1 IEnMin= 1 EnMin= -2023.31016883590     IErMin= 1 ErrMin= 2.83D-02
 ErrMax= 2.83D-02  0.00D+00 EMaxC= 1.00D+00 BMatC= 5.58D-01 BMatP= 5.58D-01
 IDIUse=1 WtCom= 1.00D+00 WtEn= 0.00D+00
 Coeff-Com:  0.100D+01
 Coeff:      0.100D+01
 Gap=     0.390 Goal=   None    Shift=    0.500
 T= 1462. Gap= 0.740 NK=0 IS=  124 IE=  806 IFin=  123
          NO(<0.9)=   0  NV(>0.1)=   0    123.00e < EF      0.00e >EF  Err=0.0D+00
 GapD=    0.390 DampG=1.000 DampE=0.500 DampFc=0.5000 IDamp=-1.
 Damping current iteration by 5.00D-01
 RMSDP=3.51D-03 MaxDP=3.96D-01              OVMax= 8.68D-02

 Cycle   2  Pass 1  IDiag  1:
 E= -2023.63196150115     Delta-E=       -0.321792665256 Rises=F Damp=T
 DIIS: error= 1.18D-02 at cycle   2 NSaved=   2.
 NSaved= 2 IEnMin= 2 EnMin= -2023.63196150115     IErMin= 2 ErrMin= 1.18D-02
 ErrMax= 1.18D-02  0.00D+00 EMaxC= 1.00D+00 BMatC= 8.95D-02 BMatP= 5.58D-01
 IDIUse=1 WtCom= 1.00D+00 WtEn= 0.00D+00
 Coeff-Com: -0.555D+00 0.156D+01
 Coeff:     -0.555D+00 0.156D+01
 Gap=     0.316 Goal=   None    Shift=    0.500
 T= 1332. Gap= 0.769 NK=0 IS=  124 IE=  806 IFin=  123
          NO(<0.9)=   0  NV(>0.1)=   0    123.00e < EF      0.00e >EF  Err=0.0D+00
 GapD=    0.316 DampG=1.000 DampE=0.500 DampFc=0.5000 IDamp=-1.
 Damping current iteration by 5.00D-01
 RMSDP=1.91D-03 MaxDP=2.76D-01 DE=-3.22D-01 OVMax= 1.78D-02

 Cycle   3  Pass 1  IDiag  1:
 E= -2023.73912876440     Delta-E=       -0.107167263241 Rises=F Damp=T
 DIIS: error= 4.91D-03 at cycle   3 NSaved=   3.
 NSaved= 3 IEnMin= 3 EnMin= -2023.73912876440     IErMin= 3 ErrMin= 4.91D-03
 ErrMax= 4.91D-03  0.00D+00 EMaxC= 1.00D+00 BMatC= 1.71D-02 BMatP= 8.95D-02
 IDIUse=1 WtCom= 1.00D+00 WtEn= 0.00D+00
 Coeff-Com:  0.108D+00-0.108D+01 0.197D+01
 Coeff:      0.108D+00-0.108D+01 0.197D+01
 Gap=     0.273 Goal=   None    Shift=    0.500
 T= 1081. Gap= 0.772 NK=0 IS=  124 IE=  806 IFin=  123
          NO(<0.9)=   0  NV(>0.1)=   0    123.00e < EF      0.00e >EF  Err=0.0D+00
 GapD=    0.273 DampG=1.000 DampE=1.000 DampFc=1.0000 IDamp=-1.
 RMSDP=1.18D-03 MaxDP=1.69D-01 DE=-1.07D-01 OVMax= 1.25D-02

 Cycle   4  Pass 1  IDiag  1:
 E= -2023.82903412825     Delta-E=       -0.089905363854 Rises=F Damp=F
 DIIS: error= 1.38D-03 at cycle   4 NSaved=   4.
 NSaved= 4 IEnMin= 4 EnMin= -2023.82903412825     IErMin= 4 ErrMin= 1.38D-03
 ErrMax= 1.38D-03  0.00D+00 EMaxC= 1.00D+00 BMatC= 7.44D-04 BMatP= 1.71D-02
 IDIUse=1 WtCom= 1.00D+00 WtEn= 0.00D+00
 Coeff-Com:  0.683D-01-0.158D+00 0.839D-01 0.101D+01
 Coeff:      0.683D-01-0.158D+00 0.839D-01 0.101D+01
 Gap=     0.275 Goal=   None    Shift=    0.500
 T=  535. Gap= 0.775 NK=0 IS=  124 IE=  806 IFin=  123
          NO(<0.9)=   0  NV(>0.1)=   0    123.00e < EF      0.00e >EF  Err=0.0D+00
 GapD=    0.275 DampG=1.000 DampE=1.000 DampFc=1.0000 IDamp=-1.
 RMSDP=2.22D-04 MaxDP=1.89D-02 DE=-8.99D-02 OVMax= 1.01D-02

 Cycle   5  Pass 1  IDiag  1:
 E= -2023.83036776754     Delta-E=       -0.001333639288 Rises=F Damp=F
 DIIS: error= 1.16D-03 at cycle   5 NSaved=   5.
 NSaved= 5 IEnMin= 5 EnMin= -2023.83036776754     IErMin= 5 ErrMin= 1.16D-03
 ErrMax= 1.16D-03  0.00D+00 EMaxC= 1.00D+00 BMatC= 1.71D-04 BMatP= 7.44D-04
 IDIUse=1 WtCom= 1.00D+00 WtEn= 0.00D+00
 Coeff-Com: -0.109D-01 0.184D+00-0.353D+00-0.943D-01 0.127D+01
 Coeff:     -0.109D-01 0.184D+00-0.353D+00-0.943D-01 0.127D+01
 Gap=     0.276 Goal=   None    Shift=    0.500
 GapD=    0.276 DampG=1.000 DampE=1.000 DampFc=1.0000 IDamp=-1.
 RMSDP=1.41D-04 MaxDP=1.25D-02 DE=-1.33D-03 OVMax= 8.52D-03

 Cycle   6  Pass 1  IDiag  1:
 E= -2023.83095652281     Delta-E=       -0.000588755273 Rises=F Damp=F
 DIIS: error= 8.56D-04 at cycle   6 NSaved=   6.
 NSaved= 6 IEnMin= 6 EnMin= -2023.83095652281     IErMin= 6 ErrMin= 8.56D-04
 ErrMax= 8.56D-04  0.00D+00 EMaxC= 1.00D+00 BMatC= 6.74D-05 BMatP= 1.71D-04
 IDIUse=1 WtCom= 1.00D+00 WtEn= 0.00D+00
 Coeff-Com: -0.220D-01 0.403D-01-0.142D-01-0.394D+00-0.366D+00 0.176D+01
 Coeff:     -0.220D-01 0.403D-01-0.142D-01-0.394D+00-0.366D+00 0.176D+01
 Gap=     0.277 Goal=   None    Shift=    0.500
 RMSDP=9.67D-05 MaxDP=8.77D-03 DE=-5.89D-04 OVMax= 7.39D-03

 Cycle   7  Pass 1  IDiag  1:
 E= -2023.83127765395     Delta-E=       -0.000321131137 Rises=F Damp=F
 DIIS: error= 5.87D-04 at cycle   7 NSaved=   7.
 NSaved= 7 IEnMin= 7 EnMin= -2023.83127765395     IErMin= 7 ErrMin= 5.87D-04
 ErrMax= 5.87D-04  0.00D+00 EMaxC= 1.00D+00 BMatC= 2.88D-05 BMatP= 6.74D-05
 IDIUse=1 WtCom= 1.00D+00 WtEn= 0.00D+00
 Coeff-Com: -0.281D-02-0.488D-01 0.105D+00-0.710D-01-0.561D+00-0.114D+00
 Coeff-Com:  0.169D+01
 Coeff:     -0.281D-02-0.488D-01 0.105D+00-0.710D-01-0.561D+00-0.114D+00
 Coeff:      0.169D+01
 Gap=     0.277 Goal=   None    Shift=    0.500
 RMSDP=6.04D-05 MaxDP=5.08D-03 DE=-3.21D-04 OVMax= 5.57D-03

 Cycle   8  Pass 1  IDiag  1:
 E= -2023.83143168995     Delta-E=       -0.000154036000 Rises=F Damp=F
 DIIS: error= 4.06D-04 at cycle   8 NSaved=   8.
 NSaved= 8 IEnMin= 8 EnMin= -2023.83143168995     IErMin= 8 ErrMin= 4.06D-04
 ErrMax= 4.06D-04  0.00D+00 EMaxC= 1.00D+00 BMatC= 1.25D-05 BMatP= 2.88D-05
 IDIUse=1 WtCom= 1.00D+00 WtEn= 0.00D+00
 Coeff-Com:  0.431D-02-0.235D-01 0.341D-01 0.158D+00-0.158D+00-0.787D+00
 Coeff-Com: -0.976D-01 0.187D+01
 Coeff:      0.431D-02-0.235D-01 0.341D-01 0.158D+00-0.158D+00-0.787D+00
 Coeff:     -0.976D-01 0.187D+01
 Gap=     0.277 Goal=   None    Shift=    0.500
 RMSDP=4.04D-05 MaxDP=3.59D-03 DE=-1.54D-04 OVMax= 4.02D-03

 Cycle   9  Pass 1  IDiag  1:
 E= -2023.83150318343     Delta-E=       -0.000071493483 Rises=F Damp=F
 DIIS: error= 2.67D-04 at cycle   9 NSaved=   9.
 NSaved= 9 IEnMin= 9 EnMin= -2023.83150318343     IErMin= 9 ErrMin= 2.67D-04
 ErrMax= 2.67D-04  0.00D+00 EMaxC= 1.00D+00 BMatC= 5.60D-06 BMatP= 1.25D-05
 IDIUse=1 WtCom= 1.00D+00 WtEn= 0.00D+00
 Coeff-Com:  0.144D-02 0.939D-02-0.224D-01 0.121D+00 0.663D-01-0.433D+00
 Coeff-Com: -0.584D+00 0.410D+00 0.143D+01
 Coeff:      0.144D-02 0.939D-02-0.224D-01 0.121D+00 0.663D-01-0.433D+00
 Coeff:     -0.584D+00 0.410D+00 0.143D+01
 Gap=     0.277 Goal=   None    Shift=    0.500
 RMSDP=2.42D-05 MaxDP=2.45D-03 DE=-7.15D-05 OVMax= 2.71D-03

 Cycle  10  Pass 1  IDiag  1:
 E= -2023.83153347085     Delta-E=       -0.000030287421 Rises=F Damp=F
 DIIS: error= 1.70D-04 at cycle  10 NSaved=  10.
 NSaved=10 IEnMin=10 EnMin= -2023.83153347085     IErMin=10 ErrMin= 1.70D-04
 ErrMax= 1.70D-04  0.00D+00 EMaxC= 1.00D+00 BMatC= 2.21D-06 BMatP= 5.60D-06
 IDIUse=1 WtCom= 1.00D+00 WtEn= 0.00D+00
 Coeff-Com: -0.183D-02 0.108D-01-0.163D-01-0.314D-01 0.523D-01 0.198D+00
 Coeff-Com: -0.935D-01-0.715D+00-0.761D+00 0.236D+01
 Coeff:     -0.183D-02 0.108D-01-0.163D-01-0.314D-01 0.523D-01 0.198D+00
 Coeff:     -0.935D-01-0.715D+00-0.761D+00 0.236D+01
 Gap=     0.277 Goal=   None    Shift=    0.500
 RMSDP=1.58D-05 MaxDP=1.66D-03 DE=-3.03D-05 OVMax= 1.77D-03

 Cycle  11  Pass 1  IDiag  1:
 E= -2023.83154570695     Delta-E=       -0.000012236094 Rises=F Damp=F
 DIIS: error= 1.09D-04 at cycle  11 NSaved=  11.
 NSaved=11 IEnMin=11 EnMin= -2023.83154570695     IErMin=11 ErrMin= 1.09D-04
 ErrMax= 1.09D-04  0.00D+00 EMaxC= 1.00D+00 BMatC= 1.08D-06 BMatP= 2.21D-06
 IDIUse=1 WtCom= 1.00D+00 WtEn= 0.00D+00
 Coeff-Com: -0.149D-02 0.237D-02-0.471D-03-0.405D-01 0.111D-02 0.197D+00
 Coeff-Com:  0.127D+00-0.497D+00-0.102D+01 0.976D+00 0.126D+01
 Coeff:     -0.149D-02 0.237D-02-0.471D-03-0.405D-01 0.111D-02 0.197D+00
 Coeff:      0.127D+00-0.497D+00-0.102D+01 0.976D+00 0.126D+01
 Gap=     0.277 Goal=   None    Shift=    0.500
 RMSDP=9.37D-06 MaxDP=9.55D-04 DE=-1.22D-05 OVMax= 1.12D-03

 Cycle  12  Pass 1  IDiag  1:
 E= -2023.83155063620     Delta-E=       -0.000004929258 Rises=F Damp=F
 DIIS: error= 6.95D-05 at cycle  12 NSaved=  12.
 NSaved=12 IEnMin=12 EnMin= -2023.83155063620     IErMin=12 ErrMin= 6.95D-05
 ErrMax= 6.95D-05  0.00D+00 EMaxC= 1.00D+00 BMatC= 4.53D-07 BMatP= 1.08D-06
 IDIUse=1 WtCom= 1.00D+00 WtEn= 0.00D+00
 Coeff-Com: -0.116D-03-0.260D-02 0.556D-02 0.147D-02-0.239D-01-0.181D-01
 Coeff-Com:  0.112D+00 0.113D+00-0.304D+00-0.346D+00-0.800D+00 0.226D+01
 Coeff:     -0.116D-03-0.260D-02 0.556D-02 0.147D-02-0.239D-01-0.181D-01
 Coeff:      0.112D+00 0.113D+00-0.304D+00-0.346D+00-0.800D+00 0.226D+01
 Gap=     0.277 Goal=   None    Shift=    0.500
 RMSDP=5.86D-06 MaxDP=5.49D-04 DE=-4.93D-06 OVMax= 7.09D-04

 Cycle  13  Pass 1  IDiag  1:
 E= -2023.83155258407     Delta-E=       -0.000001947867 Rises=F Damp=F
 DIIS: error= 4.41D-05 at cycle  13 NSaved=  13.
 NSaved=13 IEnMin=13 EnMin= -2023.83155258407     IErMin=13 ErrMin= 4.41D-05
 ErrMax= 4.41D-05  0.00D+00 EMaxC= 1.00D+00 BMatC= 2.23D-07 BMatP= 4.53D-07
 IDIUse=1 WtCom= 1.00D+00 WtEn= 0.00D+00
 Coeff-Com:  0.242D-03-0.742D-03 0.783D-03 0.164D-01-0.116D-01-0.774D-01
 Coeff-Com:  0.296D-01 0.233D+00 0.122D+00-0.470D+00-0.131D+01 0.107D+01
 Coeff-Com:  0.140D+01
 Coeff:      0.242D-03-0.742D-03 0.783D-03 0.164D-01-0.116D-01-0.774D-01
 Coeff:      0.296D-01 0.233D+00 0.122D+00-0.470D+00-0.131D+01 0.107D+01
 Coeff:      0.140D+01
 Gap=     0.277 Goal=   None    Shift=    0.500
 RMSDP=3.55D-06 MaxDP=2.81D-04 DE=-1.95D-06 OVMax= 4.59D-04

 Cycle  14  Pass 1  IDiag  1:
 E= -2023.83155339467     Delta-E=       -0.000000810600 Rises=F Damp=F
 DIIS: error= 2.87D-05 at cycle  14 NSaved=  14.
 NSaved=14 IEnMin=14 EnMin= -2023.83155339467     IErMin=14 ErrMin= 2.87D-05
 ErrMax= 2.87D-05  0.00D+00 EMaxC= 1.00D+00 BMatC= 9.55D-08 BMatP= 2.23D-07
 IDIUse=1 WtCom= 1.00D+00 WtEn= 0.00D+00
 Coeff-Com:  0.424D-04 0.643D-03-0.142D-02 0.470D-02 0.118D-02-0.154D-01
 Coeff-Com: -0.105D-01 0.338D-01 0.906D-01 0.364D-01-0.492D+00-0.285D-03
 Coeff-Com: -0.889D+00 0.224D+01
 Coeff:      0.424D-04 0.643D-03-0.142D-02 0.470D-02 0.118D-02-0.154D-01
 Coeff:     -0.105D-01 0.338D-01 0.906D-01 0.364D-01-0.492D+00-0.285D-03
 Coeff:     -0.889D+00 0.224D+01
 Gap=     0.277 Goal=   None    Shift=    0.500
 RMSDP=2.11D-06 MaxDP=1.48D-04 DE=-8.11D-07 OVMax= 2.91D-04

 Cycle  15  Pass 1  IDiag  1:
 E= -2023.83155371872     Delta-E=       -0.000000324051 Rises=F Damp=F
 DIIS: error= 1.87D-05 at cycle  15 NSaved=  15.
 NSaved=15 IEnMin=15 EnMin= -2023.83155371872     IErMin=15 ErrMin= 1.87D-05
 ErrMax= 1.87D-05  0.00D+00 EMaxC= 1.00D+00 BMatC= 4.11D-08 BMatP= 9.55D-08
 IDIUse=1 WtCom= 1.00D+00 WtEn= 0.00D+00
 Coeff-Com: -0.706D-04 0.463D-03-0.721D-03-0.242D-02 0.288D-02 0.160D-01
 Coeff-Com: -0.744D-02-0.523D-01-0.786D-02 0.185D+00 0.552D-01-0.210D+00
 Coeff-Com: -0.130D+01 0.894D+00 0.142D+01
 Coeff:     -0.706D-04 0.463D-03-0.721D-03-0.242D-02 0.288D-02 0.160D-01
 Coeff:     -0.744D-02-0.523D-01-0.786D-02 0.185D+00 0.552D-01-0.210D+00
 Coeff:     -0.130D+01 0.894D+00 0.142D+01
 Gap=     0.277 Goal=   None    Shift=    0.500
 RMSDP=1.21D-06 MaxDP=7.98D-05 DE=-3.24D-07 OVMax= 1.84D-04

 Cycle  16  Pass 1  IDiag  1:
 E= -2023.83155384883     Delta-E=       -0.000000130105 Rises=F Damp=F
 DIIS: error= 1.21D-05 at cycle  16 NSaved=  16.
 NSaved=16 IEnMin=16 EnMin= -2023.83155384883     IErMin=16 ErrMin= 1.21D-05
 ErrMax= 1.21D-05  0.00D+00 EMaxC= 1.00D+00 BMatC= 1.70D-08 BMatP= 4.11D-08
 IDIUse=1 WtCom= 1.00D+00 WtEn= 0.00D+00
 Coeff-Com: -0.337D-04-0.881D-04 0.277D-03-0.183D-02 0.207D-03 0.855D-02
 Coeff-Com:  0.406D-02-0.208D-01-0.342D-01 0.349D-01 0.163D+00-0.445D-01
 Coeff-Com: -0.288D+00-0.491D+00-0.376D+00 0.205D+01
 Coeff:     -0.337D-04-0.881D-04 0.277D-03-0.183D-02 0.207D-03 0.855D-02
 Coeff:      0.406D-02-0.208D-01-0.342D-01 0.349D-01 0.163D+00-0.445D-01
 Coeff:     -0.288D+00-0.491D+00-0.376D+00 0.205D+01
 Gap=     0.277 Goal=   None    Shift=    0.500
 RMSDP=7.14D-07 MaxDP=4.52D-05 DE=-1.30D-07 OVMax= 1.18D-04

 SCF Done:  E(RLC-wHPBE) =  -2023.83155385     A.U. after   16 cycles
            NFock= 16  Conv=0.71D-06     -V/T= 2.0035
 KE= 2.016767571196D+03 PE=-1.125363001347D+04 EE= 3.934083783888D+03
 Leave Link  502 at Wed Jan 27 00:22:51 2021, MaxMem=  4026531840 cpu:            8841.1 elap:            1121.1
 (Enter /opt/ohpc/pub/libs/gaussian/g16-A.03/sandybridge/g16/l508.exe)
 QCSCF skips out because SCF is already converged.
 Leave Link  508 at Wed Jan 27 00:22:51 2021, MaxMem=  4026531840 cpu:               0.0 elap:               0.0
 (Enter /opt/ohpc/pub/libs/gaussian/g16-A.03/sandybridge/g16/l601.exe)
 Copying SCF densities to generalized density rwf, IOpCl= 0 IROHF=0.

 **********************************************************************

            Population analysis using the SCF density.

 **********************************************************************

 Orbital symmetries:
       Occupied  (A) (A) (A) (A) (A) (A) (A) (A) (A) (A) (A) (A)
                 (A) (A) (A) (A) (A) (A) (A) (A) (A) (A) (A) (A)
                 (A) (A) (A) (A) (A) (A) (A) (A) (A) (A) (A) (A)
                 (A) (A) (A) (A) (A) (A) (A) (A) (A) (A) (A) (A)
                 (A) (A) (A) (A) (A) (A) (A) (A) (A) (A) (A) (A)
                 (A) (A) (A) (A) (A) (A) (A) (A) (A) (A) (A) (A)
                 (A) (A) (A) (A) (A) (A) (A) (A) (A) (A) (A) (A)
                 (A) (A) (A) (A) (A) (A) (A) (A) (A) (A) (A) (A)
                 (A) (A) (A) (A) (A) (A) (A) (A) (A) (A) (A) (A)
                 (A) (A) (A) (A) (A) (A) (A) (A) (A) (A) (A) (A)
                 (A) (A) (A)
       Virtual   (A) (A) (A) (A) (A) (A) (A) (A) (A) (A) (A) (A)
                 (A) (A) (A) (A) (A) (A) (A) (A) (A) (A) (A) (A)
                 (A) (A) (A) (A) (A) (A) (A) (A) (A) (A) (A) (A)
                 (A) (A) (A) (A) (A) (A) (A) (A) (A) (A) (A) (A)
                 (A) (A) (A) (A) (A) (A) (A) (A) (A) (A) (A) (A)
                 (A) (A) (A) (A) (A) (A) (A) (A) (A) (A) (A) (A)
                 (A) (A) (A) (A) (A) (A) (A) (A) (A) (A) (A) (A)
                 (A) (A) (A) (A) (A) (A) (A) (A) (A) (A) (A) (A)
                 (A) (A) (A) (A) (A) (A) (A) (A) (A) (A) (A) (A)
                 (A) (A) (A) (A) (A) (A) (A) (A) (A) (A) (A) (A)
                 (A) (A) (A) (A) (A) (A) (A) (A) (A) (A) (A) (A)
                 (A) (A) (A) (A) (A) (A) (A) (A) (A) (A) (A) (A)
                 (A) (A) (A) (A) (A) (A) (A) (A) (A) (A) (A) (A)
                 (A) (A) (A) (A) (A) (A) (A) (A) (A) (A) (A) (A)
                 (A) (A) (A) (A) (A) (A) (A) (A) (A) (A) (A) (A)
                 (A) (A) (A) (A) (A) (A) (A) (A) (A) (A) (A) (A)
                 (A) (A) (A) (A) (A) (A) (A) (A) (A) (A) (A) (A)
                 (A) (A) (A) (A) (A) (A) (A) (A) (A) (A) (A) (A)
                 (A) (A) (A) (A) (A) (A) (A) (A) (A) (A) (A) (A)
                 (A) (A) (A) (A) (A) (A) (A) (A) (A) (A) (A) (A)
                 (A) (A) (A) (A) (A) (A) (A) (A) (A) (A) (A) (A)
                 (A) (A) (A) (A) (A) (A) (A) (A) (A) (A) (A) (A)
                 (A) (A) (A) (A) (A) (A) (A) (A) (A) (A) (A) (A)
                 (A) (A) (A) (A) (A) (A) (A) (A) (A) (A) (A) (A)
                 (A) (A) (A) (A) (A) (A) (A) (A) (A) (A) (A) (A)
                 (A) (A) (A) (A) (A) (A) (A) (A) (A) (A) (A) (A)
                 (A) (A) (A) (A) (A) (A) (A) (A) (A) (A) (A) (A)
                 (A) (A) (A) (A) (A) (A) (A) (A) (A) (A) (A) (A)
                 (A) (A) (A) (A) (A) (A) (A) (A) (A) (A) (A) (A)
                 (A) (A) (A) (A) (A) (A) (A) (A) (A) (A) (A) (A)
                 (A) (A) (A) (A) (A) (A) (A) (A) (A) (A) (A) (A)
                 (A) (A) (A) (A) (A) (A) (A) (A) (A) (A) (A) (A)
                 (A) (A) (A) (A) (A) (A) (A) (A) (A) (A) (A) (A)
                 (A) (A) (A) (A) (A) (A) (A) (A) (A) (A) (A) (A)
                 (A) (A) (A) (A) (A) (A) (A) (A) (A) (A) (A) (A)
                 (A) (A) (A) (A) (A) (A) (A) (A) (A) (A) (A) (A)
                 (A) (A) (A) (A) (A) (A) (A) (A) (A) (A) (A) (A)
                 (A) (A) (A) (A) (A) (A) (A) (A) (A) (A) (A) (A)
                 (A) (A) (A) (A) (A) (A) (A) (A) (A) (A) (A) (A)
                 (A) (A) (A) (A) (A) (A) (A) (A) (A) (A) (A) (A)
                 (A) (A) (A) (A) (A) (A) (A) (A) (A) (A) (A) (A)
                 (A) (A) (A) (A) (A) (A) (A) (A) (A) (A) (A) (A)
                 (A) (A) (A) (A) (A) (A) (A) (A) (A) (A) (A) (A)
                 (A) (A) (A) (A) (A) (A) (A) (A) (A) (A) (A) (A)
                 (A) (A) (A) (A) (A) (A) (A) (A) (A) (A) (A) (A)
                 (A) (A) (A) (A) (A) (A) (A) (A) (A) (A) (A) (A)
                 (A) (A) (A) (A) (A) (A) (A) (A) (A) (A) (A) (A)
                 (A) (A) (A) (A) (A) (A) (A) (A) (A) (A) (A) (A)
                 (A) (A) (A) (A) (A) (A) (A) (A) (A) (A) (A) (A)
                 (A) (A) (A) (A) (A) (A) (A) (A) (A) (A) (A) (A)
                 (A) (A) (A) (A) (A) (A) (A) (A) (A) (A) (A) (A)
                 (A) (A) (A) (A) (A) (A) (A) (A) (A) (A) (A) (A)
                 (A) (A) (A) (A) (A) (A) (A) (A) (A) (A) (A) (A)
                 (A) (A) (A) (A) (A) (A) (A) (A) (A) (A) (A) (A)
                 (A) (A) (A) (A) (A) (A) (A) (A) (A) (A) (A) (A)
                 (A) (A) (A) (A) (A) (A) (A) (A) (A) (A) (A) (A)
                 (A) (A) (A) (A) (A) (A) (A) (A) (A) (A) (A)
 The electronic state is 1-A.
 Alpha  occ. eigenvalues --  -88.39282 -88.37903 -14.36330 -14.36270 -14.35891
 Alpha  occ. eigenvalues --  -14.35837 -10.29053 -10.28999 -10.28577 -10.28524
 Alpha  occ. eigenvalues --  -10.25127 -10.24692 -10.23491 -10.22731 -10.22491
 Alpha  occ. eigenvalues --  -10.22436 -10.22410 -10.22356 -10.22351 -10.22161
 Alpha  occ. eigenvalues --  -10.22095 -10.22045 -10.22025 -10.21851 -10.21674
 Alpha  occ. eigenvalues --  -10.20175 -10.19674 -10.19665 -10.19616 -10.18894
 Alpha  occ. eigenvalues --  -10.18713 -10.18506  -7.98525  -7.97299  -6.00720
 Alpha  occ. eigenvalues --   -6.00192  -5.99449  -5.99443  -5.98955  -5.98242
 Alpha  occ. eigenvalues --   -1.24991  -1.24564  -1.22129  -1.21717  -1.16996
 Alpha  occ. eigenvalues --   -1.16575  -1.12479  -1.10875  -1.05491  -1.03127
 Alpha  occ. eigenvalues --   -1.01100  -1.00157  -0.98593  -0.98252  -0.98218
 Alpha  occ. eigenvalues --   -0.97910  -0.97091  -0.96713  -0.96181  -0.95637
 Alpha  occ. eigenvalues --   -0.95414  -0.94264  -0.88807  -0.87411  -0.85589
 Alpha  occ. eigenvalues --   -0.84244  -0.80989  -0.80862  -0.80592  -0.80315
 Alpha  occ. eigenvalues --   -0.79758  -0.79272  -0.76266  -0.76072  -0.75784
 Alpha  occ. eigenvalues --   -0.75670  -0.75109  -0.74590  -0.73618  -0.73525
 Alpha  occ. eigenvalues --   -0.73258  -0.73131  -0.72065  -0.70975  -0.68738
 Alpha  occ. eigenvalues --   -0.68484  -0.68080  -0.67945  -0.67740  -0.67516
 Alpha  occ. eigenvalues --   -0.67243  -0.67165  -0.67045  -0.66449  -0.65999
 Alpha  occ. eigenvalues --   -0.65786  -0.65692  -0.65480  -0.65190  -0.65048
 Alpha  occ. eigenvalues --   -0.64892  -0.64585  -0.63800  -0.63583  -0.63354
 Alpha  occ. eigenvalues --   -0.63223  -0.62618  -0.61650  -0.61560  -0.59629
 Alpha  occ. eigenvalues --   -0.59104  -0.57982  -0.57444  -0.56059  -0.55786
 Alpha  occ. eigenvalues --   -0.55650  -0.54951  -0.52713  -0.52413  -0.48099
 Alpha  occ. eigenvalues --   -0.47637  -0.46209  -0.45791
 Alpha virt. eigenvalues --   -0.18077  -0.16801  -0.13843  -0.12849  -0.10046
 Alpha virt. eigenvalues --   -0.09781  -0.09456  -0.09123  -0.08500  -0.08102
 Alpha virt. eigenvalues --   -0.07797  -0.06289  -0.05604  -0.05231  -0.04240
 Alpha virt. eigenvalues --   -0.03839  -0.03696  -0.03488  -0.03200  -0.02832
 Alpha virt. eigenvalues --   -0.02537  -0.02416  -0.01816  -0.01617  -0.01213
 Alpha virt. eigenvalues --   -0.00847  -0.00673  -0.00517  -0.00375  -0.00141
 Alpha virt. eigenvalues --    0.00111   0.00431   0.00462   0.00621   0.00748
 Alpha virt. eigenvalues --    0.00938   0.01172   0.01426   0.01599   0.01784
 Alpha virt. eigenvalues --    0.01903   0.02133   0.02421   0.02735   0.02823
 Alpha virt. eigenvalues --    0.03056   0.03367   0.03795   0.04280   0.04833
 Alpha virt. eigenvalues --    0.05184   0.05490   0.05598   0.05813   0.06111
 Alpha virt. eigenvalues --    0.06415   0.06905   0.07721   0.08221   0.08534
 Alpha virt. eigenvalues --    0.08885   0.08982   0.09254   0.09406   0.09451
 Alpha virt. eigenvalues --    0.09810   0.09999   0.10317   0.10532   0.10881
 Alpha virt. eigenvalues --    0.11283   0.11406   0.11840   0.12334   0.12916
 Alpha virt. eigenvalues --    0.12999   0.13745   0.14222   0.14337   0.14510
 Alpha virt. eigenvalues --    0.14942   0.15487   0.15846   0.16433   0.16752
 Alpha virt. eigenvalues --    0.16887   0.17062   0.17331   0.17722   0.18094
 Alpha virt. eigenvalues --    0.18250   0.18546   0.18931   0.19120   0.19250
 Alpha virt. eigenvalues --    0.19552   0.19672   0.20010   0.20091   0.20450
 Alpha virt. eigenvalues --    0.20665   0.21201   0.21299   0.21475   0.22342
 Alpha virt. eigenvalues --    0.22461   0.22619   0.23202   0.23542   0.23977
 Alpha virt. eigenvalues --    0.24344   0.24467   0.24701   0.25445   0.25819
 Alpha virt. eigenvalues --    0.26109   0.26506   0.26708   0.27072   0.27280
 Alpha virt. eigenvalues --    0.27619   0.28169   0.28592   0.28753   0.28891
 Alpha virt. eigenvalues --    0.29262   0.29387   0.29635   0.30257   0.30534
 Alpha virt. eigenvalues --    0.30824   0.31506   0.31769   0.32323   0.32646
 Alpha virt. eigenvalues --    0.32736   0.32856   0.33074   0.33318   0.33389
 Alpha virt. eigenvalues --    0.33697   0.33761   0.33956   0.34291   0.34410
 Alpha virt. eigenvalues --    0.34603   0.34996   0.35097   0.35590   0.35785
 Alpha virt. eigenvalues --    0.35987   0.36153   0.36304   0.36486   0.36537
 Alpha virt. eigenvalues --    0.37009   0.37386   0.37660   0.37813   0.38085
 Alpha virt. eigenvalues --    0.38152   0.38679   0.39173   0.39346   0.39509
 Alpha virt. eigenvalues --    0.40127   0.40542   0.40671   0.41338   0.41411
 Alpha virt. eigenvalues --    0.41695   0.41821   0.42176   0.42587   0.42739
 Alpha virt. eigenvalues --    0.43196   0.43495   0.43814   0.44331   0.45100
 Alpha virt. eigenvalues --    0.45302   0.45520   0.45684   0.46784   0.46810
 Alpha virt. eigenvalues --    0.47168   0.47602   0.47612   0.47936   0.48535
 Alpha virt. eigenvalues --    0.48803   0.49720   0.50373   0.51353   0.51857
 Alpha virt. eigenvalues --    0.52336   0.52524   0.52970   0.53256   0.53650
 Alpha virt. eigenvalues --    0.53892   0.54309   0.54529   0.55080   0.55637
 Alpha virt. eigenvalues --    0.55854   0.56298   0.56908   0.57367   0.57730
 Alpha virt. eigenvalues --    0.58466   0.59466   0.60472   0.60650   0.61011
 Alpha virt. eigenvalues --    0.61772   0.62207   0.62848   0.63563   0.63676
 Alpha virt. eigenvalues --    0.64199   0.64850   0.65109   0.65789   0.66476
 Alpha virt. eigenvalues --    0.66627   0.67842   0.68318   0.69975   0.70703
 Alpha virt. eigenvalues --    0.71436   0.72741   0.73241   0.74236   0.75433
 Alpha virt. eigenvalues --    0.77088   0.77786   0.78143   0.79144   0.79905
 Alpha virt. eigenvalues --    0.82043   0.82561   0.85928   0.87520   0.89847
 Alpha virt. eigenvalues --    0.93319   1.00731   1.01044   1.01168   1.01286
 Alpha virt. eigenvalues --    1.01948   1.06028   1.07776   1.08219   1.08569
 Alpha virt. eigenvalues --    1.10050   1.10280   1.10387   1.10684   1.11422
 Alpha virt. eigenvalues --    1.11663   1.11733   1.12837   1.13331   1.13490
 Alpha virt. eigenvalues --    1.13966   1.14237   1.14696   1.14896   1.15315
 Alpha virt. eigenvalues --    1.15762   1.16290   1.17051   1.17644   1.18168
 Alpha virt. eigenvalues --    1.18689   1.19536   1.19751   1.20043   1.20192
 Alpha virt. eigenvalues --    1.21036   1.21373   1.21584   1.21820   1.22211
 Alpha virt. eigenvalues --    1.22383   1.22591   1.22675   1.22955   1.23153
 Alpha virt. eigenvalues --    1.24016   1.24403   1.24488   1.24825   1.25400
 Alpha virt. eigenvalues --    1.25577   1.25610   1.26022   1.27061   1.27390
 Alpha virt. eigenvalues --    1.27712   1.28297   1.28419   1.29325   1.30067
 Alpha virt. eigenvalues --    1.30575   1.30756   1.31408   1.31616   1.32032
 Alpha virt. eigenvalues --    1.32241   1.32436   1.32662   1.32974   1.33422
 Alpha virt. eigenvalues --    1.33567   1.33883   1.34153   1.34572   1.34921
 Alpha virt. eigenvalues --    1.35125   1.35348   1.35692   1.36008   1.36243
 Alpha virt. eigenvalues --    1.36350   1.37303   1.37540   1.37931   1.38433
 Alpha virt. eigenvalues --    1.39123   1.40013   1.40285   1.40397   1.40544
 Alpha virt. eigenvalues --    1.40702   1.41068   1.41617   1.41725   1.41852
 Alpha virt. eigenvalues --    1.42336   1.42456   1.43202   1.43360   1.43479
 Alpha virt. eigenvalues --    1.43743   1.43824   1.44301   1.44560   1.44610
 Alpha virt. eigenvalues --    1.44925   1.45590   1.46326   1.47115   1.47487
 Alpha virt. eigenvalues --    1.47865   1.48653   1.49486   1.49823   1.50372
 Alpha virt. eigenvalues --    1.51125   1.51605   1.51976   1.52241   1.52440
 Alpha virt. eigenvalues --    1.52527   1.52714   1.52985   1.53512   1.54969
 Alpha virt. eigenvalues --    1.55182   1.55763   1.56061   1.56326   1.56589
 Alpha virt. eigenvalues --    1.57492   1.58727   1.59226   1.59321   1.59459
 Alpha virt. eigenvalues --    1.59717   1.60892   1.61761   1.62011   1.62275
 Alpha virt. eigenvalues --    1.62575   1.62909   1.63641   1.64586   1.64607
 Alpha virt. eigenvalues --    1.64793   1.64904   1.64979   1.65061   1.65284
 Alpha virt. eigenvalues --    1.65770   1.66081   1.66316   1.66437   1.66518
 Alpha virt. eigenvalues --    1.66633   1.66926   1.67154   1.67508   1.67633
 Alpha virt. eigenvalues --    1.68052   1.68485   1.68640   1.68777   1.69283
 Alpha virt. eigenvalues --    1.70063   1.70181   1.70557   1.70740   1.72273
 Alpha virt. eigenvalues --    1.72849   1.73657   1.73897   1.74134   1.75619
 Alpha virt. eigenvalues --    1.76144   1.76217   1.76549   1.77034   1.77373
 Alpha virt. eigenvalues --    1.78137   1.78799   1.79449   1.80051   1.80893
 Alpha virt. eigenvalues --    1.81243   1.82633   1.84321   1.84906   1.85677
 Alpha virt. eigenvalues --    1.85743   1.87548   1.87607   1.88746   1.89743
 Alpha virt. eigenvalues --    1.90058   1.90373   1.90498   1.90696   1.92329
 Alpha virt. eigenvalues --    1.92737   1.93209   1.93870   1.94659   1.95191
 Alpha virt. eigenvalues --    1.96909   1.97302   1.97798   1.98273   1.98464
 Alpha virt. eigenvalues --    1.99381   1.99748   2.00727   2.02466   2.02694
 Alpha virt. eigenvalues --    2.03060   2.03361   2.03813   2.04693   2.05726
 Alpha virt. eigenvalues --    2.06538   2.06954   2.07230   2.08110   2.08465
 Alpha virt. eigenvalues --    2.09685   2.11469   2.11846   2.14710   2.14926
 Alpha virt. eigenvalues --    2.15108   2.15618   2.16169   2.16462   2.16481
 Alpha virt. eigenvalues --    2.17016   2.17196   2.17480   2.17498   2.18063
 Alpha virt. eigenvalues --    2.18287   2.19065   2.19439   2.19807   2.20167
 Alpha virt. eigenvalues --    2.20380   2.20608   2.21021   2.21262   2.21717
 Alpha virt. eigenvalues --    2.21768   2.21952   2.22365   2.22493   2.23029
 Alpha virt. eigenvalues --    2.23189   2.23738   2.24175   2.24600   2.24731
 Alpha virt. eigenvalues --    2.25160   2.25736   2.26007   2.28100   2.31389
 Alpha virt. eigenvalues --    2.31517   2.31821   2.31878   2.32762   2.33936
 Alpha virt. eigenvalues --    2.34138   2.35262   2.36437   2.36775   2.37881
 Alpha virt. eigenvalues --    2.38733   2.39393   2.39733   2.40219   2.40448
 Alpha virt. eigenvalues --    2.40666   2.41129   2.41235   2.42062   2.42442
 Alpha virt. eigenvalues --    2.42689   2.43409   2.43821   2.44421   2.45004
 Alpha virt. eigenvalues --    2.45436   2.45543   2.45808   2.46116   2.46329
 Alpha virt. eigenvalues --    2.46864   2.47013   2.48222   2.49427   2.51244
 Alpha virt. eigenvalues --    2.51269   2.51609   2.51947   2.52423   2.52625
 Alpha virt. eigenvalues --    2.52748   2.53911   2.54106   2.54385   2.54666
 Alpha virt. eigenvalues --    2.55226   2.56520   2.57480   2.58052   2.58452
 Alpha virt. eigenvalues --    2.59282   2.60669   2.61109   2.61667   2.61780
 Alpha virt. eigenvalues --    2.62408   2.62559   2.63129   2.63316   2.63852
 Alpha virt. eigenvalues --    2.64733   2.65193   2.66835   2.67175   2.68397
 Alpha virt. eigenvalues --    2.69328   2.70028   2.72969   2.73171   2.74393
 Alpha virt. eigenvalues --    2.74705   2.75109   2.75815   2.76505   2.82497
 Alpha virt. eigenvalues --    2.82948   2.87441   2.87635   2.88466   2.90010
 Alpha virt. eigenvalues --    2.92493   2.95278   2.96186   2.96513   2.97241
 Alpha virt. eigenvalues --    2.97949   2.98024   2.98844   2.99621   2.99807
 Alpha virt. eigenvalues --    3.00159   3.00736   3.00979   3.02010   3.03816
 Alpha virt. eigenvalues --    3.03958   3.06118   3.06747   3.08363   3.08995
 Alpha virt. eigenvalues --    3.09191   3.10528   3.11111   3.12509   3.14400
 Alpha virt. eigenvalues --    3.16475   3.16787   3.17119   3.17300   3.17461
 Alpha virt. eigenvalues --    3.17943   3.18236   3.18519   3.19724   3.19933
 Alpha virt. eigenvalues --    3.21897   3.22803   3.23048   3.24260   3.25270
 Alpha virt. eigenvalues --    3.26002   3.26439   3.27143   3.30244   3.30704
 Alpha virt. eigenvalues --    3.30942   3.31394   3.32264   3.32651   3.45635
 Alpha virt. eigenvalues --    3.46106   3.48097   3.54240   3.58454   3.58865
 Alpha virt. eigenvalues --    3.67345   3.68472   3.68826   3.69987   3.84743
 Alpha virt. eigenvalues --    3.85166  18.70251  18.89888  21.10547  21.13275
 Alpha virt. eigenvalues --   21.36617  21.37029  21.49661  21.50749  21.54527
 Alpha virt. eigenvalues --   21.57250  21.64650  21.64957  21.66310  21.67527
 Alpha virt. eigenvalues --   21.77032  21.78015  21.81169  21.81664  21.82008
 Alpha virt. eigenvalues --   21.83993  21.85319  21.85533  21.95118  21.98379
 Alpha virt. eigenvalues --   22.05020  22.05960  22.08296  22.08720  31.50310
 Alpha virt. eigenvalues --   31.50764  31.65056  31.65363
          Condensed to atoms (all electrons):
 Mulliken charges:
               1
     1  C   -0.126290
     2  C   -0.244024
     3  S    0.094490
     4  C    0.049685
     5  C   -0.075132
     6  C   -0.167925
     7  C    0.100539
     8  C   -0.130985
     9  H    0.180428
    10  C   -0.079986
    11  C   -0.049279
    12  C   -0.097761
    13  C    0.131293
    14  H    0.182895
    15  H    0.146950
    16  H    0.161630
    17  C   -0.112455
    18  H    0.191540
    19  H    0.128590
    20  H    0.134866
    21  H    0.160057
    22  S    0.012224
    23  C   -0.504042
    24  C    0.085820
    25  C    0.070827
    26  N    0.020580
    27  N    0.017572
    28  C   -0.253701
    29  H    0.179567
    30  H    0.150089
    31  H    0.172534
    32  C   -0.252180
    33  H    0.173570
    34  H    0.184341
    35  H    0.144755
    36  C   -0.258216
    37  H    0.179364
    38  H    0.156936
    39  H    0.174826
    40  C   -0.256977
    41  H    0.174021
    42  H    0.186281
    43  H    0.145138
    44  C   -0.465824
    45  C    0.085211
    46  C    0.077601
    47  N    0.017391
    48  N    0.016108
    49  C   -0.254822
    50  H    0.178125
    51  H    0.153492
    52  H    0.172208
    53  C   -0.254858
    54  H    0.172957
    55  H    0.183898
    56  H    0.144666
    57  C   -0.255006
    58  H    0.177122
    59  H    0.150457
    60  H    0.172791
    61  C   -0.256933
    62  H    0.172133
    63  H    0.184478
    64  H    0.146348
 Sum of Mulliken charges =   2.00000
 Mulliken charges with hydrogens summed into heavy atoms:
               1
     1  C    0.065250
     2  C   -0.244024
     3  S    0.094490
     4  C    0.230112
     5  C   -0.075132
     6  C   -0.167925
     7  C    0.100539
     8  C    0.003881
    10  C    0.102910
    11  C    0.097671
    12  C    0.063869
    13  C    0.131293
    17  C    0.047603
    22  S    0.140814
    23  C   -0.504042
    24  C    0.085820
    25  C    0.070827
    26  N    0.020580
    27  N    0.017572
    28  C    0.248489
    32  C    0.250486
    36  C    0.252910
    40  C    0.248463
    44  C   -0.465824
    45  C    0.085211
    46  C    0.077601
    47  N    0.017391
    48  N    0.016108
    49  C    0.249003
    53  C    0.246663
    57  C    0.245365
    61  C    0.246026
 Electronic spatial extent (au):  <R**2>=          29306.2075
 Charge=              2.0000 electrons
 Dipole moment (field-independent basis, Debye):
    X=             -0.3677    Y=              3.2892    Z=             -0.5823  Tot=              3.3605
 Quadrupole moment (field-independent basis, Debye-Ang):
   XX=            270.2441   YY=           -143.0908   ZZ=           -186.9875
   XY=             -8.5340   XZ=              5.2672   YZ=             -1.2918
 Traceless Quadrupole moment (field-independent basis, Debye-Ang):
   XX=            290.1888   YY=           -123.1461   ZZ=           -167.0428
   XY=             -8.5340   XZ=              5.2672   YZ=             -1.2918
 Octapole moment (field-independent basis, Debye-Ang**2):
  XXX=             37.1766  YYY=             48.2319  ZZZ=             -0.9542  XYY=              1.8008
  XXY=            161.2879  XXZ=            -66.9719  XZZ=             -8.2273  YZZ=             14.6974
  YYZ=             -5.2342  XYZ=           -128.7943
 Hexadecapole moment (field-independent basis, Debye-Ang**3):
 XXXX=          -5665.9927 YYYY=          -3073.8696 ZZZZ=          -1247.3757 XXXY=            -65.5424
 XXXZ=            664.8309 YYYX=           -190.5947 YYYZ=              0.3226 ZZZX=             24.4538
 ZZZY=             -0.0034 XXYY=          -3567.4625 XXZZ=          -5404.3650 YYZZ=           -718.9756
 XXYZ=            -16.9027 YYXZ=            -49.5490 ZZXY=              3.5176
 N-N= 3.278947104542D+03 E-N=-1.125362967002D+04  KE= 2.016767571196D+03
 No NMR shielding tensors so no spin-rotation constants.
 Leave Link  601 at Wed Jan 27 00:22:52 2021, MaxMem=  4026531840 cpu:               5.8 elap:               0.8
 (Enter /opt/ohpc/pub/libs/gaussian/g16-A.03/sandybridge/g16/l9999.exe)

 Test job not archived.
 1\1\GINC-CNODE145\SP\RLC-wHPBE\TZVP\C26H32N4S2(2+)\RDU230\27-Jan-2021\
 0\\#P LC-wHPBE/TZVP iop(3/107=0221900000, 3/108=0221900000) scf=(conve
 r=6,fermi,ndamp=35,noincfock,novaracc,vshift=500,xqc)\\H32 C26 S2 N4\\
 2,1\C,0,-2.928949,-0.209586,-0.466429\C,0,-1.563914,-0.061175,-0.30379
 \S,0,-0.549634,-0.92994,-1.465043\C,0,-1.080492,0.744795,0.70659\C,0,1
 .720975,-1.178026,0.124019\C,0,1.104728,-0.556786,-0.961278\C,0,-3.804
 439,0.453059,0.37376\C,0,-1.957571,1.39872,1.546095\H,0,-0.017059,0.86
 7388,0.843825\C,0,3.05531,-0.905897,0.375396\C,0,1.834379,0.303673,-1.
 763498\C,0,3.157322,0.57014,-1.506853\C,0,3.772824,-0.043708,-0.429435
 \H,0,3.535939,-1.385849,1.215765\H,0,1.346414,0.763075,-2.610001\H,0,3
 .71103,1.227115,-2.160412\C,0,-3.316329,1.26263,1.386512\H,0,-3.309964
 ,-0.825983,-1.268943\H,0,-0.12139,-2.546838,0.437504\H,0,-1.570409,2.0
 20933,2.339064\H,0,-3.993957,1.766527,2.059405\S,0,0.923466,-2.279512,
 1.229412\C,0,5.179371,0.186625,-0.15991\C,0,6.258258,1.013194,-0.19423
 8\C,0,6.373984,-0.291545,0.281001\N,0,6.778879,2.1722,-0.466391\N,0,7.
 085837,-1.264246,0.765069\C,0,5.943792,3.274283,-0.907684\H,0,6.187951
 ,3.5455,-1.931936\H,0,4.898805,2.994168,-0.846509\H,0,6.108951,4.13480
 4,-0.264794\C,0,8.194976,2.451187,-0.318309\H,0,8.537142,3.011091,-1.1
 83702\H,0,8.380874,3.039067,0.577705\H,0,8.758216,1.527533,-0.273817\C
 ,0,6.515968,-2.589608,0.931428\H,0,6.460524,-2.846499,1.986434\H,0,5.5
 24243,-2.624805,0.496396\H,0,7.140387,-3.318442,0.421721\C,0,8.484929,
 -1.112006,1.118438\H,0,8.667734,-1.621246,2.059984\H,0,9.125917,-1.545
 202,0.353886\H,0,8.728287,-0.065327,1.25212\C,0,-5.234909,0.301436,0.1
 92555\C,0,-6.482207,0.837696,0.274291\C,0,-6.296202,-0.469144,-0.16637
 3\N,0,-7.258316,1.842942,0.55157\N,0,-6.771609,-1.601745,-0.593499\C,0
 ,-6.699705,3.135271,0.904858\H,0,-6.943427,3.382636,1.935256\H,0,-5.62
 3434,3.119821,0.780416\H,0,-7.111169,3.899344,0.250646\C,0,-8.704916,1
 .757804,0.486526\H,0,-9.127537,2.25749,1.353238\H,0,-9.080352,2.238157
 ,-0.414316\H,0,-9.022841,0.722915,0.509579\C,0,-5.902929,-2.750782,-0.
 768792\H,0,-5.850729,-3.027562,-1.819029\H,0,-4.908582,-2.521281,-0.40
 444\H,0,-6.292204,-3.59128,-0.200176\C,0,-8.181475,-1.806186,-0.866823
 \H,0,-8.283723,-2.375263,-1.7861\H,0,-8.657299,-2.356258,-0.057912\H,0
 ,-8.67988,-0.85495,-1.00634\\Version=EM64L-G16RevA.03\State=1-A\HF=-20
 23.8315538\RMSD=7.143e-07\Dipole=0.1446779,1.2940747,0.229081\Quadrupo
 le=215.7482819,-91.5560833,-124.1921986,6.344804,3.916018,0.9604537\PG
 =C01 [X(C26H32N4S2)]\\@


 ALL THINGS ARE POSSIBLE EXCEPT SKIING THROUGH A REVOLVING DOOR.
 Job cpu time:       0 days  2 hours 29 minutes 19.1 seconds.
 Elapsed time:       0 days  0 hours 18 minutes 56.3 seconds.
 File lengths (MBytes):  RWF=    248 Int=      0 D2E=      0 Chk=     44 Scr=      8
 Normal termination of Gaussian 16 at Wed Jan 27 00:22:52 2021.
