 Entering Gaussian System, Link 0=g16
 Input=mol_ta_cp_whol_tune_n8.gjf
 Output=mol_ta_cp_whol_tune_n8.log
 Initial command:
 /opt/ohpc/pub/libs/gaussian/g16-A.03/sandybridge/g16/l1.exe "/mnt/gpfs2_4m/scratch/rdu230/ondemand/projects/init_structures/gaussian/wtuning/mol_ta_cp_whol/tuning_mol_ta_cp_whol_ocycle0/Gau-31168.inp" -scrdir="/mnt/gpfs2_4m/scratch/rdu230/ondemand/projects/init_structures/gaussian/wtuning/mol_ta_cp_whol/tuning_mol_ta_cp_whol_ocycle0/"
 Entering Link 1 = /opt/ohpc/pub/libs/gaussian/g16-A.03/sandybridge/g16/l1.exe PID=     31169.
  
 Copyright (c) 1988,1990,1992,1993,1995,1998,2003,2009,2016,
            Gaussian, Inc.  All Rights Reserved.
  
 This is part of the Gaussian(R) 16 program.  It is based on
 the Gaussian(R) 09 system (copyright 2009, Gaussian, Inc.),
 the Gaussian(R) 03 system (copyright 2003, Gaussian, Inc.),
 the Gaussian(R) 98 system (copyright 1998, Gaussian, Inc.),
 the Gaussian(R) 94 system (copyright 1995, Gaussian, Inc.),
 the Gaussian 92(TM) system (copyright 1992, Gaussian, Inc.),
 the Gaussian 90(TM) system (copyright 1990, Gaussian, Inc.),
 the Gaussian 88(TM) system (copyright 1988, Gaussian, Inc.),
 the Gaussian 86(TM) system (copyright 1986, Carnegie Mellon
 University), and the Gaussian 82(TM) system (copyright 1983,
 Carnegie Mellon University). Gaussian is a federally registered
 trademark of Gaussian, Inc.
  
 This software contains proprietary and confidential information,
 including trade secrets, belonging to Gaussian, Inc.
  
 This software is provided under written license and may be
 used, copied, transmitted, or stored only in accord with that
 written license.
  
 The following legend is applicable only to US Government
 contracts under FAR:
  
                    RESTRICTED RIGHTS LEGEND
  
 Use, reproduction and disclosure by the US Government is
 subject to restrictions as set forth in subparagraphs (a)
 and (c) of the Commercial Computer Software - Restricted
 Rights clause in FAR 52.227-19.
  
 Gaussian, Inc.
 340 Quinnipiac St., Bldg. 40, Wallingford CT 06492
  
  
 ---------------------------------------------------------------
 Warning -- This program may not be used in any manner that
 competes with the business of Gaussian, Inc. or will provide
 assistance to any competitor of Gaussian, Inc.  The licensee
 of this program is prohibited from giving any competitor of
 Gaussian, Inc. access to this program.  By using this program,
 the user acknowledges that Gaussian, Inc. is engaged in the
 business of creating and licensing software in the field of
 computational chemistry and represents and warrants to the
 licensee that it is not a competitor of Gaussian, Inc. and that
 it will not use this program in any manner prohibited above.
 ---------------------------------------------------------------
  

 Cite this work as:
 Gaussian 16, Revision A.03,
 M. J. Frisch, G. W. Trucks, H. B. Schlegel, G. E. Scuseria, 
 M. A. Robb, J. R. Cheeseman, G. Scalmani, V. Barone, 
 G. A. Petersson, H. Nakatsuji, X. Li, M. Caricato, A. V. Marenich, 
 J. Bloino, B. G. Janesko, R. Gomperts, B. Mennucci, H. P. Hratchian, 
 J. V. Ortiz, A. F. Izmaylov, J. L. Sonnenberg, D. Williams-Young, 
 F. Ding, F. Lipparini, F. Egidi, J. Goings, B. Peng, A. Petrone, 
 T. Henderson, D. Ranasinghe, V. G. Zakrzewski, J. Gao, N. Rega, 
 G. Zheng, W. Liang, M. Hada, M. Ehara, K. Toyota, R. Fukuda, 
 J. Hasegawa, M. Ishida, T. Nakajima, Y. Honda, O. Kitao, H. Nakai, 
 T. Vreven, K. Throssell, J. A. Montgomery, Jr., J. E. Peralta, 
 F. Ogliaro, M. J. Bearpark, J. J. Heyd, E. N. Brothers, K. N. Kudin, 
 V. N. Staroverov, T. A. Keith, R. Kobayashi, J. Normand, 
 K. Raghavachari, A. P. Rendell, J. C. Burant, S. S. Iyengar, 
 J. Tomasi, M. Cossi, J. M. Millam, M. Klene, C. Adamo, R. Cammi, 
 J. W. Ochterski, R. L. Martin, K. Morokuma, O. Farkas, 
 J. B. Foresman, and D. J. Fox, Gaussian, Inc., Wallingford CT, 2016.
 
 ******************************************
 Gaussian 16:  EM64L-G16RevA.03 25-Dec-2016
                27-Jan-2021 
 ******************************************
 %mem=30GB
 %nproc=8
 Will use up to    8 processors via shared memory.
 ----------------------------------------------------------------------
 #P LC-wHPBE/TZVP iop(3/107=0189300000, 3/108=0189300000) scf=(conver=6
 ,fermi,ndamp=35,noincfock,novaracc,vshift=500,xqc)
 ----------------------------------------------------------------------
 1/38=1,172=1/1;
 2/12=2,17=6,18=5,40=1/2;
 3/5=19,7=101,11=2,25=1,30=1,74=-71,107=189300000,108=189300000/1,2,3;
 4//1;
 5/5=100002,6=6,8=3,10=500,13=1,18=-1,22=13,38=1,93=35/2,8;
 6/7=2,8=2,9=2,10=2,28=1/1;
 99/5=1,9=1/99;
 Leave Link    1 at Wed Jan 27 13:05:13 2021, MaxMem=  4026531840 cpu:               1.5 elap:               0.2
 (Enter /opt/ohpc/pub/libs/gaussian/g16-A.03/sandybridge/g16/l101.exe)
 -------------
 H32 C26 S2 N4
 -------------
 Symbolic Z-matrix:
 Charge =  2 Multiplicity = 1
 C                    -2.92895  -0.20959  -0.46643 
 C                    -1.56391  -0.06118  -0.30379 
 S                    -0.54963  -0.92994  -1.46504 
 C                    -1.08049   0.7448    0.70659 
 C                     1.72098  -1.17803   0.12402 
 C                     1.10473  -0.55679  -0.96128 
 C                    -3.80444   0.45306   0.37376 
 C                    -1.95757   1.39872   1.5461 
 H                    -0.01706   0.86739   0.84383 
 C                     3.05531  -0.9059    0.3754 
 C                     1.83438   0.30367  -1.7635 
 C                     3.15732   0.57014  -1.50685 
 C                     3.77282  -0.04371  -0.42944 
 H                     3.53594  -1.38585   1.21576 
 H                     1.34641   0.76308  -2.61 
 H                     3.71103   1.22712  -2.16041 
 C                    -3.31633   1.26263   1.38651 
 H                    -3.30996  -0.82598  -1.26894 
 H                    -0.12139  -2.54684   0.4375 
 H                    -1.57041   2.02093   2.33906 
 H                    -3.99396   1.76653   2.0594 
 S                     0.92347  -2.27951   1.22941 
 C                     5.17937   0.18663  -0.15991 
 C                     6.25826   1.01319  -0.19424 
 C                     6.37398  -0.29155   0.281 
 N                     6.77888   2.1722   -0.46639 
 N                     7.08584  -1.26425   0.76507 
 C                     5.94379   3.27428  -0.90768 
 H                     6.18795   3.5455   -1.93194 
 H                     4.89881   2.99417  -0.84651 
 H                     6.10895   4.1348   -0.26479 
 C                     8.19498   2.45119  -0.31831 
 H                     8.53714   3.01109  -1.1837 
 H                     8.38087   3.03907   0.57771 
 H                     8.75822   1.52753  -0.27382 
 C                     6.51597  -2.58961   0.93143 
 H                     6.46052  -2.8465    1.98643 
 H                     5.52424  -2.62481   0.4964 
 H                     7.14039  -3.31844   0.42172 
 C                     8.48493  -1.11201   1.11844 
 H                     8.66773  -1.62125   2.05998 
 H                     9.12592  -1.5452    0.35389 
 H                     8.72829  -0.06533   1.25212 
 C                    -5.23491   0.30144   0.19256 
 C                    -6.48221   0.8377    0.27429 
 C                    -6.2962   -0.46914  -0.16637 
 N                    -7.25832   1.84294   0.55157 
 N                    -6.77161  -1.60175  -0.5935 
 C                    -6.6997    3.13527   0.90486 
 H                    -6.94343   3.38264   1.93526 
 H                    -5.62343   3.11982   0.78042 
 H                    -7.11117   3.89934   0.25065 
 C                    -8.70492   1.7578    0.48653 
 H                    -9.12754   2.25749   1.35324 
 H                    -9.08035   2.23816  -0.41432 
 H                    -9.02284   0.72292   0.50958 
 C                    -5.90293  -2.75078  -0.76879 
 H                    -5.85073  -3.02756  -1.81903 
 H                    -4.90858  -2.52128  -0.40444 
 H                    -6.2922   -3.59128  -0.20018 
 C                    -8.18148  -1.80619  -0.86682 
 H                    -8.28372  -2.37526  -1.7861 
 H                    -8.6573   -2.35626  -0.05791 
 H                    -8.67988  -0.85495  -1.00634 
 
 ITRead=  0  0  0  0  0  0  0  0  0  0  0  0  0  0  0  0  0  0  0  0
 ITRead=  0  0  0  0  0  0  0  0  0  0  0  0  0  0  0  0  0  0  0  0
 ITRead=  0  0  0  0  0  0  0  0  0  0  0  0  0  0  0  0  0  0  0  0
 ITRead=  0  0  0  0
 MicOpt= -1 -1 -1 -1 -1 -1 -1 -1 -1 -1 -1 -1 -1 -1 -1 -1 -1 -1 -1 -1
 MicOpt= -1 -1 -1 -1 -1 -1 -1 -1 -1 -1 -1 -1 -1 -1 -1 -1 -1 -1 -1 -1
 MicOpt= -1 -1 -1 -1 -1 -1 -1 -1 -1 -1 -1 -1 -1 -1 -1 -1 -1 -1 -1 -1
 MicOpt= -1 -1 -1 -1
 NAtoms=     64 NQM=       64 NQMF=       0 NMMI=      0 NMMIF=      0
                NMic=       0 NMicF=      0.
                    Isotopes and Nuclear Properties:
 (Nuclear quadrupole moments (NQMom) in fm**2, nuclear magnetic moments (NMagM)
  in nuclear magnetons)

  Atom         1           2           3           4           5           6           7           8           9          10
 IAtWgt=          12          12          32          12          12          12          12          12           1          12
 AtmWgt=  12.0000000  12.0000000  31.9720718  12.0000000  12.0000000  12.0000000  12.0000000  12.0000000   1.0078250  12.0000000
 NucSpn=           0           0           0           0           0           0           0           0           1           0
 AtZEff=  -0.0000000  -0.0000000  -0.0000000  -0.0000000  -0.0000000  -0.0000000  -0.0000000  -0.0000000  -0.0000000  -0.0000000
 NQMom=    0.0000000   0.0000000   0.0000000   0.0000000   0.0000000   0.0000000   0.0000000   0.0000000   0.0000000   0.0000000
 NMagM=    0.0000000   0.0000000   0.0000000   0.0000000   0.0000000   0.0000000   0.0000000   0.0000000   2.7928460   0.0000000
 AtZNuc=   6.0000000   6.0000000  16.0000000   6.0000000   6.0000000   6.0000000   6.0000000   6.0000000   1.0000000   6.0000000

  Atom        11          12          13          14          15          16          17          18          19          20
 IAtWgt=          12          12          12           1           1           1          12           1           1           1
 AtmWgt=  12.0000000  12.0000000  12.0000000   1.0078250   1.0078250   1.0078250  12.0000000   1.0078250   1.0078250   1.0078250
 NucSpn=           0           0           0           1           1           1           0           1           1           1
 AtZEff=  -0.0000000  -0.0000000  -0.0000000  -0.0000000  -0.0000000  -0.0000000  -0.0000000  -0.0000000  -0.0000000  -0.0000000
 NQMom=    0.0000000   0.0000000   0.0000000   0.0000000   0.0000000   0.0000000   0.0000000   0.0000000   0.0000000   0.0000000
 NMagM=    0.0000000   0.0000000   0.0000000   2.7928460   2.7928460   2.7928460   0.0000000   2.7928460   2.7928460   2.7928460
 AtZNuc=   6.0000000   6.0000000   6.0000000   1.0000000   1.0000000   1.0000000   6.0000000   1.0000000   1.0000000   1.0000000

  Atom        21          22          23          24          25          26          27          28          29          30
 IAtWgt=           1          32          12          12          12          14          14          12           1           1
 AtmWgt=   1.0078250  31.9720718  12.0000000  12.0000000  12.0000000  14.0030740  14.0030740  12.0000000   1.0078250   1.0078250
 NucSpn=           1           0           0           0           0           2           2           0           1           1
 AtZEff=  -0.0000000  -0.0000000  -0.0000000  -0.0000000  -0.0000000  -0.0000000  -0.0000000  -0.0000000  -0.0000000  -0.0000000
 NQMom=    0.0000000   0.0000000   0.0000000   0.0000000   0.0000000   2.0440000   2.0440000   0.0000000   0.0000000   0.0000000
 NMagM=    2.7928460   0.0000000   0.0000000   0.0000000   0.0000000   0.4037610   0.4037610   0.0000000   2.7928460   2.7928460
 AtZNuc=   1.0000000  16.0000000   6.0000000   6.0000000   6.0000000   7.0000000   7.0000000   6.0000000   1.0000000   1.0000000

  Atom        31          32          33          34          35          36          37          38          39          40
 IAtWgt=           1          12           1           1           1          12           1           1           1          12
 AtmWgt=   1.0078250  12.0000000   1.0078250   1.0078250   1.0078250  12.0000000   1.0078250   1.0078250   1.0078250  12.0000000
 NucSpn=           1           0           1           1           1           0           1           1           1           0
 AtZEff=  -0.0000000  -0.0000000  -0.0000000  -0.0000000  -0.0000000  -0.0000000  -0.0000000  -0.0000000  -0.0000000  -0.0000000
 NQMom=    0.0000000   0.0000000   0.0000000   0.0000000   0.0000000   0.0000000   0.0000000   0.0000000   0.0000000   0.0000000
 NMagM=    2.7928460   0.0000000   2.7928460   2.7928460   2.7928460   0.0000000   2.7928460   2.7928460   2.7928460   0.0000000
 AtZNuc=   1.0000000   6.0000000   1.0000000   1.0000000   1.0000000   6.0000000   1.0000000   1.0000000   1.0000000   6.0000000

  Atom        41          42          43          44          45          46          47          48          49          50
 IAtWgt=           1           1           1          12          12          12          14          14          12           1
 AtmWgt=   1.0078250   1.0078250   1.0078250  12.0000000  12.0000000  12.0000000  14.0030740  14.0030740  12.0000000   1.0078250
 NucSpn=           1           1           1           0           0           0           2           2           0           1
 AtZEff=  -0.0000000  -0.0000000  -0.0000000  -0.0000000  -0.0000000  -0.0000000  -0.0000000  -0.0000000  -0.0000000  -0.0000000
 NQMom=    0.0000000   0.0000000   0.0000000   0.0000000   0.0000000   0.0000000   2.0440000   2.0440000   0.0000000   0.0000000
 NMagM=    2.7928460   2.7928460   2.7928460   0.0000000   0.0000000   0.0000000   0.4037610   0.4037610   0.0000000   2.7928460
 AtZNuc=   1.0000000   1.0000000   1.0000000   6.0000000   6.0000000   6.0000000   7.0000000   7.0000000   6.0000000   1.0000000

  Atom        51          52          53          54          55          56          57          58          59          60
 IAtWgt=           1           1          12           1           1           1          12           1           1           1
 AtmWgt=   1.0078250   1.0078250  12.0000000   1.0078250   1.0078250   1.0078250  12.0000000   1.0078250   1.0078250   1.0078250
 NucSpn=           1           1           0           1           1           1           0           1           1           1
 AtZEff=  -0.0000000  -0.0000000  -0.0000000  -0.0000000  -0.0000000  -0.0000000  -0.0000000  -0.0000000  -0.0000000  -0.0000000
 NQMom=    0.0000000   0.0000000   0.0000000   0.0000000   0.0000000   0.0000000   0.0000000   0.0000000   0.0000000   0.0000000
 NMagM=    2.7928460   2.7928460   0.0000000   2.7928460   2.7928460   2.7928460   0.0000000   2.7928460   2.7928460   2.7928460
 AtZNuc=   1.0000000   1.0000000   6.0000000   1.0000000   1.0000000   1.0000000   6.0000000   1.0000000   1.0000000   1.0000000

  Atom        61          62          63          64
 IAtWgt=          12           1           1           1
 AtmWgt=  12.0000000   1.0078250   1.0078250   1.0078250
 NucSpn=           0           1           1           1
 AtZEff=  -0.0000000  -0.0000000  -0.0000000  -0.0000000
 NQMom=    0.0000000   0.0000000   0.0000000   0.0000000
 NMagM=    0.0000000   2.7928460   2.7928460   2.7928460
 AtZNuc=   6.0000000   1.0000000   1.0000000   1.0000000
 Leave Link  101 at Wed Jan 27 13:05:13 2021, MaxMem=  4026531840 cpu:               0.9 elap:               0.1
 (Enter /opt/ohpc/pub/libs/gaussian/g16-A.03/sandybridge/g16/l202.exe)
 Stoichiometry    C26H32N4S2(2+)
 Framework group  C1[X(C26H32N4S2)]
 Deg. of freedom   186
 Full point group                 C1      NOp   1
 Largest Abelian subgroup         C1      NOp   1
 Largest concise Abelian subgroup C1      NOp   1
                         Standard orientation:                         
 ---------------------------------------------------------------------
 Center     Atomic      Atomic             Coordinates (Angstroms)
 Number     Number       Type             X           Y           Z
 ---------------------------------------------------------------------
      1          6           0        2.928949   -0.209586    0.466429
      2          6           0        1.563914   -0.061175    0.303790
      3         16           0        0.549634   -0.929940    1.465043
      4          6           0        1.080492    0.744795   -0.706590
      5          6           0       -1.720975   -1.178026   -0.124019
      6          6           0       -1.104728   -0.556786    0.961278
      7          6           0        3.804439    0.453059   -0.373760
      8          6           0        1.957571    1.398720   -1.546095
      9          1           0        0.017059    0.867388   -0.843825
     10          6           0       -3.055310   -0.905897   -0.375396
     11          6           0       -1.834379    0.303673    1.763498
     12          6           0       -3.157322    0.570140    1.506853
     13          6           0       -3.772824   -0.043708    0.429435
     14          1           0       -3.535939   -1.385849   -1.215765
     15          1           0       -1.346414    0.763075    2.610001
     16          1           0       -3.711030    1.227115    2.160412
     17          6           0        3.316329    1.262630   -1.386512
     18          1           0        3.309964   -0.825983    1.268943
     19          1           0        0.121390   -2.546838   -0.437504
     20          1           0        1.570409    2.020933   -2.339064
     21          1           0        3.993957    1.766527   -2.059405
     22         16           0       -0.923466   -2.279512   -1.229412
     23          6           0       -5.179371    0.186625    0.159910
     24          6           0       -6.258258    1.013194    0.194238
     25          6           0       -6.373984   -0.291545   -0.281001
     26          7           0       -6.778879    2.172200    0.466391
     27          7           0       -7.085837   -1.264246   -0.765069
     28          6           0       -5.943792    3.274283    0.907684
     29          1           0       -6.187951    3.545500    1.931936
     30          1           0       -4.898805    2.994168    0.846509
     31          1           0       -6.108951    4.134804    0.264794
     32          6           0       -8.194976    2.451187    0.318309
     33          1           0       -8.537142    3.011091    1.183702
     34          1           0       -8.380874    3.039067   -0.577705
     35          1           0       -8.758216    1.527533    0.273817
     36          6           0       -6.515968   -2.589608   -0.931428
     37          1           0       -6.460524   -2.846499   -1.986434
     38          1           0       -5.524243   -2.624805   -0.496396
     39          1           0       -7.140387   -3.318442   -0.421721
     40          6           0       -8.484929   -1.112006   -1.118438
     41          1           0       -8.667734   -1.621246   -2.059984
     42          1           0       -9.125917   -1.545202   -0.353886
     43          1           0       -8.728287   -0.065327   -1.252120
     44          6           0        5.234909    0.301436   -0.192555
     45          6           0        6.482207    0.837696   -0.274291
     46          6           0        6.296202   -0.469144    0.166373
     47          7           0        7.258316    1.842942   -0.551570
     48          7           0        6.771609   -1.601745    0.593499
     49          6           0        6.699705    3.135271   -0.904858
     50          1           0        6.943427    3.382636   -1.935256
     51          1           0        5.623434    3.119821   -0.780416
     52          1           0        7.111169    3.899344   -0.250646
     53          6           0        8.704916    1.757804   -0.486526
     54          1           0        9.127537    2.257490   -1.353238
     55          1           0        9.080352    2.238157    0.414316
     56          1           0        9.022841    0.722915   -0.509579
     57          6           0        5.902929   -2.750782    0.768792
     58          1           0        5.850729   -3.027562    1.819029
     59          1           0        4.908582   -2.521281    0.404440
     60          1           0        6.292204   -3.591280    0.200176
     61          6           0        8.181475   -1.806186    0.866823
     62          1           0        8.283723   -2.375263    1.786100
     63          1           0        8.657299   -2.356258    0.057912
     64          1           0        8.679880   -0.854950    1.006340
 ---------------------------------------------------------------------
 Rotational constants (GHZ):           0.3037259           0.0375439           0.0353071
 Leave Link  202 at Wed Jan 27 13:05:13 2021, MaxMem=  4026531840 cpu:               0.1 elap:               0.0
 (Enter /opt/ohpc/pub/libs/gaussian/g16-A.03/sandybridge/g16/l301.exe)
 Standard basis: TZVP (5D, 7F)
 Ernie: Thresh=  0.10000D-02 Tol=  0.10000D-05 Strict=F.
 There are   838 symmetry adapted cartesian basis functions of A   symmetry.
 There are   806 symmetry adapted basis functions of A   symmetry.
   806 basis functions,  1400 primitive gaussians,   838 cartesian basis functions
   123 alpha electrons      123 beta electrons
       nuclear repulsion energy      3278.9471045421 Hartrees.
 IExCor=33909 DFT=T Ex+Corr=LC-wHPBE ExCW=0 ScaHFX=  1.000000
 ScaDFX=  1.000000  1.000000  1.000000  1.000000 ScalE2=  1.000000  1.000000
 IRadAn=      5 IRanWt=     -1 IRanGd=            0 ICorTp=0 IEmpDi=  4
 HFx  wShort=  0.000000 wLong=  0.189300 cFull=  0.000000 cShort=  0.000000 cLong=  1.000000
 DFx  wShort=  0.000000 wLong=  0.189300 cFull=  0.000000 cShort=  1.000000 cLong=  0.000000
 NAtoms=   64 NActive=   64 NUniq=   64 SFac= 1.00D+00 NAtFMM=   60 NAOKFM=T Big=T
 Integral buffers will be    131072 words long.
 Raffenetti 2 integral format.
 Two-electron integral symmetry is turned on.
 Leave Link  301 at Wed Jan 27 13:05:13 2021, MaxMem=  4026531840 cpu:               0.5 elap:               0.1
 (Enter /opt/ohpc/pub/libs/gaussian/g16-A.03/sandybridge/g16/l302.exe)
 NPDir=0 NMtPBC=     1 NCelOv=     1 NCel=       1 NClECP=     1 NCelD=      1
         NCelK=      1 NCelE2=     1 NClLst=     1 CellRange=     0.0.
 One-electron integrals computed using PRISM.
 One-electron integral symmetry used in STVInt
 NBasis=   806 RedAO= T EigKep=  6.39D-06  NBF=   806
 NBsUse=   806 1.00D-06 EigRej= -1.00D+00 NBFU=   806
 Precomputing XC quadrature grid using
 IXCGrd= 4 IRadAn=           5 IRanWt=          -1 IRanGd=           0 AccXCQ= 0.00D+00.
 Generated NRdTot=       0 NPtTot=           0 NUsed=           0 NTot=          32
 NSgBfM=   770   766   769   770   770 MxSgAt=    64 MxSgA2=    64.
 Leave Link  302 at Wed Jan 27 13:05:15 2021, MaxMem=  4026531840 cpu:              20.5 elap:               2.6
 (Enter /opt/ohpc/pub/libs/gaussian/g16-A.03/sandybridge/g16/l303.exe)
 DipDrv:  MaxL=1.
 Leave Link  303 at Wed Jan 27 13:05:16 2021, MaxMem=  4026531840 cpu:               1.4 elap:               0.2
 (Enter /opt/ohpc/pub/libs/gaussian/g16-A.03/sandybridge/g16/l401.exe)
 ExpMin= 9.52D-02 ExpMax= 6.07D+04 ExpMxC= 2.07D+03 IAcc=3 IRadAn=         5 AccDes= 0.00D+00
 Harris functional with IExCor=33909 and IRadAn=       5 diagonalized for initial guess.
 HarFok:  IExCor=33909 AccDes= 0.00D+00 IRadAn=         5 IDoV= 1 UseB2=F ITyADJ=14
 ICtDFT=  3500011 ScaDFX=  1.000000  1.000000  1.000000  1.000000
 FoFCou: FMM=F IPFlag=           0 FMFlag=      100000 FMFlg1=        2001
         NFxFlg=           0 DoJE=T BraDBF=F KetDBF=T FulRan=T
         wScrn=  0.000000 ICntrl=       500 IOpCl=  0 I1Cent=   200000004 NGrid=           0
         NMat0=    1 NMatS0=      1 NMatT0=    0 NMatD0=    1 NMtDS0=    0 NMtDT0=    0
 Petite list used in FoFCou.
 Harris En= -1998.85749081346    
 JPrj=0 DoOrth=F DoCkMO=F.
 Leave Link  401 at Wed Jan 27 13:05:27 2021, MaxMem=  4026531840 cpu:              88.4 elap:              11.1
 (Enter /opt/ohpc/pub/libs/gaussian/g16-A.03/sandybridge/g16/l502.exe)
 Integral symmetry usage will be decided dynamically.
 Closed shell SCF:
 Using DIIS extrapolation, IDIIS=    10.
 NGot=  4026531840 LenX=  4025112240 LenY=  4024409158
 Requested convergence on RMS density matrix=1.00D-06 within  32 cycles.
 Requested convergence on MAX density matrix=1.00D-04.
 Requested convergence on             energy=1.00D-04.
 Virtual orbitals will be shifted by   0.500 hartree.
 No special actions if energy rises.
 Dynamic level shift is on during FON iterations.

 Cycle   1  Pass 1  IDiag  1:
 FoFJK:  IHMeth= 1 ICntrl=       0 DoSepK=T KAlg= 0 I1Cent=           0 FoldK=F
 IRaf=         1 NMat=       1 IRICut=       1 DoRegI=T DoRafI=F ISym2E= 0 IDoP0=0 IntGTp=1.
 FoFCou: FMM=T IPFlag=           0 FMFlag=      100000 FMFlg1=        2001
         NFxFlg=           0 DoJE=T BraDBF=F KetDBF=F FulRan=T
         wScrn=  0.000000 ICntrl=       500 IOpCl=  0 I1Cent=           0 NGrid=           0
         NMat0=    1 NMatS0=      1 NMatT0=    0 NMatD0=    1 NMtDS0=    0 NMtDT0=    0
 Symmetry not used in FoFCou.
 FMM levels:  10  Number of levels for PrismC:   9
 E= -2023.22308426109    
 DIIS: error= 2.94D-02 at cycle   1 NSaved=   1.
 NSaved= 1 IEnMin= 1 EnMin= -2023.22308426109     IErMin= 1 ErrMin= 2.94D-02
 ErrMax= 2.94D-02  0.00D+00 EMaxC= 1.00D+00 BMatC= 5.75D-01 BMatP= 5.75D-01
 IDIUse=1 WtCom= 1.00D+00 WtEn= 0.00D+00
 Coeff-Com:  0.100D+01
 Coeff:      0.100D+01
 Gap=     0.377 Goal=   None    Shift=    0.500
 T= 1484. Gap= 0.723 NK=0 IS=  124 IE=  806 IFin=  123
          NO(<0.9)=   0  NV(>0.1)=   0    123.00e < EF      0.00e >EF  Err=0.0D+00
 GapD=    0.377 DampG=1.000 DampE=0.500 DampFc=0.5000 IDamp=-1.
 Damping current iteration by 5.00D-01
 RMSDP=3.35D-03 MaxDP=3.57D-01              OVMax= 9.20D-02

 Cycle   2  Pass 1  IDiag  1:
 E= -2023.56117509062     Delta-E=       -0.338090829527 Rises=F Damp=T
 DIIS: error= 1.20D-02 at cycle   2 NSaved=   2.
 NSaved= 2 IEnMin= 2 EnMin= -2023.56117509062     IErMin= 2 ErrMin= 1.20D-02
 ErrMax= 1.20D-02  0.00D+00 EMaxC= 1.00D+00 BMatC= 8.91D-02 BMatP= 5.75D-01
 IDIUse=1 WtCom= 1.00D+00 WtEn= 0.00D+00
 Coeff-Com: -0.534D+00 0.153D+01
 Coeff:     -0.534D+00 0.153D+01
 Gap=     0.312 Goal=   None    Shift=    0.500
 T= 1352. Gap= 0.755 NK=0 IS=  124 IE=  806 IFin=  123
          NO(<0.9)=   0  NV(>0.1)=   0    123.00e < EF      0.00e >EF  Err=0.0D+00
 GapD=    0.312 DampG=1.000 DampE=0.500 DampFc=0.5000 IDamp=-1.
 Damping current iteration by 5.00D-01
 RMSDP=1.67D-03 MaxDP=2.28D-01 DE=-3.38D-01 OVMax= 1.73D-02

 Cycle   3  Pass 1  IDiag  1:
 E= -2023.67153746118     Delta-E=       -0.110362370559 Rises=F Damp=T
 DIIS: error= 4.83D-03 at cycle   3 NSaved=   3.
 NSaved= 3 IEnMin= 3 EnMin= -2023.67153746118     IErMin= 3 ErrMin= 4.83D-03
 ErrMax= 4.83D-03  0.00D+00 EMaxC= 1.00D+00 BMatC= 1.64D-02 BMatP= 8.91D-02
 IDIUse=1 WtCom= 1.00D+00 WtEn= 0.00D+00
 Coeff-Com:  0.115D+00-0.108D+01 0.197D+01
 Coeff:      0.115D+00-0.108D+01 0.197D+01
 Gap=     0.258 Goal=   None    Shift=    0.500
 T= 1096. Gap= 0.758 NK=0 IS=  124 IE=  806 IFin=  123
          NO(<0.9)=   0  NV(>0.1)=   0    123.00e < EF      0.00e >EF  Err=0.0D+00
 GapD=    0.258 DampG=1.000 DampE=1.000 DampFc=1.0000 IDamp=-1.
 RMSDP=9.76D-04 MaxDP=1.30D-01 DE=-1.10D-01 OVMax= 1.16D-02

 Cycle   4  Pass 1  IDiag  1:
 E= -2023.76327396551     Delta-E=       -0.091736504327 Rises=F Damp=F
 DIIS: error= 1.21D-03 at cycle   4 NSaved=   4.
 NSaved= 4 IEnMin= 4 EnMin= -2023.76327396551     IErMin= 4 ErrMin= 1.21D-03
 ErrMax= 1.21D-03  0.00D+00 EMaxC= 1.00D+00 BMatC= 7.93D-04 BMatP= 1.64D-02
 IDIUse=1 WtCom= 1.00D+00 WtEn= 0.00D+00
 Coeff-Com:  0.698D-01-0.167D+00 0.108D+00 0.989D+00
 Coeff:      0.698D-01-0.167D+00 0.108D+00 0.989D+00
 Gap=     0.260 Goal=   None    Shift=    0.500
 T=  532. Gap= 0.760 NK=0 IS=  124 IE=  806 IFin=  123
          NO(<0.9)=   0  NV(>0.1)=   0    123.00e < EF      0.00e >EF  Err=0.0D+00
 GapD=    0.260 DampG=1.000 DampE=1.000 DampFc=1.0000 IDamp=-1.
 RMSDP=2.10D-04 MaxDP=1.96D-02 DE=-9.17D-02 OVMax= 9.30D-03

 Cycle   5  Pass 1  IDiag  1:
 E= -2023.76453658533     Delta-E=       -0.001262619821 Rises=F Damp=F
 DIIS: error= 1.03D-03 at cycle   5 NSaved=   5.
 NSaved= 5 IEnMin= 5 EnMin= -2023.76453658533     IErMin= 5 ErrMin= 1.03D-03
 ErrMax= 1.03D-03  0.00D+00 EMaxC= 1.00D+00 BMatC= 1.60D-04 BMatP= 7.93D-04
 IDIUse=1 WtCom= 1.00D+00 WtEn= 0.00D+00
 Coeff-Com: -0.707D-02 0.160D+00-0.315D+00-0.425D-01 0.120D+01
 Coeff:     -0.707D-02 0.160D+00-0.315D+00-0.425D-01 0.120D+01
 Gap=     0.261 Goal=   None    Shift=    0.500
 GapD=    0.261 DampG=1.000 DampE=1.000 DampFc=1.0000 IDamp=-1.
 RMSDP=1.33D-04 MaxDP=1.21D-02 DE=-1.26D-03 OVMax= 7.80D-03

 Cycle   6  Pass 1  IDiag  1:
 E= -2023.76504023447     Delta-E=       -0.000503649141 Rises=F Damp=F
 DIIS: error= 7.74D-04 at cycle   6 NSaved=   6.
 NSaved= 6 IEnMin= 6 EnMin= -2023.76504023447     IErMin= 6 ErrMin= 7.74D-04
 ErrMax= 7.74D-04  0.00D+00 EMaxC= 1.00D+00 BMatC= 5.90D-05 BMatP= 1.60D-04
 IDIUse=1 WtCom= 1.00D+00 WtEn= 0.00D+00
 Coeff-Com: -0.215D-01 0.483D-01-0.339D-01-0.364D+00-0.290D+00 0.166D+01
 Coeff:     -0.215D-01 0.483D-01-0.339D-01-0.364D+00-0.290D+00 0.166D+01
 Gap=     0.261 Goal=   None    Shift=    0.500
 RMSDP=9.16D-05 MaxDP=8.37D-03 DE=-5.04D-04 OVMax= 6.76D-03

 Cycle   7  Pass 1  IDiag  1:
 E= -2023.76531189351     Delta-E=       -0.000271659044 Rises=F Damp=F
 DIIS: error= 5.51D-04 at cycle   7 NSaved=   7.
 NSaved= 7 IEnMin= 7 EnMin= -2023.76531189351     IErMin= 7 ErrMin= 5.51D-04
 ErrMax= 5.51D-04  0.00D+00 EMaxC= 1.00D+00 BMatC= 2.57D-05 BMatP= 5.90D-05
 IDIUse=1 WtCom= 1.00D+00 WtEn= 0.00D+00
 Coeff-Com: -0.332D-02-0.446D-01 0.966D-01-0.968D-01-0.514D+00-0.110D+00
 Coeff-Com:  0.167D+01
 Coeff:     -0.332D-02-0.446D-01 0.966D-01-0.968D-01-0.514D+00-0.110D+00
 Coeff:      0.167D+01
 Gap=     0.262 Goal=   None    Shift=    0.500
 RMSDP=5.95D-05 MaxDP=5.26D-03 DE=-2.72D-04 OVMax= 5.24D-03

 Cycle   8  Pass 1  IDiag  1:
 E= -2023.76544777366     Delta-E=       -0.000135880149 Rises=F Damp=F
 DIIS: error= 3.82D-04 at cycle   8 NSaved=   8.
 NSaved= 8 IEnMin= 8 EnMin= -2023.76544777366     IErMin= 8 ErrMin= 3.82D-04
 ErrMax= 3.82D-04  0.00D+00 EMaxC= 1.00D+00 BMatC= 1.14D-05 BMatP= 2.57D-05
 IDIUse=1 WtCom= 1.00D+00 WtEn= 0.00D+00
 Coeff-Com:  0.468D-02-0.292D-01 0.437D-01 0.136D+00-0.163D+00-0.789D+00
 Coeff-Com: -0.530D-01 0.185D+01
 Coeff:      0.468D-02-0.292D-01 0.437D-01 0.136D+00-0.163D+00-0.789D+00
 Coeff:     -0.530D-01 0.185D+01
 Gap=     0.262 Goal=   None    Shift=    0.500
 RMSDP=4.02D-05 MaxDP=3.73D-03 DE=-1.36D-04 OVMax= 3.86D-03

 Cycle   9  Pass 1  IDiag  1:
 E= -2023.76551288408     Delta-E=       -0.000065110415 Rises=F Damp=F
 DIIS: error= 2.57D-04 at cycle   9 NSaved=   9.
 NSaved= 9 IEnMin= 9 EnMin= -2023.76551288408     IErMin= 9 ErrMin= 2.57D-04
 ErrMax= 2.57D-04  0.00D+00 EMaxC= 1.00D+00 BMatC= 5.24D-06 BMatP= 1.14D-05
 IDIUse=1 WtCom= 1.00D+00 WtEn= 0.00D+00
 Coeff-Com:  0.208D-02 0.356D-02-0.124D-01 0.123D+00 0.481D-01-0.482D+00
 Coeff-Com: -0.549D+00 0.487D+00 0.138D+01
 Coeff:      0.208D-02 0.356D-02-0.124D-01 0.123D+00 0.481D-01-0.482D+00
 Coeff:     -0.549D+00 0.487D+00 0.138D+01
 Gap=     0.262 Goal=   None    Shift=    0.500
 RMSDP=2.40D-05 MaxDP=2.42D-03 DE=-6.51D-05 OVMax= 2.64D-03

 Cycle  10  Pass 1  IDiag  1:
 E= -2023.76554149846     Delta-E=       -0.000028614380 Rises=F Damp=F
 DIIS: error= 1.67D-04 at cycle  10 NSaved=  10.
 NSaved=10 IEnMin=10 EnMin= -2023.76554149846     IErMin=10 ErrMin= 1.67D-04
 ErrMax= 1.67D-04  0.00D+00 EMaxC= 1.00D+00 BMatC= 2.14D-06 BMatP= 5.24D-06
 IDIUse=1 WtCom= 1.00D+00 WtEn= 0.00D+00
 Coeff-Com: -0.181D-02 0.118D-01-0.180D-01-0.189D-01 0.519D-01 0.169D+00
 Coeff-Com: -0.976D-01-0.689D+00-0.810D+00 0.240D+01
 Coeff:     -0.181D-02 0.118D-01-0.180D-01-0.189D-01 0.519D-01 0.169D+00
 Coeff:     -0.976D-01-0.689D+00-0.810D+00 0.240D+01
 Gap=     0.262 Goal=   None    Shift=    0.500
 RMSDP=1.59D-05 MaxDP=1.66D-03 DE=-2.86D-05 OVMax= 1.78D-03

 Cycle  11  Pass 1  IDiag  1:
 E= -2023.76555352040     Delta-E=       -0.000012021946 Rises=F Damp=F
 DIIS: error= 1.09D-04 at cycle  11 NSaved=  11.
 NSaved=11 IEnMin=11 EnMin= -2023.76555352040     IErMin=11 ErrMin= 1.09D-04
 ErrMax= 1.09D-04  0.00D+00 EMaxC= 1.00D+00 BMatC= 1.07D-06 BMatP= 2.14D-06
 IDIUse=1 WtCom= 1.00D+00 WtEn= 0.00D+00
 Coeff-Com: -0.166D-02 0.482D-02-0.463D-02-0.360D-01 0.823D-02 0.202D+00
 Coeff-Com:  0.111D+00-0.537D+00-0.106D+01 0.110D+01 0.121D+01
 Coeff:     -0.166D-02 0.482D-02-0.463D-02-0.360D-01 0.823D-02 0.202D+00
 Coeff:      0.111D+00-0.537D+00-0.106D+01 0.110D+01 0.121D+01
 Gap=     0.262 Goal=   None    Shift=    0.500
 RMSDP=9.55D-06 MaxDP=9.71D-04 DE=-1.20D-05 OVMax= 1.15D-03

 Cycle  12  Pass 1  IDiag  1:
 E= -2023.76555854472     Delta-E=       -0.000005024322 Rises=F Damp=F
 DIIS: error= 7.04D-05 at cycle  12 NSaved=  12.
 NSaved=12 IEnMin=12 EnMin= -2023.76555854472     IErMin=12 ErrMin= 7.04D-05
 ErrMax= 7.04D-05  0.00D+00 EMaxC= 1.00D+00 BMatC= 4.61D-07 BMatP= 1.07D-06
 IDIUse=1 WtCom= 1.00D+00 WtEn= 0.00D+00
 Coeff-Com: -0.170D-03-0.234D-02 0.515D-02-0.332D-02-0.216D-01 0.287D-02
 Coeff-Com:  0.112D+00 0.709D-01-0.332D+00-0.305D+00-0.780D+00 0.225D+01
 Coeff:     -0.170D-03-0.234D-02 0.515D-02-0.332D-02-0.216D-01 0.287D-02
 Coeff:      0.112D+00 0.709D-01-0.332D+00-0.305D+00-0.780D+00 0.225D+01
 Gap=     0.262 Goal=   None    Shift=    0.500
 RMSDP=6.04D-06 MaxDP=5.86D-04 DE=-5.02D-06 OVMax= 7.39D-04

 Cycle  13  Pass 1  IDiag  1:
 E= -2023.76556059053     Delta-E=       -0.000002045802 Rises=F Damp=F
 DIIS: error= 4.75D-05 at cycle  13 NSaved=  13.
 NSaved=13 IEnMin=13 EnMin= -2023.76556059053     IErMin=13 ErrMin= 4.75D-05
 ErrMax= 4.75D-05  0.00D+00 EMaxC= 1.00D+00 BMatC= 2.38D-07 BMatP= 4.61D-07
 IDIUse=1 WtCom= 1.00D+00 WtEn= 0.00D+00
 Coeff-Com:  0.290D-03-0.141D-02 0.191D-02 0.139D-01-0.132D-01-0.721D-01
 Coeff-Com:  0.307D-01 0.240D+00 0.137D+00-0.520D+00-0.136D+01 0.112D+01
 Coeff-Com:  0.142D+01
 Coeff:      0.290D-03-0.141D-02 0.191D-02 0.139D-01-0.132D-01-0.721D-01
 Coeff:      0.307D-01 0.240D+00 0.137D+00-0.520D+00-0.136D+01 0.112D+01
 Coeff:      0.142D+01
 Gap=     0.262 Goal=   None    Shift=    0.500
 RMSDP=3.69D-06 MaxDP=3.19D-04 DE=-2.05D-06 OVMax= 4.89D-04

 Cycle  14  Pass 1  IDiag  1:
 E= -2023.76556147247     Delta-E=       -0.000000881944 Rises=F Damp=F
 DIIS: error= 3.16D-05 at cycle  14 NSaved=  14.
 NSaved=14 IEnMin=14 EnMin= -2023.76556147247     IErMin=14 ErrMin= 3.16D-05
 ErrMax= 3.16D-05  0.00D+00 EMaxC= 1.00D+00 BMatC= 1.08D-07 BMatP= 2.38D-07
 IDIUse=1 WtCom= 1.00D+00 WtEn= 0.00D+00
 Coeff-Com:  0.882D-04 0.307D-03-0.877D-03 0.693D-02-0.180D-02-0.255D-01
 Coeff-Com: -0.785D-02 0.717D-01 0.118D+00-0.456D-01-0.620D+00 0.106D+00
 Coeff-Com: -0.757D+00 0.215D+01
 Coeff:      0.882D-04 0.307D-03-0.877D-03 0.693D-02-0.180D-02-0.255D-01
 Coeff:     -0.785D-02 0.717D-01 0.118D+00-0.456D-01-0.620D+00 0.106D+00
 Coeff:     -0.757D+00 0.215D+01
 Gap=     0.262 Goal=   None    Shift=    0.500
 RMSDP=2.22D-06 MaxDP=1.67D-04 DE=-8.82D-07 OVMax= 3.17D-04

 Cycle  15  Pass 1  IDiag  1:
 E= -2023.76556184094     Delta-E=       -0.000000368465 Rises=F Damp=F
 DIIS: error= 2.09D-05 at cycle  15 NSaved=  15.
 NSaved=15 IEnMin=15 EnMin= -2023.76556184094     IErMin=15 ErrMin= 2.09D-05
 ErrMax= 2.09D-05  0.00D+00 EMaxC= 1.00D+00 BMatC= 4.84D-08 BMatP= 1.08D-07
 IDIUse=1 WtCom= 1.00D+00 WtEn= 0.00D+00
 Coeff-Com: -0.710D-04 0.606D-03-0.983D-03-0.816D-03 0.207D-02 0.124D-01
 Coeff-Com: -0.800D-02-0.440D-01 0.291D-02 0.185D+00 0.192D-01-0.205D+00
 Coeff-Com: -0.136D+01 0.903D+00 0.149D+01
 Coeff:     -0.710D-04 0.606D-03-0.983D-03-0.816D-03 0.207D-02 0.124D-01
 Coeff:     -0.800D-02-0.440D-01 0.291D-02 0.185D+00 0.192D-01-0.205D+00
 Coeff:     -0.136D+01 0.903D+00 0.149D+01
 Gap=     0.262 Goal=   None    Shift=    0.500
 RMSDP=1.30D-06 MaxDP=8.64D-05 DE=-3.68D-07 OVMax= 2.05D-04

 Cycle  16  Pass 1  IDiag  1:
 E= -2023.76556199480     Delta-E=       -0.000000153867 Rises=F Damp=F
 DIIS: error= 1.39D-05 at cycle  16 NSaved=  16.
 NSaved=16 IEnMin=16 EnMin= -2023.76556199480     IErMin=16 ErrMin= 1.39D-05
 ErrMax= 1.39D-05  0.00D+00 EMaxC= 1.00D+00 BMatC= 2.08D-08 BMatP= 4.84D-08
 IDIUse=1 WtCom= 1.00D+00 WtEn= 0.00D+00
 Coeff-Com: -0.481D-04 0.163D-03-0.183D-03-0.191D-02 0.121D-02 0.116D-01
 Coeff-Com:  0.483D-03-0.335D-01-0.281D-01 0.836D-01 0.159D+00-0.986D-01
 Coeff-Com: -0.543D+00-0.249D+00-0.583D-01 0.176D+01
 Coeff:     -0.481D-04 0.163D-03-0.183D-03-0.191D-02 0.121D-02 0.116D-01
 Coeff:      0.483D-03-0.335D-01-0.281D-01 0.836D-01 0.159D+00-0.986D-01
 Coeff:     -0.543D+00-0.249D+00-0.583D-01 0.176D+01
 Gap=     0.262 Goal=   None    Shift=    0.500
 RMSDP=7.75D-07 MaxDP=5.07D-05 DE=-1.54D-07 OVMax= 1.34D-04

 SCF Done:  E(RLC-wHPBE) =  -2023.76556199     A.U. after   16 cycles
            NFock= 16  Conv=0.77D-06     -V/T= 2.0034
 KE= 2.016905896086D+03 PE=-1.125377848405D+04 EE= 3.934159921429D+03
 Leave Link  502 at Wed Jan 27 13:24:06 2021, MaxMem=  4026531840 cpu:            8823.0 elap:            1119.5
 (Enter /opt/ohpc/pub/libs/gaussian/g16-A.03/sandybridge/g16/l508.exe)
 QCSCF skips out because SCF is already converged.
 Leave Link  508 at Wed Jan 27 13:24:06 2021, MaxMem=  4026531840 cpu:               0.1 elap:               0.0
 (Enter /opt/ohpc/pub/libs/gaussian/g16-A.03/sandybridge/g16/l601.exe)
 Copying SCF densities to generalized density rwf, IOpCl= 0 IROHF=0.

 **********************************************************************

            Population analysis using the SCF density.

 **********************************************************************

 Orbital symmetries:
       Occupied  (A) (A) (A) (A) (A) (A) (A) (A) (A) (A) (A) (A)
                 (A) (A) (A) (A) (A) (A) (A) (A) (A) (A) (A) (A)
                 (A) (A) (A) (A) (A) (A) (A) (A) (A) (A) (A) (A)
                 (A) (A) (A) (A) (A) (A) (A) (A) (A) (A) (A) (A)
                 (A) (A) (A) (A) (A) (A) (A) (A) (A) (A) (A) (A)
                 (A) (A) (A) (A) (A) (A) (A) (A) (A) (A) (A) (A)
                 (A) (A) (A) (A) (A) (A) (A) (A) (A) (A) (A) (A)
                 (A) (A) (A) (A) (A) (A) (A) (A) (A) (A) (A) (A)
                 (A) (A) (A) (A) (A) (A) (A) (A) (A) (A) (A) (A)
                 (A) (A) (A) (A) (A) (A) (A) (A) (A) (A) (A) (A)
                 (A) (A) (A)
       Virtual   (A) (A) (A) (A) (A) (A) (A) (A) (A) (A) (A) (A)
                 (A) (A) (A) (A) (A) (A) (A) (A) (A) (A) (A) (A)
                 (A) (A) (A) (A) (A) (A) (A) (A) (A) (A) (A) (A)
                 (A) (A) (A) (A) (A) (A) (A) (A) (A) (A) (A) (A)
                 (A) (A) (A) (A) (A) (A) (A) (A) (A) (A) (A) (A)
                 (A) (A) (A) (A) (A) (A) (A) (A) (A) (A) (A) (A)
                 (A) (A) (A) (A) (A) (A) (A) (A) (A) (A) (A) (A)
                 (A) (A) (A) (A) (A) (A) (A) (A) (A) (A) (A) (A)
                 (A) (A) (A) (A) (A) (A) (A) (A) (A) (A) (A) (A)
                 (A) (A) (A) (A) (A) (A) (A) (A) (A) (A) (A) (A)
                 (A) (A) (A) (A) (A) (A) (A) (A) (A) (A) (A) (A)
                 (A) (A) (A) (A) (A) (A) (A) (A) (A) (A) (A) (A)
                 (A) (A) (A) (A) (A) (A) (A) (A) (A) (A) (A) (A)
                 (A) (A) (A) (A) (A) (A) (A) (A) (A) (A) (A) (A)
                 (A) (A) (A) (A) (A) (A) (A) (A) (A) (A) (A) (A)
                 (A) (A) (A) (A) (A) (A) (A) (A) (A) (A) (A) (A)
                 (A) (A) (A) (A) (A) (A) (A) (A) (A) (A) (A) (A)
                 (A) (A) (A) (A) (A) (A) (A) (A) (A) (A) (A) (A)
                 (A) (A) (A) (A) (A) (A) (A) (A) (A) (A) (A) (A)
                 (A) (A) (A) (A) (A) (A) (A) (A) (A) (A) (A) (A)
                 (A) (A) (A) (A) (A) (A) (A) (A) (A) (A) (A) (A)
                 (A) (A) (A) (A) (A) (A) (A) (A) (A) (A) (A) (A)
                 (A) (A) (A) (A) (A) (A) (A) (A) (A) (A) (A) (A)
                 (A) (A) (A) (A) (A) (A) (A) (A) (A) (A) (A) (A)
                 (A) (A) (A) (A) (A) (A) (A) (A) (A) (A) (A) (A)
                 (A) (A) (A) (A) (A) (A) (A) (A) (A) (A) (A) (A)
                 (A) (A) (A) (A) (A) (A) (A) (A) (A) (A) (A) (A)
                 (A) (A) (A) (A) (A) (A) (A) (A) (A) (A) (A) (A)
                 (A) (A) (A) (A) (A) (A) (A) (A) (A) (A) (A) (A)
                 (A) (A) (A) (A) (A) (A) (A) (A) (A) (A) (A) (A)
                 (A) (A) (A) (A) (A) (A) (A) (A) (A) (A) (A) (A)
                 (A) (A) (A) (A) (A) (A) (A) (A) (A) (A) (A) (A)
                 (A) (A) (A) (A) (A) (A) (A) (A) (A) (A) (A) (A)
                 (A) (A) (A) (A) (A) (A) (A) (A) (A) (A) (A) (A)
                 (A) (A) (A) (A) (A) (A) (A) (A) (A) (A) (A) (A)
                 (A) (A) (A) (A) (A) (A) (A) (A) (A) (A) (A) (A)
                 (A) (A) (A) (A) (A) (A) (A) (A) (A) (A) (A) (A)
                 (A) (A) (A) (A) (A) (A) (A) (A) (A) (A) (A) (A)
                 (A) (A) (A) (A) (A) (A) (A) (A) (A) (A) (A) (A)
                 (A) (A) (A) (A) (A) (A) (A) (A) (A) (A) (A) (A)
                 (A) (A) (A) (A) (A) (A) (A) (A) (A) (A) (A) (A)
                 (A) (A) (A) (A) (A) (A) (A) (A) (A) (A) (A) (A)
                 (A) (A) (A) (A) (A) (A) (A) (A) (A) (A) (A) (A)
                 (A) (A) (A) (A) (A) (A) (A) (A) (A) (A) (A) (A)
                 (A) (A) (A) (A) (A) (A) (A) (A) (A) (A) (A) (A)
                 (A) (A) (A) (A) (A) (A) (A) (A) (A) (A) (A) (A)
                 (A) (A) (A) (A) (A) (A) (A) (A) (A) (A) (A) (A)
                 (A) (A) (A) (A) (A) (A) (A) (A) (A) (A) (A) (A)
                 (A) (A) (A) (A) (A) (A) (A) (A) (A) (A) (A) (A)
                 (A) (A) (A) (A) (A) (A) (A) (A) (A) (A) (A) (A)
                 (A) (A) (A) (A) (A) (A) (A) (A) (A) (A) (A) (A)
                 (A) (A) (A) (A) (A) (A) (A) (A) (A) (A) (A) (A)
                 (A) (A) (A) (A) (A) (A) (A) (A) (A) (A) (A) (A)
                 (A) (A) (A) (A) (A) (A) (A) (A) (A) (A) (A) (A)
                 (A) (A) (A) (A) (A) (A) (A) (A) (A) (A) (A) (A)
                 (A) (A) (A) (A) (A) (A) (A) (A) (A) (A) (A) (A)
                 (A) (A) (A) (A) (A) (A) (A) (A) (A) (A) (A)
 The electronic state is 1-A.
 Alpha  occ. eigenvalues --  -88.37525 -88.36169 -14.34551 -14.34494 -14.34110
 Alpha  occ. eigenvalues --  -14.34055 -10.27042 -10.26989 -10.26564 -10.26511
 Alpha  occ. eigenvalues --  -10.23200 -10.22759 -10.21613 -10.20859 -10.20600
 Alpha  occ. eigenvalues --  -10.20588 -10.20552 -10.20531 -10.20531 -10.20343
 Alpha  occ. eigenvalues --  -10.20271 -10.20222 -10.20201 -10.20024 -10.19791
 Alpha  occ. eigenvalues --  -10.18315 -10.17803 -10.17800 -10.17747 -10.17015
 Alpha  occ. eigenvalues --  -10.16851 -10.16650  -7.96729  -7.95528  -5.98962
 Alpha  occ. eigenvalues --   -5.98442  -5.97717  -5.97704  -5.97231  -5.96528
 Alpha  occ. eigenvalues --   -1.23005  -1.22575  -1.20221  -1.19805  -1.15086
 Alpha  occ. eigenvalues --   -1.14661  -1.10497  -1.08896  -1.03562  -1.01237
 Alpha  occ. eigenvalues --   -0.99214  -0.98271  -0.96771  -0.96446  -0.96394
 Alpha  occ. eigenvalues --   -0.96100  -0.95320  -0.94939  -0.94421  -0.93883
 Alpha  occ. eigenvalues --   -0.93636  -0.92488  -0.87075  -0.85715  -0.83908
 Alpha  occ. eigenvalues --   -0.82567  -0.79417  -0.79304  -0.79035  -0.78765
 Alpha  occ. eigenvalues --   -0.78202  -0.77710  -0.74744  -0.74454  -0.74287
 Alpha  occ. eigenvalues --   -0.74040  -0.73646  -0.73136  -0.72123  -0.72026
 Alpha  occ. eigenvalues --   -0.71740  -0.71635  -0.70604  -0.69551  -0.67298
 Alpha  occ. eigenvalues --   -0.67057  -0.66625  -0.66521  -0.66381  -0.66132
 Alpha  occ. eigenvalues --   -0.65882  -0.65764  -0.65654  -0.65052  -0.64636
 Alpha  occ. eigenvalues --   -0.64427  -0.64326  -0.64115  -0.63816  -0.63681
 Alpha  occ. eigenvalues --   -0.63570  -0.63261  -0.62459  -0.62276  -0.61995
 Alpha  occ. eigenvalues --   -0.61902  -0.61305  -0.60373  -0.60282  -0.58388
 Alpha  occ. eigenvalues --   -0.57883  -0.56814  -0.56275  -0.54842  -0.54619
 Alpha  occ. eigenvalues --   -0.54428  -0.53816  -0.51694  -0.51369  -0.47197
 Alpha  occ. eigenvalues --   -0.46727  -0.45298  -0.44890
 Alpha virt. eigenvalues --   -0.18711  -0.17458  -0.14564  -0.13580  -0.10896
 Alpha virt. eigenvalues --   -0.10643  -0.10300  -0.09920  -0.09250  -0.08958
 Alpha virt. eigenvalues --   -0.08676  -0.07156  -0.06327  -0.05962  -0.05042
 Alpha virt. eigenvalues --   -0.04636  -0.04520  -0.04294  -0.04018  -0.03642
 Alpha virt. eigenvalues --   -0.03365  -0.03170  -0.02658  -0.02461  -0.02083
 Alpha virt. eigenvalues --   -0.01716  -0.01550  -0.01352  -0.01179  -0.00976
 Alpha virt. eigenvalues --   -0.00753  -0.00381  -0.00362  -0.00182  -0.00122
 Alpha virt. eigenvalues --    0.00135   0.00336   0.00619   0.00817   0.00987
 Alpha virt. eigenvalues --    0.01093   0.01346   0.01586   0.01901   0.01979
 Alpha virt. eigenvalues --    0.02223   0.02557   0.02885   0.03394   0.03955
 Alpha virt. eigenvalues --    0.04285   0.04656   0.04739   0.04876   0.05252
 Alpha virt. eigenvalues --    0.05557   0.06051   0.06871   0.07352   0.07687
 Alpha virt. eigenvalues --    0.07986   0.08139   0.08318   0.08485   0.08567
 Alpha virt. eigenvalues --    0.08956   0.09082   0.09439   0.09624   0.10029
 Alpha virt. eigenvalues --    0.10419   0.10520   0.10949   0.11426   0.12004
 Alpha virt. eigenvalues --    0.12086   0.12863   0.13303   0.13440   0.13609
 Alpha virt. eigenvalues --    0.14061   0.14564   0.14905   0.15499   0.15806
 Alpha virt. eigenvalues --    0.15941   0.16125   0.16384   0.16757   0.17138
 Alpha virt. eigenvalues --    0.17302   0.17620   0.17960   0.18138   0.18324
 Alpha virt. eigenvalues --    0.18581   0.18649   0.19036   0.19102   0.19476
 Alpha virt. eigenvalues --    0.19715   0.20210   0.20313   0.20492   0.21373
 Alpha virt. eigenvalues --    0.21453   0.21601   0.22223   0.22556   0.22994
 Alpha virt. eigenvalues --    0.23344   0.23483   0.23718   0.24441   0.24786
 Alpha virt. eigenvalues --    0.25103   0.25484   0.25745   0.26093   0.26335
 Alpha virt. eigenvalues --    0.26638   0.27205   0.27612   0.27730   0.27862
 Alpha virt. eigenvalues --    0.28246   0.28370   0.28659   0.29251   0.29554
 Alpha virt. eigenvalues --    0.29849   0.30471   0.30757   0.31352   0.31683
 Alpha virt. eigenvalues --    0.31714   0.31884   0.32108   0.32313   0.32376
 Alpha virt. eigenvalues --    0.32731   0.32776   0.32942   0.33254   0.33388
 Alpha virt. eigenvalues --    0.33560   0.33988   0.34062   0.34516   0.34792
 Alpha virt. eigenvalues --    0.34927   0.35093   0.35273   0.35439   0.35506
 Alpha virt. eigenvalues --    0.35945   0.36324   0.36639   0.36768   0.37056
 Alpha virt. eigenvalues --    0.37146   0.37630   0.38147   0.38370   0.38448
 Alpha virt. eigenvalues --    0.39066   0.39497   0.39640   0.40267   0.40350
 Alpha virt. eigenvalues --    0.40625   0.40789   0.41157   0.41502   0.41657
 Alpha virt. eigenvalues --    0.42126   0.42425   0.42765   0.43272   0.44093
 Alpha virt. eigenvalues --    0.44253   0.44397   0.44534   0.45607   0.45785
 Alpha virt. eigenvalues --    0.46125   0.46525   0.46616   0.46861   0.47463
 Alpha virt. eigenvalues --    0.47717   0.48595   0.49285   0.50298   0.50756
 Alpha virt. eigenvalues --    0.51260   0.51455   0.51892   0.52176   0.52562
 Alpha virt. eigenvalues --    0.52795   0.53269   0.53489   0.53969   0.54547
 Alpha virt. eigenvalues --    0.54797   0.55235   0.55810   0.56275   0.56571
 Alpha virt. eigenvalues --    0.57354   0.58348   0.59358   0.59540   0.59845
 Alpha virt. eigenvalues --    0.60542   0.61047   0.61737   0.62380   0.62515
 Alpha virt. eigenvalues --    0.63073   0.63618   0.63857   0.64468   0.65306
 Alpha virt. eigenvalues --    0.65397   0.66600   0.67139   0.68749   0.69530
 Alpha virt. eigenvalues --    0.70314   0.71565   0.72068   0.73101   0.74241
 Alpha virt. eigenvalues --    0.75961   0.76652   0.76949   0.77934   0.78681
 Alpha virt. eigenvalues --    0.80769   0.81355   0.84562   0.86101   0.88420
 Alpha virt. eigenvalues --    0.91945   0.99342   0.99643   0.99772   0.99891
 Alpha virt. eigenvalues --    1.00613   1.04718   1.06393   1.06847   1.07226
 Alpha virt. eigenvalues --    1.08679   1.08895   1.09005   1.09297   1.10020
 Alpha virt. eigenvalues --    1.10236   1.10339   1.11422   1.11949   1.12106
 Alpha virt. eigenvalues --    1.12577   1.12840   1.13317   1.13508   1.13943
 Alpha virt. eigenvalues --    1.14405   1.14914   1.15660   1.16266   1.16791
 Alpha virt. eigenvalues --    1.17296   1.18131   1.18356   1.18655   1.18798
 Alpha virt. eigenvalues --    1.19625   1.19959   1.20188   1.20431   1.20834
 Alpha virt. eigenvalues --    1.21009   1.21210   1.21300   1.21590   1.21797
 Alpha virt. eigenvalues --    1.22639   1.23012   1.23101   1.23439   1.24006
 Alpha virt. eigenvalues --    1.24187   1.24226   1.24640   1.25666   1.25987
 Alpha virt. eigenvalues --    1.26321   1.26903   1.27041   1.27955   1.28668
 Alpha virt. eigenvalues --    1.29202   1.29379   1.29987   1.30234   1.30613
 Alpha virt. eigenvalues --    1.30806   1.31041   1.31258   1.31565   1.32040
 Alpha virt. eigenvalues --    1.32198   1.32506   1.32786   1.33195   1.33547
 Alpha virt. eigenvalues --    1.33724   1.33989   1.34313   1.34616   1.34843
 Alpha virt. eigenvalues --    1.34928   1.35860   1.36129   1.36527   1.37011
 Alpha virt. eigenvalues --    1.37694   1.38595   1.38831   1.38948   1.39114
 Alpha virt. eigenvalues --    1.39292   1.39674   1.40167   1.40309   1.40417
 Alpha virt. eigenvalues --    1.40898   1.41033   1.41766   1.41922   1.42040
 Alpha virt. eigenvalues --    1.42315   1.42388   1.42851   1.43086   1.43150
 Alpha virt. eigenvalues --    1.43464   1.44159   1.44888   1.45710   1.46030
 Alpha virt. eigenvalues --    1.46466   1.47222   1.48078   1.48422   1.48918
 Alpha virt. eigenvalues --    1.49671   1.50122   1.50529   1.50769   1.51027
 Alpha virt. eigenvalues --    1.51061   1.51288   1.51573   1.52096   1.53559
 Alpha virt. eigenvalues --    1.53788   1.54342   1.54662   1.54892   1.55153
 Alpha virt. eigenvalues --    1.56082   1.57333   1.57805   1.57912   1.58032
 Alpha virt. eigenvalues --    1.58287   1.59431   1.60271   1.60517   1.60783
 Alpha virt. eigenvalues --    1.61086   1.61433   1.62169   1.63047   1.63095
 Alpha virt. eigenvalues --    1.63273   1.63370   1.63443   1.63514   1.63803
 Alpha virt. eigenvalues --    1.64266   1.64588   1.64817   1.64933   1.65015
 Alpha virt. eigenvalues --    1.65130   1.65429   1.65633   1.65983   1.66093
 Alpha virt. eigenvalues --    1.66547   1.66981   1.67129   1.67288   1.67779
 Alpha virt. eigenvalues --    1.68569   1.68690   1.69066   1.69263   1.70790
 Alpha virt. eigenvalues --    1.71368   1.72169   1.72410   1.72648   1.74111
 Alpha virt. eigenvalues --    1.74638   1.74715   1.75070   1.75565   1.75902
 Alpha virt. eigenvalues --    1.76668   1.77314   1.77967   1.78562   1.79413
 Alpha virt. eigenvalues --    1.79762   1.81122   1.82799   1.83409   1.84180
 Alpha virt. eigenvalues --    1.84251   1.86012   1.86103   1.87232   1.88222
 Alpha virt. eigenvalues --    1.88548   1.88872   1.88989   1.89179   1.90823
 Alpha virt. eigenvalues --    1.91244   1.91724   1.92345   1.93144   1.93649
 Alpha virt. eigenvalues --    1.95415   1.95803   1.96297   1.96770   1.96965
 Alpha virt. eigenvalues --    1.97884   1.98250   1.99224   2.00918   2.01158
 Alpha virt. eigenvalues --    2.01537   2.01837   2.02301   2.03174   2.04219
 Alpha virt. eigenvalues --    2.05012   2.05429   2.05717   2.06567   2.06943
 Alpha virt. eigenvalues --    2.08162   2.09946   2.10312   2.13145   2.13365
 Alpha virt. eigenvalues --    2.13540   2.14065   2.14617   2.14906   2.14937
 Alpha virt. eigenvalues --    2.15474   2.15664   2.15955   2.15973   2.16510
 Alpha virt. eigenvalues --    2.16744   2.17523   2.17892   2.18241   2.18601
 Alpha virt. eigenvalues --    2.18815   2.19063   2.19465   2.19698   2.20157
 Alpha virt. eigenvalues --    2.20221   2.20405   2.20810   2.20947   2.21468
 Alpha virt. eigenvalues --    2.21649   2.22192   2.22645   2.23071   2.23204
 Alpha virt. eigenvalues --    2.23633   2.24182   2.24456   2.26542   2.29841
 Alpha virt. eigenvalues --    2.29970   2.30280   2.30329   2.31208   2.32404
 Alpha virt. eigenvalues --    2.32601   2.33724   2.34876   2.35226   2.36307
 Alpha virt. eigenvalues --    2.37159   2.37798   2.38127   2.38607   2.38866
 Alpha virt. eigenvalues --    2.39064   2.39542   2.39645   2.40485   2.40872
 Alpha virt. eigenvalues --    2.41116   2.41865   2.42271   2.42841   2.43420
 Alpha virt. eigenvalues --    2.43853   2.43967   2.44234   2.44537   2.44743
 Alpha virt. eigenvalues --    2.45290   2.45456   2.46668   2.47863   2.49686
 Alpha virt. eigenvalues --    2.49701   2.50046   2.50368   2.50844   2.51042
 Alpha virt. eigenvalues --    2.51173   2.52328   2.52529   2.52806   2.53083
 Alpha virt. eigenvalues --    2.53641   2.54963   2.55938   2.56466   2.56873
 Alpha virt. eigenvalues --    2.57704   2.59082   2.59519   2.60068   2.60195
 Alpha virt. eigenvalues --    2.60826   2.60985   2.61551   2.61705   2.62249
 Alpha virt. eigenvalues --    2.63165   2.63629   2.65251   2.65593   2.66815
 Alpha virt. eigenvalues --    2.67762   2.68472   2.71373   2.71576   2.72814
 Alpha virt. eigenvalues --    2.73125   2.73524   2.74230   2.74934   2.80906
 Alpha virt. eigenvalues --    2.81359   2.85927   2.86114   2.86970   2.88514
 Alpha virt. eigenvalues --    2.90970   2.93757   2.94645   2.94974   2.95696
 Alpha virt. eigenvalues --    2.96412   2.96482   2.97319   2.98088   2.98273
 Alpha virt. eigenvalues --    2.98621   2.99203   2.99439   3.00463   3.02257
 Alpha virt. eigenvalues --    3.02406   3.04570   3.05183   3.06817   3.07444
 Alpha virt. eigenvalues --    3.07633   3.08980   3.09549   3.10927   3.12833
 Alpha virt. eigenvalues --    3.14879   3.15194   3.15518   3.15700   3.15861
 Alpha virt. eigenvalues --    3.16342   3.16633   3.16923   3.18135   3.18345
 Alpha virt. eigenvalues --    3.20336   3.21213   3.21460   3.22685   3.23695
 Alpha virt. eigenvalues --    3.24428   3.24849   3.25587   3.28652   3.29119
 Alpha virt. eigenvalues --    3.29365   3.29798   3.30679   3.31071   3.44049
 Alpha virt. eigenvalues --    3.44526   3.46461   3.52611   3.56820   3.57234
 Alpha virt. eigenvalues --    3.65758   3.66841   3.67198   3.68389   3.83161
 Alpha virt. eigenvalues --    3.83587  18.68394  18.88053  21.08766  21.11495
 Alpha virt. eigenvalues --   21.34929  21.35344  21.47887  21.48971  21.52739
 Alpha virt. eigenvalues --   21.55461  21.62820  21.63130  21.64493  21.65713
 Alpha virt. eigenvalues --   21.75251  21.76234  21.79353  21.79841  21.80192
 Alpha virt. eigenvalues --   21.82197  21.83488  21.83711  21.93337  21.96602
 Alpha virt. eigenvalues --   22.03294  22.04229  22.06633  22.07060  31.48430
 Alpha virt. eigenvalues --   31.48888  31.63177  31.63488
          Condensed to atoms (all electrons):
 Mulliken charges:
               1
     1  C   -0.123185
     2  C   -0.245594
     3  S    0.089262
     4  C    0.056530
     5  C   -0.075691
     6  C   -0.154653
     7  C    0.100291
     8  C   -0.130041
     9  H    0.176856
    10  C   -0.078368
    11  C   -0.048769
    12  C   -0.094043
    13  C    0.132724
    14  H    0.178177
    15  H    0.142538
    16  H    0.157449
    17  C   -0.108076
    18  H    0.187250
    19  H    0.127879
    20  H    0.131177
    21  H    0.155877
    22  S    0.011258
    23  C   -0.509301
    24  C    0.086985
    25  C    0.071621
    26  N    0.024164
    27  N    0.021154
    28  C   -0.257281
    29  H    0.180059
    30  H    0.151580
    31  H    0.173383
    32  C   -0.255879
    33  H    0.174396
    34  H    0.184782
    35  H    0.146365
    36  C   -0.261882
    37  H    0.179809
    38  H    0.158530
    39  H    0.175693
    40  C   -0.260614
    41  H    0.174830
    42  H    0.186721
    43  H    0.146704
    44  C   -0.469698
    45  C    0.086216
    46  C    0.078456
    47  N    0.020975
    48  N    0.019724
    49  C   -0.258387
    50  H    0.178592
    51  H    0.154980
    52  H    0.173043
    53  C   -0.258555
    54  H    0.173773
    55  H    0.184320
    56  H    0.146258
    57  C   -0.258746
    58  H    0.177573
    59  H    0.152019
    60  H    0.173635
    61  C   -0.260602
    62  H    0.172936
    63  H    0.184898
    64  H    0.147923
 Sum of Mulliken charges =   2.00000
 Mulliken charges with hydrogens summed into heavy atoms:
               1
     1  C    0.064065
     2  C   -0.245594
     3  S    0.089262
     4  C    0.233386
     5  C   -0.075691
     6  C   -0.154653
     7  C    0.100291
     8  C    0.001136
    10  C    0.099809
    11  C    0.093768
    12  C    0.063406
    13  C    0.132724
    17  C    0.047801
    22  S    0.139137
    23  C   -0.509301
    24  C    0.086985
    25  C    0.071621
    26  N    0.024164
    27  N    0.021154
    28  C    0.247741
    32  C    0.249664
    36  C    0.252150
    40  C    0.247641
    44  C   -0.469698
    45  C    0.086216
    46  C    0.078456
    47  N    0.020975
    48  N    0.019724
    49  C    0.248227
    53  C    0.245796
    57  C    0.244481
    61  C    0.245155
 Electronic spatial extent (au):  <R**2>=          29306.3724
 Charge=              2.0000 electrons
 Dipole moment (field-independent basis, Debye):
    X=             -0.3800    Y=              3.2473    Z=             -0.5860  Tot=              3.3216
 Quadrupole moment (field-independent basis, Debye-Ang):
   XX=            270.0859   YY=           -143.0489   ZZ=           -187.0928
   XY=             -8.5159   XZ=              5.3461   YZ=             -1.2511
 Traceless Quadrupole moment (field-independent basis, Debye-Ang):
   XX=            290.1045   YY=           -123.0303   ZZ=           -167.0742
   XY=             -8.5159   XZ=              5.3461   YZ=             -1.2511
 Octapole moment (field-independent basis, Debye-Ang**2):
  XXX=             36.7618  YYY=             48.0011  ZZZ=             -0.9636  XYY=              1.6158
  XXY=            161.3574  XXZ=            -67.0604  XZZ=             -8.2571  YZZ=             14.4375
  YYZ=             -5.2771  XYZ=           -128.9768
 Hexadecapole moment (field-independent basis, Debye-Ang**3):
 XXXX=          -5673.5192 YYYY=          -3076.2257 ZZZZ=          -1248.8614 XXXY=            -65.2685
 XXXZ=            666.3480 YYYX=           -190.4172 YYYZ=              0.7365 ZZZX=             24.9742
 ZZZY=              0.1736 XXYY=          -3567.8781 XXZZ=          -5409.5303 YYZZ=           -719.8059
 XXYZ=            -16.7340 YYXZ=            -49.3946 ZZXY=              3.5602
 N-N= 3.278947104542D+03 E-N=-1.125377810100D+04  KE= 2.016905896086D+03
 No NMR shielding tensors so no spin-rotation constants.
 Leave Link  601 at Wed Jan 27 13:24:07 2021, MaxMem=  4026531840 cpu:               5.8 elap:               0.8
 (Enter /opt/ohpc/pub/libs/gaussian/g16-A.03/sandybridge/g16/l9999.exe)

 Test job not archived.
 1\1\GINC-CNODE145\SP\RLC-wHPBE\TZVP\C26H32N4S2(2+)\RDU230\27-Jan-2021\
 0\\#P LC-wHPBE/TZVP iop(3/107=0189300000, 3/108=0189300000) scf=(conve
 r=6,fermi,ndamp=35,noincfock,novaracc,vshift=500,xqc)\\H32 C26 S2 N4\\
 2,1\C,0,-2.928949,-0.209586,-0.466429\C,0,-1.563914,-0.061175,-0.30379
 \S,0,-0.549634,-0.92994,-1.465043\C,0,-1.080492,0.744795,0.70659\C,0,1
 .720975,-1.178026,0.124019\C,0,1.104728,-0.556786,-0.961278\C,0,-3.804
 439,0.453059,0.37376\C,0,-1.957571,1.39872,1.546095\H,0,-0.017059,0.86
 7388,0.843825\C,0,3.05531,-0.905897,0.375396\C,0,1.834379,0.303673,-1.
 763498\C,0,3.157322,0.57014,-1.506853\C,0,3.772824,-0.043708,-0.429435
 \H,0,3.535939,-1.385849,1.215765\H,0,1.346414,0.763075,-2.610001\H,0,3
 .71103,1.227115,-2.160412\C,0,-3.316329,1.26263,1.386512\H,0,-3.309964
 ,-0.825983,-1.268943\H,0,-0.12139,-2.546838,0.437504\H,0,-1.570409,2.0
 20933,2.339064\H,0,-3.993957,1.766527,2.059405\S,0,0.923466,-2.279512,
 1.229412\C,0,5.179371,0.186625,-0.15991\C,0,6.258258,1.013194,-0.19423
 8\C,0,6.373984,-0.291545,0.281001\N,0,6.778879,2.1722,-0.466391\N,0,7.
 085837,-1.264246,0.765069\C,0,5.943792,3.274283,-0.907684\H,0,6.187951
 ,3.5455,-1.931936\H,0,4.898805,2.994168,-0.846509\H,0,6.108951,4.13480
 4,-0.264794\C,0,8.194976,2.451187,-0.318309\H,0,8.537142,3.011091,-1.1
 83702\H,0,8.380874,3.039067,0.577705\H,0,8.758216,1.527533,-0.273817\C
 ,0,6.515968,-2.589608,0.931428\H,0,6.460524,-2.846499,1.986434\H,0,5.5
 24243,-2.624805,0.496396\H,0,7.140387,-3.318442,0.421721\C,0,8.484929,
 -1.112006,1.118438\H,0,8.667734,-1.621246,2.059984\H,0,9.125917,-1.545
 202,0.353886\H,0,8.728287,-0.065327,1.25212\C,0,-5.234909,0.301436,0.1
 92555\C,0,-6.482207,0.837696,0.274291\C,0,-6.296202,-0.469144,-0.16637
 3\N,0,-7.258316,1.842942,0.55157\N,0,-6.771609,-1.601745,-0.593499\C,0
 ,-6.699705,3.135271,0.904858\H,0,-6.943427,3.382636,1.935256\H,0,-5.62
 3434,3.119821,0.780416\H,0,-7.111169,3.899344,0.250646\C,0,-8.704916,1
 .757804,0.486526\H,0,-9.127537,2.25749,1.353238\H,0,-9.080352,2.238157
 ,-0.414316\H,0,-9.022841,0.722915,0.509579\C,0,-5.902929,-2.750782,-0.
 768792\H,0,-5.850729,-3.027562,-1.819029\H,0,-4.908582,-2.521281,-0.40
 444\H,0,-6.292204,-3.59128,-0.200176\C,0,-8.181475,-1.806186,-0.866823
 \H,0,-8.283723,-2.375263,-1.7861\H,0,-8.657299,-2.356258,-0.057912\H,0
 ,-8.67988,-0.85495,-1.00634\\Version=EM64L-G16RevA.03\State=1-A\HF=-20
 23.765562\RMSD=7.745e-07\Dipole=0.1494956,1.277594,0.2305528\Quadrupol
 e=215.6856107,-91.4700475,-124.2155632,6.3313359,3.9746663,0.9301354\P
 G=C01 [X(C26H32N4S2)]\\@


 A SCIENTIST IS SOMEONE WHOSE CURIOSITY SURVIVES
 EDUCATION'S ASSAULTS ON IT.
                          - SIR HERMANN BONDI
 Job cpu time:       0 days  2 hours 29 minutes  3.0 seconds.
 Elapsed time:       0 days  0 hours 18 minutes 54.9 seconds.
 File lengths (MBytes):  RWF=    248 Int=      0 D2E=      0 Chk=     44 Scr=      8
 Normal termination of Gaussian 16 at Wed Jan 27 13:24:07 2021.
