 Entering Gaussian System, Link 0=g16
 Input=mol_ta_cp_whol_tune_c0.gjf
 Output=mol_ta_cp_whol_tune_c0.log
 Initial command:
 /opt/ohpc/pub/libs/gaussian/g16-A.03/sandybridge/g16/l1.exe "/mnt/gpfs2_4m/scratch/rdu230/ondemand/projects/init_structures/gaussian/wtuning/mol_ta_cp_whol/tuning_mol_ta_cp_whol_ocycle0/Gau-119075.inp" -scrdir="/mnt/gpfs2_4m/scratch/rdu230/ondemand/projects/init_structures/gaussian/wtuning/mol_ta_cp_whol/tuning_mol_ta_cp_whol_ocycle0/"
 Entering Link 1 = /opt/ohpc/pub/libs/gaussian/g16-A.03/sandybridge/g16/l1.exe PID=    119076.
  
 Copyright (c) 1988,1990,1992,1993,1995,1998,2003,2009,2016,
            Gaussian, Inc.  All Rights Reserved.
  
 This is part of the Gaussian(R) 16 program.  It is based on
 the Gaussian(R) 09 system (copyright 2009, Gaussian, Inc.),
 the Gaussian(R) 03 system (copyright 2003, Gaussian, Inc.),
 the Gaussian(R) 98 system (copyright 1998, Gaussian, Inc.),
 the Gaussian(R) 94 system (copyright 1995, Gaussian, Inc.),
 the Gaussian 92(TM) system (copyright 1992, Gaussian, Inc.),
 the Gaussian 90(TM) system (copyright 1990, Gaussian, Inc.),
 the Gaussian 88(TM) system (copyright 1988, Gaussian, Inc.),
 the Gaussian 86(TM) system (copyright 1986, Carnegie Mellon
 University), and the Gaussian 82(TM) system (copyright 1983,
 Carnegie Mellon University). Gaussian is a federally registered
 trademark of Gaussian, Inc.
  
 This software contains proprietary and confidential information,
 including trade secrets, belonging to Gaussian, Inc.
  
 This software is provided under written license and may be
 used, copied, transmitted, or stored only in accord with that
 written license.
  
 The following legend is applicable only to US Government
 contracts under FAR:
  
                    RESTRICTED RIGHTS LEGEND
  
 Use, reproduction and disclosure by the US Government is
 subject to restrictions as set forth in subparagraphs (a)
 and (c) of the Commercial Computer Software - Restricted
 Rights clause in FAR 52.227-19.
  
 Gaussian, Inc.
 340 Quinnipiac St., Bldg. 40, Wallingford CT 06492
  
  
 ---------------------------------------------------------------
 Warning -- This program may not be used in any manner that
 competes with the business of Gaussian, Inc. or will provide
 assistance to any competitor of Gaussian, Inc.  The licensee
 of this program is prohibited from giving any competitor of
 Gaussian, Inc. access to this program.  By using this program,
 the user acknowledges that Gaussian, Inc. is engaged in the
 business of creating and licensing software in the field of
 computational chemistry and represents and warrants to the
 licensee that it is not a competitor of Gaussian, Inc. and that
 it will not use this program in any manner prohibited above.
 ---------------------------------------------------------------
  

 Cite this work as:
 Gaussian 16, Revision A.03,
 M. J. Frisch, G. W. Trucks, H. B. Schlegel, G. E. Scuseria, 
 M. A. Robb, J. R. Cheeseman, G. Scalmani, V. Barone, 
 G. A. Petersson, H. Nakatsuji, X. Li, M. Caricato, A. V. Marenich, 
 J. Bloino, B. G. Janesko, R. Gomperts, B. Mennucci, H. P. Hratchian, 
 J. V. Ortiz, A. F. Izmaylov, J. L. Sonnenberg, D. Williams-Young, 
 F. Ding, F. Lipparini, F. Egidi, J. Goings, B. Peng, A. Petrone, 
 T. Henderson, D. Ranasinghe, V. G. Zakrzewski, J. Gao, N. Rega, 
 G. Zheng, W. Liang, M. Hada, M. Ehara, K. Toyota, R. Fukuda, 
 J. Hasegawa, M. Ishida, T. Nakajima, Y. Honda, O. Kitao, H. Nakai, 
 T. Vreven, K. Throssell, J. A. Montgomery, Jr., J. E. Peralta, 
 F. Ogliaro, M. J. Bearpark, J. J. Heyd, E. N. Brothers, K. N. Kudin, 
 V. N. Staroverov, T. A. Keith, R. Kobayashi, J. Normand, 
 K. Raghavachari, A. P. Rendell, J. C. Burant, S. S. Iyengar, 
 J. Tomasi, M. Cossi, J. M. Millam, M. Klene, C. Adamo, R. Cammi, 
 J. W. Ochterski, R. L. Martin, K. Morokuma, O. Farkas, 
 J. B. Foresman, and D. J. Fox, Gaussian, Inc., Wallingford CT, 2016.
 
 ******************************************
 Gaussian 16:  EM64L-G16RevA.03 25-Dec-2016
                27-Jan-2021 
 ******************************************
 %mem=30GB
 %nproc=8
 Will use up to    8 processors via shared memory.
 ----------------------------------------------------------------------
 #P LC-wHPBE/TZVP iop(3/107=0221900000, 3/108=0221900000) scf=(conver=6
 ,fermi,ndamp=35,noincfock,novaracc,vshift=500,xqc)
 ----------------------------------------------------------------------
 1/38=1,172=1/1;
 2/12=2,17=6,18=5,40=1/2;
 3/5=19,7=101,11=2,25=1,30=1,74=-71,107=221900000,108=221900000/1,2,3;
 4//1;
 5/5=100002,6=6,8=3,10=500,13=1,18=-1,22=13,38=1,93=35/2,8;
 6/7=2,8=2,9=2,10=2,28=1/1;
 99/5=1,9=1/99;
 Leave Link    1 at Wed Jan 27 00:22:52 2021, MaxMem=  4026531840 cpu:               1.6 elap:               0.2
 (Enter /opt/ohpc/pub/libs/gaussian/g16-A.03/sandybridge/g16/l101.exe)
 -------------
 H32 C26 S2 N4
 -------------
 Symbolic Z-matrix:
 Charge =  3 Multiplicity = 2
 C                    -2.92895  -0.20959  -0.46643 
 C                    -1.56391  -0.06118  -0.30379 
 S                    -0.54963  -0.92994  -1.46504 
 C                    -1.08049   0.7448    0.70659 
 C                     1.72098  -1.17803   0.12402 
 C                     1.10473  -0.55679  -0.96128 
 C                    -3.80444   0.45306   0.37376 
 C                    -1.95757   1.39872   1.5461 
 H                    -0.01706   0.86739   0.84383 
 C                     3.05531  -0.9059    0.3754 
 C                     1.83438   0.30367  -1.7635 
 C                     3.15732   0.57014  -1.50685 
 C                     3.77282  -0.04371  -0.42944 
 H                     3.53594  -1.38585   1.21576 
 H                     1.34641   0.76308  -2.61 
 H                     3.71103   1.22712  -2.16041 
 C                    -3.31633   1.26263   1.38651 
 H                    -3.30996  -0.82598  -1.26894 
 H                    -0.12139  -2.54684   0.4375 
 H                    -1.57041   2.02093   2.33906 
 H                    -3.99396   1.76653   2.0594 
 S                     0.92347  -2.27951   1.22941 
 C                     5.17937   0.18663  -0.15991 
 C                     6.25826   1.01319  -0.19424 
 C                     6.37398  -0.29155   0.281 
 N                     6.77888   2.1722   -0.46639 
 N                     7.08584  -1.26425   0.76507 
 C                     5.94379   3.27428  -0.90768 
 H                     6.18795   3.5455   -1.93194 
 H                     4.89881   2.99417  -0.84651 
 H                     6.10895   4.1348   -0.26479 
 C                     8.19498   2.45119  -0.31831 
 H                     8.53714   3.01109  -1.1837 
 H                     8.38087   3.03907   0.57771 
 H                     8.75822   1.52753  -0.27382 
 C                     6.51597  -2.58961   0.93143 
 H                     6.46052  -2.8465    1.98643 
 H                     5.52424  -2.62481   0.4964 
 H                     7.14039  -3.31844   0.42172 
 C                     8.48493  -1.11201   1.11844 
 H                     8.66773  -1.62125   2.05998 
 H                     9.12592  -1.5452    0.35389 
 H                     8.72829  -0.06533   1.25212 
 C                    -5.23491   0.30144   0.19256 
 C                    -6.48221   0.8377    0.27429 
 C                    -6.2962   -0.46914  -0.16637 
 N                    -7.25832   1.84294   0.55157 
 N                    -6.77161  -1.60175  -0.5935 
 C                    -6.6997    3.13527   0.90486 
 H                    -6.94343   3.38264   1.93526 
 H                    -5.62343   3.11982   0.78042 
 H                    -7.11117   3.89934   0.25065 
 C                    -8.70492   1.7578    0.48653 
 H                    -9.12754   2.25749   1.35324 
 H                    -9.08035   2.23816  -0.41432 
 H                    -9.02284   0.72292   0.50958 
 C                    -5.90293  -2.75078  -0.76879 
 H                    -5.85073  -3.02756  -1.81903 
 H                    -4.90858  -2.52128  -0.40444 
 H                    -6.2922   -3.59128  -0.20018 
 C                    -8.18148  -1.80619  -0.86682 
 H                    -8.28372  -2.37526  -1.7861 
 H                    -8.6573   -2.35626  -0.05791 
 H                    -8.67988  -0.85495  -1.00634 
 
 ITRead=  0  0  0  0  0  0  0  0  0  0  0  0  0  0  0  0  0  0  0  0
 ITRead=  0  0  0  0  0  0  0  0  0  0  0  0  0  0  0  0  0  0  0  0
 ITRead=  0  0  0  0  0  0  0  0  0  0  0  0  0  0  0  0  0  0  0  0
 ITRead=  0  0  0  0
 MicOpt= -1 -1 -1 -1 -1 -1 -1 -1 -1 -1 -1 -1 -1 -1 -1 -1 -1 -1 -1 -1
 MicOpt= -1 -1 -1 -1 -1 -1 -1 -1 -1 -1 -1 -1 -1 -1 -1 -1 -1 -1 -1 -1
 MicOpt= -1 -1 -1 -1 -1 -1 -1 -1 -1 -1 -1 -1 -1 -1 -1 -1 -1 -1 -1 -1
 MicOpt= -1 -1 -1 -1
 NAtoms=     64 NQM=       64 NQMF=       0 NMMI=      0 NMMIF=      0
                NMic=       0 NMicF=      0.
                    Isotopes and Nuclear Properties:
 (Nuclear quadrupole moments (NQMom) in fm**2, nuclear magnetic moments (NMagM)
  in nuclear magnetons)

  Atom         1           2           3           4           5           6           7           8           9          10
 IAtWgt=          12          12          32          12          12          12          12          12           1          12
 AtmWgt=  12.0000000  12.0000000  31.9720718  12.0000000  12.0000000  12.0000000  12.0000000  12.0000000   1.0078250  12.0000000
 NucSpn=           0           0           0           0           0           0           0           0           1           0
 AtZEff=  -0.0000000  -0.0000000  -0.0000000  -0.0000000  -0.0000000  -0.0000000  -0.0000000  -0.0000000  -0.0000000  -0.0000000
 NQMom=    0.0000000   0.0000000   0.0000000   0.0000000   0.0000000   0.0000000   0.0000000   0.0000000   0.0000000   0.0000000
 NMagM=    0.0000000   0.0000000   0.0000000   0.0000000   0.0000000   0.0000000   0.0000000   0.0000000   2.7928460   0.0000000
 AtZNuc=   6.0000000   6.0000000  16.0000000   6.0000000   6.0000000   6.0000000   6.0000000   6.0000000   1.0000000   6.0000000

  Atom        11          12          13          14          15          16          17          18          19          20
 IAtWgt=          12          12          12           1           1           1          12           1           1           1
 AtmWgt=  12.0000000  12.0000000  12.0000000   1.0078250   1.0078250   1.0078250  12.0000000   1.0078250   1.0078250   1.0078250
 NucSpn=           0           0           0           1           1           1           0           1           1           1
 AtZEff=  -0.0000000  -0.0000000  -0.0000000  -0.0000000  -0.0000000  -0.0000000  -0.0000000  -0.0000000  -0.0000000  -0.0000000
 NQMom=    0.0000000   0.0000000   0.0000000   0.0000000   0.0000000   0.0000000   0.0000000   0.0000000   0.0000000   0.0000000
 NMagM=    0.0000000   0.0000000   0.0000000   2.7928460   2.7928460   2.7928460   0.0000000   2.7928460   2.7928460   2.7928460
 AtZNuc=   6.0000000   6.0000000   6.0000000   1.0000000   1.0000000   1.0000000   6.0000000   1.0000000   1.0000000   1.0000000

  Atom        21          22          23          24          25          26          27          28          29          30
 IAtWgt=           1          32          12          12          12          14          14          12           1           1
 AtmWgt=   1.0078250  31.9720718  12.0000000  12.0000000  12.0000000  14.0030740  14.0030740  12.0000000   1.0078250   1.0078250
 NucSpn=           1           0           0           0           0           2           2           0           1           1
 AtZEff=  -0.0000000  -0.0000000  -0.0000000  -0.0000000  -0.0000000  -0.0000000  -0.0000000  -0.0000000  -0.0000000  -0.0000000
 NQMom=    0.0000000   0.0000000   0.0000000   0.0000000   0.0000000   2.0440000   2.0440000   0.0000000   0.0000000   0.0000000
 NMagM=    2.7928460   0.0000000   0.0000000   0.0000000   0.0000000   0.4037610   0.4037610   0.0000000   2.7928460   2.7928460
 AtZNuc=   1.0000000  16.0000000   6.0000000   6.0000000   6.0000000   7.0000000   7.0000000   6.0000000   1.0000000   1.0000000

  Atom        31          32          33          34          35          36          37          38          39          40
 IAtWgt=           1          12           1           1           1          12           1           1           1          12
 AtmWgt=   1.0078250  12.0000000   1.0078250   1.0078250   1.0078250  12.0000000   1.0078250   1.0078250   1.0078250  12.0000000
 NucSpn=           1           0           1           1           1           0           1           1           1           0
 AtZEff=  -0.0000000  -0.0000000  -0.0000000  -0.0000000  -0.0000000  -0.0000000  -0.0000000  -0.0000000  -0.0000000  -0.0000000
 NQMom=    0.0000000   0.0000000   0.0000000   0.0000000   0.0000000   0.0000000   0.0000000   0.0000000   0.0000000   0.0000000
 NMagM=    2.7928460   0.0000000   2.7928460   2.7928460   2.7928460   0.0000000   2.7928460   2.7928460   2.7928460   0.0000000
 AtZNuc=   1.0000000   6.0000000   1.0000000   1.0000000   1.0000000   6.0000000   1.0000000   1.0000000   1.0000000   6.0000000

  Atom        41          42          43          44          45          46          47          48          49          50
 IAtWgt=           1           1           1          12          12          12          14          14          12           1
 AtmWgt=   1.0078250   1.0078250   1.0078250  12.0000000  12.0000000  12.0000000  14.0030740  14.0030740  12.0000000   1.0078250
 NucSpn=           1           1           1           0           0           0           2           2           0           1
 AtZEff=  -0.0000000  -0.0000000  -0.0000000  -0.0000000  -0.0000000  -0.0000000  -0.0000000  -0.0000000  -0.0000000  -0.0000000
 NQMom=    0.0000000   0.0000000   0.0000000   0.0000000   0.0000000   0.0000000   2.0440000   2.0440000   0.0000000   0.0000000
 NMagM=    2.7928460   2.7928460   2.7928460   0.0000000   0.0000000   0.0000000   0.4037610   0.4037610   0.0000000   2.7928460
 AtZNuc=   1.0000000   1.0000000   1.0000000   6.0000000   6.0000000   6.0000000   7.0000000   7.0000000   6.0000000   1.0000000

  Atom        51          52          53          54          55          56          57          58          59          60
 IAtWgt=           1           1          12           1           1           1          12           1           1           1
 AtmWgt=   1.0078250   1.0078250  12.0000000   1.0078250   1.0078250   1.0078250  12.0000000   1.0078250   1.0078250   1.0078250
 NucSpn=           1           1           0           1           1           1           0           1           1           1
 AtZEff=  -0.0000000  -0.0000000  -0.0000000  -0.0000000  -0.0000000  -0.0000000  -0.0000000  -0.0000000  -0.0000000  -0.0000000
 NQMom=    0.0000000   0.0000000   0.0000000   0.0000000   0.0000000   0.0000000   0.0000000   0.0000000   0.0000000   0.0000000
 NMagM=    2.7928460   2.7928460   0.0000000   2.7928460   2.7928460   2.7928460   0.0000000   2.7928460   2.7928460   2.7928460
 AtZNuc=   1.0000000   1.0000000   6.0000000   1.0000000   1.0000000   1.0000000   6.0000000   1.0000000   1.0000000   1.0000000

  Atom        61          62          63          64
 IAtWgt=          12           1           1           1
 AtmWgt=  12.0000000   1.0078250   1.0078250   1.0078250
 NucSpn=           0           1           1           1
 AtZEff=  -0.0000000  -0.0000000  -0.0000000  -0.0000000
 NQMom=    0.0000000   0.0000000   0.0000000   0.0000000
 NMagM=    0.0000000   2.7928460   2.7928460   2.7928460
 AtZNuc=   6.0000000   1.0000000   1.0000000   1.0000000
 Leave Link  101 at Wed Jan 27 00:22:52 2021, MaxMem=  4026531840 cpu:               0.9 elap:               0.1
 (Enter /opt/ohpc/pub/libs/gaussian/g16-A.03/sandybridge/g16/l202.exe)
 Stoichiometry    C26H32N4S2(3+,2)
 Framework group  C1[X(C26H32N4S2)]
 Deg. of freedom   186
 Full point group                 C1      NOp   1
 Largest Abelian subgroup         C1      NOp   1
 Largest concise Abelian subgroup C1      NOp   1
                         Standard orientation:                         
 ---------------------------------------------------------------------
 Center     Atomic      Atomic             Coordinates (Angstroms)
 Number     Number       Type             X           Y           Z
 ---------------------------------------------------------------------
      1          6           0        2.928949   -0.209586    0.466429
      2          6           0        1.563914   -0.061175    0.303790
      3         16           0        0.549634   -0.929940    1.465043
      4          6           0        1.080492    0.744795   -0.706590
      5          6           0       -1.720975   -1.178026   -0.124019
      6          6           0       -1.104728   -0.556786    0.961278
      7          6           0        3.804439    0.453059   -0.373760
      8          6           0        1.957571    1.398720   -1.546095
      9          1           0        0.017059    0.867388   -0.843825
     10          6           0       -3.055310   -0.905897   -0.375396
     11          6           0       -1.834379    0.303673    1.763498
     12          6           0       -3.157322    0.570140    1.506853
     13          6           0       -3.772824   -0.043708    0.429435
     14          1           0       -3.535939   -1.385849   -1.215765
     15          1           0       -1.346414    0.763075    2.610001
     16          1           0       -3.711030    1.227115    2.160412
     17          6           0        3.316329    1.262630   -1.386512
     18          1           0        3.309964   -0.825983    1.268943
     19          1           0        0.121390   -2.546838   -0.437504
     20          1           0        1.570409    2.020933   -2.339064
     21          1           0        3.993957    1.766527   -2.059405
     22         16           0       -0.923466   -2.279512   -1.229412
     23          6           0       -5.179371    0.186625    0.159910
     24          6           0       -6.258258    1.013194    0.194238
     25          6           0       -6.373984   -0.291545   -0.281001
     26          7           0       -6.778879    2.172200    0.466391
     27          7           0       -7.085837   -1.264246   -0.765069
     28          6           0       -5.943792    3.274283    0.907684
     29          1           0       -6.187951    3.545500    1.931936
     30          1           0       -4.898805    2.994168    0.846509
     31          1           0       -6.108951    4.134804    0.264794
     32          6           0       -8.194976    2.451187    0.318309
     33          1           0       -8.537142    3.011091    1.183702
     34          1           0       -8.380874    3.039067   -0.577705
     35          1           0       -8.758216    1.527533    0.273817
     36          6           0       -6.515968   -2.589608   -0.931428
     37          1           0       -6.460524   -2.846499   -1.986434
     38          1           0       -5.524243   -2.624805   -0.496396
     39          1           0       -7.140387   -3.318442   -0.421721
     40          6           0       -8.484929   -1.112006   -1.118438
     41          1           0       -8.667734   -1.621246   -2.059984
     42          1           0       -9.125917   -1.545202   -0.353886
     43          1           0       -8.728287   -0.065327   -1.252120
     44          6           0        5.234909    0.301436   -0.192555
     45          6           0        6.482207    0.837696   -0.274291
     46          6           0        6.296202   -0.469144    0.166373
     47          7           0        7.258316    1.842942   -0.551570
     48          7           0        6.771609   -1.601745    0.593499
     49          6           0        6.699705    3.135271   -0.904858
     50          1           0        6.943427    3.382636   -1.935256
     51          1           0        5.623434    3.119821   -0.780416
     52          1           0        7.111169    3.899344   -0.250646
     53          6           0        8.704916    1.757804   -0.486526
     54          1           0        9.127537    2.257490   -1.353238
     55          1           0        9.080352    2.238157    0.414316
     56          1           0        9.022841    0.722915   -0.509579
     57          6           0        5.902929   -2.750782    0.768792
     58          1           0        5.850729   -3.027562    1.819029
     59          1           0        4.908582   -2.521281    0.404440
     60          1           0        6.292204   -3.591280    0.200176
     61          6           0        8.181475   -1.806186    0.866823
     62          1           0        8.283723   -2.375263    1.786100
     63          1           0        8.657299   -2.356258    0.057912
     64          1           0        8.679880   -0.854950    1.006340
 ---------------------------------------------------------------------
 Rotational constants (GHZ):           0.3037259           0.0375439           0.0353071
 Leave Link  202 at Wed Jan 27 00:22:52 2021, MaxMem=  4026531840 cpu:               0.1 elap:               0.0
 (Enter /opt/ohpc/pub/libs/gaussian/g16-A.03/sandybridge/g16/l301.exe)
 Standard basis: TZVP (5D, 7F)
 Ernie: Thresh=  0.10000D-02 Tol=  0.10000D-05 Strict=F.
 There are   838 symmetry adapted cartesian basis functions of A   symmetry.
 There are   806 symmetry adapted basis functions of A   symmetry.
   806 basis functions,  1400 primitive gaussians,   838 cartesian basis functions
   123 alpha electrons      122 beta electrons
       nuclear repulsion energy      3278.9471045421 Hartrees.
 IExCor=33909 DFT=T Ex+Corr=LC-wHPBE ExCW=0 ScaHFX=  1.000000
 ScaDFX=  1.000000  1.000000  1.000000  1.000000 ScalE2=  1.000000  1.000000
 IRadAn=      5 IRanWt=     -1 IRanGd=            0 ICorTp=0 IEmpDi=  4
 HFx  wShort=  0.000000 wLong=  0.221900 cFull=  0.000000 cShort=  0.000000 cLong=  1.000000
 DFx  wShort=  0.000000 wLong=  0.221900 cFull=  0.000000 cShort=  1.000000 cLong=  0.000000
 NAtoms=   64 NActive=   64 NUniq=   64 SFac= 1.00D+00 NAtFMM=   60 NAOKFM=T Big=T
 Integral buffers will be    131072 words long.
 Raffenetti 2 integral format.
 Two-electron integral symmetry is turned on.
 Leave Link  301 at Wed Jan 27 00:22:53 2021, MaxMem=  4026531840 cpu:               0.4 elap:               0.1
 (Enter /opt/ohpc/pub/libs/gaussian/g16-A.03/sandybridge/g16/l302.exe)
 NPDir=0 NMtPBC=     1 NCelOv=     1 NCel=       1 NClECP=     1 NCelD=      1
         NCelK=      1 NCelE2=     1 NClLst=     1 CellRange=     0.0.
 One-electron integrals computed using PRISM.
 One-electron integral symmetry used in STVInt
 NBasis=   806 RedAO= T EigKep=  6.39D-06  NBF=   806
 NBsUse=   806 1.00D-06 EigRej= -1.00D+00 NBFU=   806
 Precomputing XC quadrature grid using
 IXCGrd= 4 IRadAn=           5 IRanWt=          -1 IRanGd=           0 AccXCQ= 0.00D+00.
 Generated NRdTot=       0 NPtTot=           0 NUsed=           0 NTot=          32
 NSgBfM=   770   766   769   770   770 MxSgAt=    64 MxSgA2=    64.
 Leave Link  302 at Wed Jan 27 00:22:55 2021, MaxMem=  4026531840 cpu:              18.3 elap:               2.3
 (Enter /opt/ohpc/pub/libs/gaussian/g16-A.03/sandybridge/g16/l303.exe)
 DipDrv:  MaxL=1.
 Leave Link  303 at Wed Jan 27 00:22:55 2021, MaxMem=  4026531840 cpu:               1.6 elap:               0.2
 (Enter /opt/ohpc/pub/libs/gaussian/g16-A.03/sandybridge/g16/l401.exe)
 ExpMin= 9.52D-02 ExpMax= 6.07D+04 ExpMxC= 2.07D+03 IAcc=3 IRadAn=         5 AccDes= 0.00D+00
 Harris functional with IExCor=33909 and IRadAn=       5 diagonalized for initial guess.
 HarFok:  IExCor=33909 AccDes= 0.00D+00 IRadAn=         5 IDoV= 1 UseB2=F ITyADJ=14
 ICtDFT=  3500011 ScaDFX=  1.000000  1.000000  1.000000  1.000000
 FoFCou: FMM=F IPFlag=           0 FMFlag=      100000 FMFlg1=        2001
         NFxFlg=           0 DoJE=T BraDBF=F KetDBF=T FulRan=T
         wScrn=  0.000000 ICntrl=       500 IOpCl=  0 I1Cent=   200000004 NGrid=           0
         NMat0=    1 NMatS0=      1 NMatT0=    0 NMatD0=    1 NMtDS0=    0 NMtDT0=    0
 Petite list used in FoFCou.
 Harris En= -1994.74424460172    
 JPrj=0 DoOrth=F DoCkMO=F.
 Initial guess <Sx>= 0.0000 <Sy>= 0.0000 <Sz>= 0.5000 <S**2>= 0.7500 S= 0.5000
 Leave Link  401 at Wed Jan 27 00:23:07 2021, MaxMem=  4026531840 cpu:              92.1 elap:              11.6
 (Enter /opt/ohpc/pub/libs/gaussian/g16-A.03/sandybridge/g16/l502.exe)
 Integral symmetry usage will be decided dynamically.
 UHF open shell SCF:
 Using DIIS extrapolation, IDIIS=    10.
 NGot=  4026531840 LenX=  4025112240 LenY=  4024409158
 Requested convergence on RMS density matrix=1.00D-06 within  32 cycles.
 Requested convergence on MAX density matrix=1.00D-04.
 Requested convergence on             energy=1.00D-04.
 Virtual orbitals will be shifted by   0.500 hartree.
 No special actions if energy rises.
 Dynamic level shift is on during FON iterations.

 Cycle   1  Pass 1  IDiag  1:
 FoFJK:  IHMeth= 1 ICntrl=       0 DoSepK=T KAlg= 0 I1Cent=           0 FoldK=F
 IRaf=         1 NMat=       1 IRICut=       1 DoRegI=T DoRafI=F ISym2E= 0 IDoP0=0 IntGTp=1.
 FoFCou: FMM=T IPFlag=           0 FMFlag=      100000 FMFlg1=        2001
         NFxFlg=           0 DoJE=T BraDBF=F KetDBF=F FulRan=T
         wScrn=  0.000000 ICntrl=       500 IOpCl=  0 I1Cent=           0 NGrid=           0
         NMat0=    1 NMatS0=      1 NMatT0=    0 NMatD0=    1 NMtDS0=    0 NMtDT0=    0
 Symmetry not used in FoFCou.
 FMM levels:  10  Number of levels for PrismC:   9
 E= -2022.79412816902    
 DIIS: error= 2.78D-02 at cycle   1 NSaved=   1.
 NSaved= 1 IEnMin= 1 EnMin= -2022.79412816902     IErMin= 1 ErrMin= 2.78D-02
 ErrMax= 2.78D-02  0.00D+00 EMaxC= 1.00D+00 BMatC= 2.41D+00 BMatP= 2.41D+00
 IDIUse=1 WtCom= 1.00D+00 WtEn= 0.00D+00
 Coeff-Com:  0.100D+01
 Coeff:      0.100D+01
 Gap=     0.501 Goal=   None    Shift=    0.500
 T= 1450. Gap= 0.663 NK=0 IS=  124 IE=  806 IFin=  123
          NO(<0.9)=   0  NV(>0.1)=   0    123.00e < EF      0.00e >EF  Err=0.0D+00
 Gap=     0.110 Goal=   None    Shift=    0.500
 T= 1450. Gap= 0.444 NK=0 IS=  123 IE=  806 IFin=  122
          NO(<0.9)=   0  NV(>0.1)=   0    122.00e < EF      0.00e >EF  Err=0.0D+00
 GapD=    0.110 DampG=1.000 DampE=0.500 DampFc=0.5000 IDamp=-1.
 Damping current iteration by 5.00D-01
 RMSDP=4.12D-03 MaxDP=6.68D-01              OVMax= 1.03D-01

 Cycle   2  Pass 1  IDiag  1:
 E= -2023.15527553343     Delta-E=       -0.361147364412 Rises=F Damp=T
 DIIS: error= 1.25D-02 at cycle   2 NSaved=   2.
 NSaved= 2 IEnMin= 2 EnMin= -2023.15527553343     IErMin= 2 ErrMin= 1.25D-02
 ErrMax= 1.25D-02  0.00D+00 EMaxC= 1.00D+00 BMatC= 3.73D-01 BMatP= 2.41D+00
 IDIUse=1 WtCom= 1.00D+00 WtEn= 0.00D+00
 Coeff-Com: -0.536D+00 0.154D+01
 Coeff:     -0.536D+00 0.154D+01
 Gap=     0.322 Goal=   None    Shift=    0.500
 T= 1329. Gap= 0.741 NK=0 IS=  124 IE=  806 IFin=  123
          NO(<0.9)=   0  NV(>0.1)=   0    123.00e < EF      0.00e >EF  Err=0.0D+00
 Gap=     0.113 Goal=   None    Shift=    0.500
 T= 1329. Gap= 0.585 NK=0 IS=  123 IE=  806 IFin=  122
          NO(<0.9)=   0  NV(>0.1)=   0    122.00e < EF      0.00e >EF  Err=0.0D+00
 GapD=    0.113 DampG=1.000 DampE=0.500 DampFc=0.5000 IDamp=-1.
 Damping current iteration by 5.00D-01
 RMSDP=2.32D-03 MaxDP=2.78D-01 DE=-3.61D-01 OVMax= 2.12D-02

 Cycle   3  Pass 1  IDiag  1:
 E= -2023.27428846587     Delta-E=       -0.119012932444 Rises=F Damp=T
 DIIS: error= 7.05D-03 at cycle   3 NSaved=   3.
 NSaved= 3 IEnMin= 3 EnMin= -2023.27428846587     IErMin= 3 ErrMin= 7.05D-03
 ErrMax= 7.05D-03  0.00D+00 EMaxC= 1.00D+00 BMatC= 6.96D-02 BMatP= 3.73D-01
 IDIUse=1 WtCom= 1.00D+00 WtEn= 0.00D+00
 Coeff-Com:  0.119D+00-0.109D+01 0.197D+01
 Coeff:      0.119D+00-0.109D+01 0.197D+01
 Gap=     0.258 Goal=   None    Shift=    0.500
 T= 1111. Gap= 0.757 NK=0 IS=  124 IE=  806 IFin=  123
          NO(<0.9)=   0  NV(>0.1)=   0    123.00e < EF      0.00e >EF  Err=0.0D+00
 Gap=     0.111 Goal=   None    Shift=    0.500
 T= 1111. Gap= 0.611 NK=0 IS=  123 IE=  806 IFin=  122
          NO(<0.9)=   0  NV(>0.1)=   0    122.00e < EF      0.00e >EF  Err=0.0D+00
 GapD=    0.111 DampG=1.000 DampE=1.000 DampFc=1.0000 IDamp=-1.
 RMSDP=1.54D-03 MaxDP=2.13D-01 DE=-1.19D-01 OVMax= 1.46D-02

 Cycle   4  Pass 1  IDiag  1:
 E= -2023.37391027248     Delta-E=       -0.099621806605 Rises=F Damp=F
 DIIS: error= 1.86D-03 at cycle   4 NSaved=   4.
 NSaved= 4 IEnMin= 4 EnMin= -2023.37391027248     IErMin= 4 ErrMin= 1.86D-03
 ErrMax= 1.86D-03  0.00D+00 EMaxC= 1.00D+00 BMatC= 3.95D-03 BMatP= 6.96D-02
 IDIUse=1 WtCom= 1.00D+00 WtEn= 0.00D+00
 Coeff-Com:  0.616D-01-0.661D-01-0.776D-01 0.108D+01
 Coeff:      0.616D-01-0.661D-01-0.776D-01 0.108D+01
 Gap=     0.258 Goal=   None    Shift=    0.500
 T=  635. Gap= 0.758 NK=4 IS=  124 IE=  137 IFin=  123
          NO(<0.9)=   0  NV(>0.1)=   0    123.00e < EF      0.00e >EF  Err=0.0D+00
 Gap=     0.112 Goal=   None    Shift=    0.500
 T=  635. Gap= 0.612 NK=4 IS=  123 IE=  136 IFin=  122
          NO(<0.9)=   0  NV(>0.1)=   0    122.00e < EF      0.00e >EF  Err=0.0D+00
 GapD=    0.112 DampG=1.000 DampE=1.000 DampFc=1.0000 IDamp=-1.
 RMSDP=3.03D-04 MaxDP=5.09D-02 DE=-9.96D-02 OVMax= 1.43D-02

 Cycle   5  Pass 1  IDiag  1:
 E= -2023.37586732817     Delta-E=       -0.001957055691 Rises=F Damp=F
 DIIS: error= 1.67D-03 at cycle   5 NSaved=   5.
 NSaved= 5 IEnMin= 5 EnMin= -2023.37586732817     IErMin= 5 ErrMin= 1.67D-03
 ErrMax= 1.67D-03  0.00D+00 EMaxC= 1.00D+00 BMatC= 1.08D-03 BMatP= 3.95D-03
 IDIUse=1 WtCom= 1.00D+00 WtEn= 0.00D+00
 Coeff-Com: -0.142D-01 0.236D+00-0.451D+00 0.354D-01 0.119D+01
 Coeff:     -0.142D-01 0.236D+00-0.451D+00 0.354D-01 0.119D+01
 Gap=     0.260 Goal=   None    Shift=    0.500
 T=  211. Gap= 0.760 NK=4 IS=  124 IE=  137 IFin=  123
          NO(<0.9)=   0  NV(>0.1)=   0    123.00e < EF      0.00e >EF  Err=0.0D+00
 Gap=     0.115 Goal=   None    Shift=    0.500
 T=  211. Gap= 0.615 NK=4 IS=  123 IE=  136 IFin=  122
          NO(<0.9)=   0  NV(>0.1)=   0    122.00e < EF      0.00e >EF  Err=0.0D+00
 GapD=    0.115 DampG=1.000 DampE=1.000 DampFc=1.0000 IDamp=-1.
 RMSDP=1.74D-04 MaxDP=2.99D-02 DE=-1.96D-03 OVMax= 1.37D-02

 Cycle   6  Pass 1  IDiag  1:
 E= -2023.37680092355     Delta-E=       -0.000933595377 Rises=F Damp=F
 DIIS: error= 1.48D-03 at cycle   6 NSaved=   6.
 NSaved= 6 IEnMin= 6 EnMin= -2023.37680092355     IErMin= 6 ErrMin= 1.48D-03
 ErrMax= 1.48D-03  0.00D+00 EMaxC= 1.00D+00 BMatC= 4.42D-04 BMatP= 1.08D-03
 IDIUse=1 WtCom= 1.00D+00 WtEn= 0.00D+00
 Coeff-Com: -0.152D-01 0.743D-02 0.257D-01-0.372D+00-0.426D+00 0.178D+01
 Coeff:     -0.152D-01 0.743D-02 0.257D-01-0.372D+00-0.426D+00 0.178D+01
 Gap=     0.262 Goal=   None    Shift=    0.500
 Gap=     0.117 Goal=   None    Shift=    0.500
 GapD=    0.117 DampG=1.000 DampE=1.000 DampFc=1.0000 IDamp=-1.
 RMSDP=1.17D-04 MaxDP=1.98D-02 DE=-9.34D-04 OVMax= 1.36D-02

 Cycle   7  Pass 1  IDiag  1:
 E= -2023.37737380741     Delta-E=       -0.000572883861 Rises=F Damp=F
 DIIS: error= 1.27D-03 at cycle   7 NSaved=   7.
 NSaved= 7 IEnMin= 7 EnMin= -2023.37737380741     IErMin= 7 ErrMin= 1.27D-03
 ErrMax= 1.27D-03  0.00D+00 EMaxC= 1.00D+00 BMatC= 2.29D-04 BMatP= 4.42D-04
 IDIUse=1 WtCom= 1.00D+00 WtEn= 0.00D+00
 Coeff-Com:  0.102D-02-0.711D-01 0.134D+00-0.135D+00-0.490D+00 0.825D-02
 Coeff-Com:  0.155D+01
 Coeff:      0.102D-02-0.711D-01 0.134D+00-0.135D+00-0.490D+00 0.825D-02
 Coeff:      0.155D+01
 Gap=     0.262 Goal=   None    Shift=    0.500
 Gap=     0.118 Goal=   None    Shift=    0.500
 GapD=    0.118 DampG=1.000 DampE=1.000 DampFc=1.0000 IDamp=-1.
 RMSDP=7.48D-05 MaxDP=1.14D-02 DE=-5.73D-04 OVMax= 1.19D-02

 Cycle   8  Pass 1  IDiag  1:
 E= -2023.37771313202     Delta-E=       -0.000339324612 Rises=F Damp=F
 DIIS: error= 1.04D-03 at cycle   8 NSaved=   8.
 NSaved= 8 IEnMin= 8 EnMin= -2023.37771313202     IErMin= 8 ErrMin= 1.04D-03
 ErrMax= 1.04D-03  0.00D+00 EMaxC= 1.00D+00 BMatC= 1.30D-04 BMatP= 2.29D-04
 IDIUse=1 WtCom= 1.00D+00 WtEn= 0.00D+00
 Coeff-Com:  0.666D-02-0.135D-01 0.484D-02 0.204D+00 0.768D-01-0.117D+01
 Coeff-Com: -0.506D+00 0.240D+01
 Coeff:      0.666D-02-0.135D-01 0.484D-02 0.204D+00 0.768D-01-0.117D+01
 Coeff:     -0.506D+00 0.240D+01
 Gap=     0.262 Goal=   None    Shift=    0.500
 Gap=     0.118 Goal=   None    Shift=    0.500
 GapD=    0.118 DampG=1.000 DampE=1.000 DampFc=1.0000 IDamp=-1.
 RMSDP=6.48D-05 MaxDP=7.96D-03 DE=-3.39D-04 OVMax= 1.17D-02

 Cycle   9  Pass 1  IDiag  1:
 E= -2023.37795208554     Delta-E=       -0.000238953523 Rises=F Damp=F
 DIIS: error= 8.64D-04 at cycle   9 NSaved=   9.
 NSaved= 9 IEnMin= 9 EnMin= -2023.37795208554     IErMin= 9 ErrMin= 8.64D-04
 ErrMax= 8.64D-04  0.00D+00 EMaxC= 1.00D+00 BMatC= 8.45D-05 BMatP= 1.30D-04
 IDIUse=1 WtCom= 1.00D+00 WtEn= 0.00D+00
 Coeff-Com:  0.211D-02 0.256D-01-0.578D-01 0.193D+00 0.280D+00-0.818D+00
 Coeff-Com: -0.105D+01 0.106D+01 0.136D+01
 Coeff:      0.211D-02 0.256D-01-0.578D-01 0.193D+00 0.280D+00-0.818D+00
 Coeff:     -0.105D+01 0.106D+01 0.136D+01
 Gap=     0.263 Goal=   None    Shift=    0.500
 Gap=     0.119 Goal=   None    Shift=    0.500
 RMSDP=4.16D-05 MaxDP=5.47D-03 DE=-2.39D-04 OVMax= 9.74D-03

 Cycle  10  Pass 1  IDiag  1:
 E= -2023.37810483697     Delta-E=       -0.000152751432 Rises=F Damp=F
 DIIS: error= 7.77D-04 at cycle  10 NSaved=  10.
 NSaved=10 IEnMin=10 EnMin= -2023.37810483697     IErMin=10 ErrMin= 7.77D-04
 ErrMax= 7.77D-04  0.00D+00 EMaxC= 1.00D+00 BMatC= 5.38D-05 BMatP= 8.45D-05
 IDIUse=1 WtCom= 1.00D+00 WtEn= 0.00D+00
 Coeff-Com: -0.238D-02 0.703D-02-0.977D-02-0.881D-01 0.539D-01 0.580D+00
 Coeff-Com: -0.102D+00-0.118D+01-0.186D+01 0.360D+01
 Coeff:     -0.238D-02 0.703D-02-0.977D-02-0.881D-01 0.539D-01 0.580D+00
 Coeff:     -0.102D+00-0.118D+01-0.186D+01 0.360D+01
 Gap=     0.263 Goal=   None    Shift=    0.500
 Gap=     0.119 Goal=   None    Shift=    0.500
 RMSDP=3.95D-05 MaxDP=5.04D-03 DE=-1.53D-04 OVMax= 9.56D-03

 Cycle  11  Pass 1  IDiag  1:
 E= -2023.37822413584     Delta-E=       -0.000119298868 Rises=F Damp=F
 DIIS: error= 7.43D-04 at cycle  11 NSaved=  11.
 NSaved=11 IEnMin=11 EnMin= -2023.37822413584     IErMin=11 ErrMin= 7.43D-04
 ErrMax= 7.43D-04  0.00D+00 EMaxC= 1.00D+00 BMatC= 4.48D-05 BMatP= 5.38D-05
 IDIUse=1 WtCom= 1.00D+00 WtEn= 0.00D+00
 Coeff-Com: -0.235D-02 0.142D-03 0.371D-02-0.966D-01 0.191D-01 0.572D+00
 Coeff-Com:  0.119D-01-0.978D+00-0.199D+01 0.283D+01 0.633D+00
 Coeff:     -0.235D-02 0.142D-03 0.371D-02-0.966D-01 0.191D-01 0.572D+00
 Coeff:      0.119D-01-0.978D+00-0.199D+01 0.283D+01 0.633D+00
 Gap=     0.263 Goal=   None    Shift=    0.500
 Gap=     0.119 Goal=   None    Shift=    0.500
 RMSDP=2.31D-05 MaxDP=3.23D-03 DE=-1.19D-04 OVMax= 6.94D-03

 Cycle  12  Pass 1  IDiag  1:
 E= -2023.37829941757     Delta-E=       -0.000075281725 Rises=F Damp=F
 DIIS: error= 7.04D-04 at cycle  12 NSaved=  12.
 NSaved=12 IEnMin=12 EnMin= -2023.37829941757     IErMin=12 ErrMin= 7.04D-04
 ErrMax= 7.04D-04  0.00D+00 EMaxC= 1.00D+00 BMatC= 3.14D-05 BMatP= 4.48D-05
 IDIUse=1 WtCom= 1.00D+00 WtEn= 0.00D+00
 Coeff-Com:  0.111D-02-0.139D-01 0.236D-01 0.415D-02-0.669D-01-0.114D+00
 Coeff-Com:  0.228D+00 0.595D+00-0.438D+00-0.795D+00-0.253D+01 0.411D+01
 Coeff:      0.111D-02-0.139D-01 0.236D-01 0.415D-02-0.669D-01-0.114D+00
 Coeff:      0.228D+00 0.595D+00-0.438D+00-0.795D+00-0.253D+01 0.411D+01
 Gap=     0.263 Goal=   None    Shift=    0.500
 Gap=     0.119 Goal=   None    Shift=    0.500
 RMSDP=2.61D-05 MaxDP=2.90D-03 DE=-7.53D-05 OVMax= 6.71D-03

 Cycle  13  Pass 1  IDiag  1:
 E= -2023.37836309740     Delta-E=       -0.000063679835 Rises=F Damp=F
 DIIS: error= 6.69D-04 at cycle  13 NSaved=  13.
 NSaved=13 IEnMin=13 EnMin= -2023.37836309740     IErMin=13 ErrMin= 6.69D-04
 ErrMax= 6.69D-04  0.00D+00 EMaxC= 1.00D+00 BMatC= 2.98D-05 BMatP= 3.14D-05
 IDIUse=1 WtCom= 1.00D+00 WtEn= 0.00D+00
 Coeff-Com:  0.131D-02-0.334D-02 0.276D-02 0.635D-01-0.178D-01-0.368D+00
 Coeff-Com:  0.108D-01 0.963D+00 0.525D+00-0.123D+01-0.373D+01 0.363D+01
 Coeff-Com:  0.115D+01
 Coeff:      0.131D-02-0.334D-02 0.276D-02 0.635D-01-0.178D-01-0.368D+00
 Coeff:      0.108D-01 0.963D+00 0.525D+00-0.123D+01-0.373D+01 0.363D+01
 Coeff:      0.115D+01
 Gap=     0.264 Goal=   None    Shift=    0.500
 Gap=     0.119 Goal=   None    Shift=    0.500
 RMSDP=1.80D-05 MaxDP=2.09D-03 DE=-6.37D-05 OVMax= 5.41D-03

 Cycle  14  Pass 1  IDiag  1:
 E= -2023.37840976006     Delta-E=       -0.000046662656 Rises=F Damp=F
 DIIS: error= 6.32D-04 at cycle  14 NSaved=  14.
 NSaved=14 IEnMin=14 EnMin= -2023.37840976006     IErMin=14 ErrMin= 6.32D-04
 ErrMax= 6.32D-04  0.00D+00 EMaxC= 1.00D+00 BMatC= 2.28D-05 BMatP= 2.98D-05
 IDIUse=1 WtCom= 1.00D+00 WtEn= 0.00D+00
 Coeff-Com:  0.383D-03 0.420D-02-0.101D-01 0.299D-01 0.200D-01-0.705D-01
 Coeff-Com: -0.154D+00 0.108D+00 0.416D+00 0.559D+00-0.227D+01 0.102D+01
 Coeff-Com: -0.159D+01 0.294D+01
 Coeff:      0.383D-03 0.420D-02-0.101D-01 0.299D-01 0.200D-01-0.705D-01
 Coeff:     -0.154D+00 0.108D+00 0.416D+00 0.559D+00-0.227D+01 0.102D+01
 Coeff:     -0.159D+01 0.294D+01
 Gap=     0.264 Goal=   None    Shift=    0.500
 Gap=     0.119 Goal=   None    Shift=    0.500
 RMSDP=1.52D-05 MaxDP=1.64D-03 DE=-4.67D-05 OVMax= 5.22D-03

 Cycle  15  Pass 1  IDiag  1:
 E= -2023.37844655154     Delta-E=       -0.000036791487 Rises=F Damp=F
 DIIS: error= 5.97D-04 at cycle  15 NSaved=  15.
 NSaved=15 IEnMin=15 EnMin= -2023.37844655154     IErMin=15 ErrMin= 5.97D-04
 ErrMax= 5.97D-04  0.00D+00 EMaxC= 1.00D+00 BMatC= 1.81D-05 BMatP= 2.28D-05
 IDIUse=1 WtCom= 1.00D+00 WtEn= 0.00D+00
 Coeff-Com: -0.225D-03 0.236D-03-0.915D-03-0.229D-01 0.158D-01 0.187D+00
 Coeff-Com: -0.119D+00-0.414D+00-0.109D+00 0.133D+01-0.503D+00-0.233D+00
 Coeff-Com: -0.248D+01 0.155D+01 0.180D+01
 Coeff:     -0.225D-03 0.236D-03-0.915D-03-0.229D-01 0.158D-01 0.187D+00
 Coeff:     -0.119D+00-0.414D+00-0.109D+00 0.133D+01-0.503D+00-0.233D+00
 Coeff:     -0.248D+01 0.155D+01 0.180D+01
 Gap=     0.264 Goal=   None    Shift=    0.500
 Gap=     0.119 Goal=   None    Shift=    0.500
 RMSDP=1.22D-05 MaxDP=1.18D-03 DE=-3.68D-05 OVMax= 4.87D-03

 Cycle  16  Pass 1  IDiag  1:
 E= -2023.37847592639     Delta-E=       -0.000029374842 Rises=F Damp=F
 DIIS: error= 5.62D-04 at cycle  16 NSaved=  16.
 NSaved=16 IEnMin=16 EnMin= -2023.37847592639     IErMin=16 ErrMin= 5.62D-04
 ErrMax= 5.62D-04  0.00D+00 EMaxC= 1.00D+00 BMatC= 1.42D-05 BMatP= 1.81D-05
 IDIUse=1 WtCom= 1.00D+00 WtEn= 0.00D+00
 Coeff-Com: -0.267D-03-0.343D-02 0.679D-02-0.339D-01 0.634D-02 0.143D+00
 Coeff-Com: -0.100D-01-0.213D+00-0.342D+00 0.557D+00 0.317D+00 0.181D+00
 Coeff-Com: -0.851D+00-0.105D+01-0.597D+00 0.289D+01
 Coeff:     -0.267D-03-0.343D-02 0.679D-02-0.339D-01 0.634D-02 0.143D+00
 Coeff:     -0.100D-01-0.213D+00-0.342D+00 0.557D+00 0.317D+00 0.181D+00
 Coeff:     -0.851D+00-0.105D+01-0.597D+00 0.289D+01
 Gap=     0.264 Goal=   None    Shift=    0.500
 Gap=     0.119 Goal=   None    Shift=    0.500
 RMSDP=1.15D-05 MaxDP=9.94D-04 DE=-2.94D-05 OVMax= 4.79D-03

 Cycle  17  Pass 1  IDiag  1:
 E= -2023.37850140774     Delta-E=       -0.000025481353 Rises=F Damp=F
 DIIS: error= 5.30D-04 at cycle  17 NSaved=  17.
 NSaved=17 IEnMin=17 EnMin= -2023.37850140774     IErMin=17 ErrMin= 5.30D-04
 ErrMax= 5.30D-04  0.00D+00 EMaxC= 1.00D+00 BMatC= 1.20D-05 BMatP= 1.42D-05
 IDIUse=1 WtCom= 1.00D+00 WtEn= 0.00D+00
 Coeff-Com:  0.395D-03-0.130D-02 0.136D-02 0.130D-01-0.287D-02-0.149D+00
 Coeff-Com:  0.501D-01 0.466D+00 0.385D-01-0.901D+00-0.967D+00 0.192D+01
 Coeff-Com:  0.179D+01-0.166D+01-0.404D+01 0.169D+01 0.275D+01
 Coeff:      0.395D-03-0.130D-02 0.136D-02 0.130D-01-0.287D-02-0.149D+00
 Coeff:      0.501D-01 0.466D+00 0.385D-01-0.901D+00-0.967D+00 0.192D+01
 Coeff:      0.179D+01-0.166D+01-0.404D+01 0.169D+01 0.275D+01
 Gap=     0.264 Goal=   None    Shift=    0.500
 Gap=     0.119 Goal=   None    Shift=    0.500
 RMSDP=1.23D-05 MaxDP=1.22D-03 DE=-2.55D-05 OVMax= 4.84D-03

 Cycle  18  Pass 1  IDiag  1:
 E= -2023.37852477653     Delta-E=       -0.000023368792 Rises=F Damp=F
 DIIS: error= 4.98D-04 at cycle  18 NSaved=  18.
 NSaved=18 IEnMin=18 EnMin= -2023.37852477653     IErMin=18 ErrMin= 4.98D-04
 ErrMax= 4.98D-04  0.00D+00 EMaxC= 1.00D+00 BMatC= 1.08D-05 BMatP= 1.20D-05
 IDIUse=1 WtCom= 1.00D+00 WtEn= 0.00D+00
 Coeff-Com:  0.490D-03-0.573D-03-0.407D-03 0.184D-01-0.499D-02-0.148D+00
 Coeff-Com:  0.303D-01 0.447D+00 0.118D+00-0.771D+00-0.135D+01 0.199D+01
 Coeff-Com:  0.160D+01-0.902D+00-0.376D+01 0.101D+01 0.181D+01 0.911D+00
 Coeff:      0.490D-03-0.573D-03-0.407D-03 0.184D-01-0.499D-02-0.148D+00
 Coeff:      0.303D-01 0.447D+00 0.118D+00-0.771D+00-0.135D+01 0.199D+01
 Coeff:      0.160D+01-0.902D+00-0.376D+01 0.101D+01 0.181D+01 0.911D+00
 Gap=     0.264 Goal=   None    Shift=    0.500
 Gap=     0.120 Goal=   None    Shift=    0.500
 RMSDP=8.75D-06 MaxDP=8.65D-04 DE=-2.34D-05 OVMax= 4.10D-03

 Cycle  19  Pass 1  IDiag  1:
 E= -2023.37854345489     Delta-E=       -0.000018678360 Rises=F Damp=F
 DIIS: error= 4.67D-04 at cycle  19 NSaved=  19.
 NSaved=19 IEnMin=19 EnMin= -2023.37854345489     IErMin=19 ErrMin= 4.67D-04
 ErrMax= 4.67D-04  0.00D+00 EMaxC= 1.00D+00 BMatC= 8.56D-06 BMatP= 1.08D-05
 IDIUse=1 WtCom= 1.00D+00 WtEn= 0.00D+00
 Coeff-Com: -0.643D-05 0.213D-02-0.394D-02 0.125D-01-0.719D-02-0.256D-01
 Coeff-Com:  0.686D-02 0.376D-01 0.107D+00-0.690D-01-0.415D+00 0.235D+00
 Coeff-Com: -0.845D-02 0.884D+00-0.960D-01-0.879D+00-0.107D+01-0.302D+01
 Coeff-Com:  0.531D+01
 Coeff:     -0.643D-05 0.213D-02-0.394D-02 0.125D-01-0.719D-02-0.256D-01
 Coeff:      0.686D-02 0.376D-01 0.107D+00-0.690D-01-0.415D+00 0.235D+00
 Coeff:     -0.845D-02 0.884D+00-0.960D-01-0.879D+00-0.107D+01-0.302D+01
 Coeff:      0.531D+01
 Gap=     0.265 Goal=   None    Shift=    0.500
 Gap=     0.119 Goal=   None    Shift=    0.500
 RMSDP=1.79D-05 MaxDP=1.96D-03 DE=-1.87D-05 OVMax= 5.44D-03

 Cycle  20  Pass 1  IDiag  1:
 E= -2023.37856555229     Delta-E=       -0.000022097403 Rises=F Damp=F
 DIIS: error= 4.41D-04 at cycle  20 NSaved=  20.
 NSaved=20 IEnMin=20 EnMin= -2023.37856555229     IErMin=20 ErrMin= 4.41D-04
 ErrMax= 4.41D-04  0.00D+00 EMaxC= 1.00D+00 BMatC= 1.13D-05 BMatP= 8.56D-06
 IDIUse=1 WtCom= 1.00D+00 WtEn= 0.00D+00
 Coeff-Com: -0.313D-03 0.174D-02-0.265D-02-0.861D-02 0.144D-02 0.105D+00
 Coeff-Com: -0.295D-01-0.271D+00-0.264D-01 0.510D+00 0.328D+00-0.839D+00
 Coeff-Com: -0.105D+01 0.129D+01 0.183D+01-0.474D+00-0.165D+01-0.695D+01
 Coeff-Com:  0.722D+01 0.101D+01
 Coeff:     -0.313D-03 0.174D-02-0.265D-02-0.861D-02 0.144D-02 0.105D+00
 Coeff:     -0.295D-01-0.271D+00-0.264D-01 0.510D+00 0.328D+00-0.839D+00
 Coeff:     -0.105D+01 0.129D+01 0.183D+01-0.474D+00-0.165D+01-0.695D+01
 Coeff:      0.722D+01 0.101D+01
 Gap=     0.265 Goal=   None    Shift=    0.500
 Gap=     0.120 Goal=   None    Shift=    0.500
 RMSDP=1.57D-05 MaxDP=1.74D-03 DE=-2.21D-05 OVMax= 5.34D-03

 Cycle  21  Pass 1  IDiag  1:
 E= -2023.37858585180     Delta-E=       -0.000020299509 Rises=F Damp=F
 DIIS: error= 4.10D-04 at cycle  21 NSaved=  20.
 NSaved=20 IEnMin=20 EnMin= -2023.37858585180     IErMin=20 ErrMin= 4.10D-04
 ErrMax= 4.10D-04  0.00D+00 EMaxC= 1.00D+00 BMatC= 1.23D-05 BMatP= 8.56D-06
 IDIUse=1 WtCom= 1.00D+00 WtEn= 0.00D+00
 Coeff-Com: -0.140D-03-0.249D-03-0.112D-01 0.107D-01 0.538D-01-0.288D-01
 Coeff-Com: -0.845D-01-0.876D-01 0.139D+00 0.490D+00-0.481D+00-0.257D+00
 Coeff-Com: -0.123D+00 0.335D+00 0.137D+01 0.316D+00-0.804D+01 0.668D+01
 Coeff-Com: -0.151D+01 0.222D+01
 Coeff:     -0.140D-03-0.249D-03-0.112D-01 0.107D-01 0.538D-01-0.288D-01
 Coeff:     -0.845D-01-0.876D-01 0.139D+00 0.490D+00-0.481D+00-0.257D+00
 Coeff:     -0.123D+00 0.335D+00 0.137D+01 0.316D+00-0.804D+01 0.668D+01
 Coeff:     -0.151D+01 0.222D+01
 Gap=     0.266 Goal=   None    Shift=    0.500
 Gap=     0.120 Goal=   None    Shift=    0.500
 RMSDP=1.32D-05 MaxDP=1.37D-03 DE=-2.03D-05 OVMax= 4.94D-03

 Cycle  22  Pass 1  IDiag  1:
 E= -2023.37860358715     Delta-E=       -0.000017735349 Rises=F Damp=F
 DIIS: error= 3.80D-04 at cycle  22 NSaved=  20.
 NSaved=20 IEnMin=20 EnMin= -2023.37860358715     IErMin=20 ErrMin= 3.80D-04
 ErrMax= 3.80D-04  0.00D+00 EMaxC= 1.00D+00 BMatC= 1.16D-05 BMatP= 8.56D-06
 IDIUse=1 WtCom= 1.00D+00 WtEn= 0.00D+00
 Coeff-Com: -0.363D-03-0.579D-02 0.142D-02 0.751D-02 0.297D-02 0.604D-01
 Coeff-Com: -0.108D+00-0.847D-01 0.746D-01 0.218D+00 0.363D+00-0.611D+00
 Coeff-Com: -0.106D+01 0.166D+01 0.107D+01-0.533D+01 0.453D+01-0.196D+01
 Coeff-Com: -0.321D+00 0.249D+01
 Coeff:     -0.363D-03-0.579D-02 0.142D-02 0.751D-02 0.297D-02 0.604D-01
 Coeff:     -0.108D+00-0.847D-01 0.746D-01 0.218D+00 0.363D+00-0.611D+00
 Coeff:     -0.106D+01 0.166D+01 0.107D+01-0.533D+01 0.453D+01-0.196D+01
 Coeff:     -0.321D+00 0.249D+01
 Gap=     0.266 Goal=   None    Shift=    0.500
 Gap=     0.120 Goal=   None    Shift=    0.500
 RMSDP=1.23D-05 MaxDP=1.17D-03 DE=-1.77D-05 OVMax= 4.62D-03

 Cycle  23  Pass 1  IDiag  1:
 E= -2023.37861901207     Delta-E=       -0.000015424923 Rises=F Damp=F
 DIIS: error= 3.52D-04 at cycle  23 NSaved=  20.
 NSaved=20 IEnMin=20 EnMin= -2023.37861901207     IErMin=20 ErrMin= 3.52D-04
 ErrMax= 3.52D-04  0.00D+00 EMaxC= 1.00D+00 BMatC= 1.06D-05 BMatP= 8.56D-06
 IDIUse=1 WtCom= 1.00D+00 WtEn= 0.00D+00
 Coeff-Com:  0.359D-02-0.208D-01 0.291D-02 0.524D-01 0.120D-01-0.581D-01
 Coeff-Com:  0.494D-02-0.353D+00 0.463D+00 0.115D+00 0.252D+00-0.748D+00
 Coeff-Com:  0.937D-01-0.270D-01-0.139D+01 0.249D+01 0.311D+00-0.361D+01
 Coeff-Com: -0.130D+00 0.354D+01
 Coeff:      0.359D-02-0.208D-01 0.291D-02 0.524D-01 0.120D-01-0.581D-01
 Coeff:      0.494D-02-0.353D+00 0.463D+00 0.115D+00 0.252D+00-0.748D+00
 Coeff:      0.937D-01-0.270D-01-0.139D+01 0.249D+01 0.311D+00-0.361D+01
 Coeff:     -0.130D+00 0.354D+01
 Gap=     0.266 Goal=   None    Shift=    0.500
 Gap=     0.120 Goal=   None    Shift=    0.500
 RMSDP=1.50D-05 MaxDP=1.39D-03 DE=-1.54D-05 OVMax= 4.82D-03

 Cycle  24  Pass 1  IDiag  1:
 E= -2023.37863316341     Delta-E=       -0.000014151333 Rises=F Damp=F
 DIIS: error= 3.27D-04 at cycle  24 NSaved=  20.
 NSaved=20 IEnMin=20 EnMin= -2023.37863316341     IErMin=20 ErrMin= 3.27D-04
 ErrMax= 3.27D-04  0.00D+00 EMaxC= 1.00D+00 BMatC= 1.21D-05 BMatP= 8.56D-06
 IDIUse=1 WtCom= 1.00D+00 WtEn= 0.00D+00
 Coeff-Com: -0.207D-01 0.491D-01 0.420D-01-0.144D+00-0.229D-01 0.250D+00
 Coeff-Com: -0.211D+00 0.299D-01-0.432D+00 0.958D+00 0.201D+00-0.501D+00
 Coeff-Com: -0.918D+00-0.218D+01 0.377D+01 0.125D+01-0.286D+01-0.274D+01
 Coeff-Com:  0.291D+01 0.157D+01
 Coeff:     -0.207D-01 0.491D-01 0.420D-01-0.144D+00-0.229D-01 0.250D+00
 Coeff:     -0.211D+00 0.299D-01-0.432D+00 0.958D+00 0.201D+00-0.501D+00
 Coeff:     -0.918D+00-0.218D+01 0.377D+01 0.125D+01-0.286D+01-0.274D+01
 Coeff:      0.291D+01 0.157D+01
 Gap=     0.266 Goal=   None    Shift=    0.500
 Gap=     0.120 Goal=   None    Shift=    0.500
 RMSDP=1.23D-05 MaxDP=1.14D-03 DE=-1.42D-05 OVMax= 4.38D-03

 Cycle  25  Pass 1  IDiag  1:
 E= -2023.37864559491     Delta-E=       -0.000012431505 Rises=F Damp=F
 DIIS: error= 3.03D-04 at cycle  25 NSaved=  20.
 NSaved=20 IEnMin=20 EnMin= -2023.37864559491     IErMin=20 ErrMin= 3.03D-04
 ErrMax= 3.03D-04  0.00D+00 EMaxC= 1.00D+00 BMatC= 1.15D-05 BMatP= 8.56D-06
 IDIUse=1 WtCom= 1.00D+00 WtEn= 0.00D+00
 Coeff-Com:  0.254D-01-0.919D-02-0.111D+00 0.101D+00 0.794D-01 0.172D+00
 Coeff-Com: -0.501D+00-0.567D+00 0.111D+01 0.111D+01-0.483D+00-0.126D+01
 Coeff-Com: -0.523D+01 0.625D+01 0.110D+01 0.413D+00-0.386D+01 0.136D+00
 Coeff-Com: -0.155D+01 0.406D+01
 Coeff:      0.254D-01-0.919D-02-0.111D+00 0.101D+00 0.794D-01 0.172D+00
 Coeff:     -0.501D+00-0.567D+00 0.111D+01 0.111D+01-0.483D+00-0.126D+01
 Coeff:     -0.523D+01 0.625D+01 0.110D+01 0.413D+00-0.386D+01 0.136D+00
 Coeff:     -0.155D+01 0.406D+01
 Gap=     0.267 Goal=   None    Shift=    0.500
 Gap=     0.120 Goal=   None    Shift=    0.500
 RMSDP=1.60D-05 MaxDP=1.50D-03 DE=-1.24D-05 OVMax= 4.63D-03

 Cycle  26  Pass 1  IDiag  1:
 E= -2023.37865709031     Delta-E=       -0.000011495401 Rises=F Damp=F
 DIIS: error= 2.80D-04 at cycle  26 NSaved=  20.
 NSaved=20 IEnMin=20 EnMin= -2023.37865709031     IErMin=20 ErrMin= 2.80D-04
 ErrMax= 2.80D-04  0.00D+00 EMaxC= 1.00D+00 BMatC= 1.34D-05 BMatP= 8.56D-06
 IDIUse=1 WtCom= 1.00D+00 WtEn= 0.00D+00
 Coeff-Com:  0.339D-02-0.239D-01 0.962D-01-0.987D-01 0.150D+00-0.347D+00
 Coeff-Com: -0.241D+00 0.779D+00 0.573D+00-0.413D-01-0.766D+00-0.567D+01
 Coeff-Com:  0.639D+01 0.435D+00 0.852D+00-0.278D+01-0.332D+00-0.253D+01
 Coeff-Com:  0.397D+01 0.590D+00
 Coeff:      0.339D-02-0.239D-01 0.962D-01-0.987D-01 0.150D+00-0.347D+00
 Coeff:     -0.241D+00 0.779D+00 0.573D+00-0.413D-01-0.766D+00-0.567D+01
 Coeff:      0.639D+01 0.435D+00 0.852D+00-0.278D+01-0.332D+00-0.253D+01
 Coeff:      0.397D+01 0.590D+00
 Gap=     0.267 Goal=   None    Shift=    0.500
 Gap=     0.120 Goal=   None    Shift=    0.500
 RMSDP=1.05D-05 MaxDP=9.98D-04 DE=-1.15D-05 OVMax= 3.89D-03

 Cycle  27  Pass 1  IDiag  1:
 E= -2023.37866724237     Delta-E=       -0.000010152058 Rises=F Damp=F
 DIIS: error= 2.63D-04 at cycle  27 NSaved=  20.
 NSaved=20 IEnMin=20 EnMin= -2023.37866724237     IErMin=20 ErrMin= 2.63D-04
 ErrMax= 2.63D-04  0.00D+00 EMaxC= 1.00D+00 BMatC= 1.08D-05 BMatP= 8.56D-06
 IDIUse=1 WtCom= 1.00D+00 WtEn= 0.00D+00
 Coeff-Com:  0.153D-01-0.427D-01-0.307D-01 0.283D+00-0.293D+00-0.200D+00
 Coeff-Com:  0.230D+00 0.565D+00-0.346D+00-0.195D+00-0.208D+01 0.207D+01
 Coeff-Com:  0.784D+00-0.652D+00-0.418D-01 0.401D+00-0.137D+01 0.136D+01
 Coeff-Com: -0.535D+01 0.590D+01
 Coeff:      0.153D-01-0.427D-01-0.307D-01 0.283D+00-0.293D+00-0.200D+00
 Coeff:      0.230D+00 0.565D+00-0.346D+00-0.195D+00-0.208D+01 0.207D+01
 Coeff:      0.784D+00-0.652D+00-0.418D-01 0.401D+00-0.137D+01 0.136D+01
 Coeff:     -0.535D+01 0.590D+01
 Gap=     0.268 Goal=   None    Shift=    0.500
 Gap=     0.120 Goal=   None    Shift=    0.500
 RMSDP=1.75D-05 MaxDP=1.75D-03 DE=-1.02D-05 OVMax= 4.56D-03

 Cycle  28  Pass 1  IDiag  1:
 E= -2023.37867641967     Delta-E=       -0.000009177304 Rises=F Damp=F
 DIIS: error= 2.75D-04 at cycle  28 NSaved=  20.
 NSaved=20 IEnMin=20 EnMin= -2023.37867641967     IErMin=19 ErrMin= 2.63D-04
 ErrMax= 2.75D-04  0.00D+00 EMaxC= 1.00D+00 BMatC= 1.43D-05 BMatP= 8.56D-06
 IDIUse=1 WtCom= 1.00D+00 WtEn= 0.00D+00
 Coeff-Com: -0.447D-01 0.344D-01 0.192D+00-0.203D+00-0.244D+00 0.200D+00
 Coeff-Com:  0.549D+00-0.318D+00-0.176D+00-0.157D+01 0.146D+01 0.924D+00
 Coeff-Com: -0.962D+00-0.160D+00 0.790D+00-0.352D+00 0.980D+00-0.700D+01
 Coeff-Com:  0.620D+01 0.702D+00
 Coeff:     -0.447D-01 0.344D-01 0.192D+00-0.203D+00-0.244D+00 0.200D+00
 Coeff:      0.549D+00-0.318D+00-0.176D+00-0.157D+01 0.146D+01 0.924D+00
 Coeff:     -0.962D+00-0.160D+00 0.790D+00-0.352D+00 0.980D+00-0.700D+01
 Coeff:      0.620D+01 0.702D+00
 Gap=     0.268 Goal=   None    Shift=    0.500
 Gap=     0.120 Goal=   None    Shift=    0.500
 RMSDP=1.19D-05 MaxDP=1.20D-03 DE=-9.18D-06 OVMax= 3.90D-03

 Cycle  29  Pass 1  IDiag  1:
 E= -2023.37868503088     Delta-E=       -0.000008611210 Rises=F Damp=F
 DIIS: error= 2.62D-04 at cycle  29 NSaved=  20.
 NSaved=20 IEnMin=20 EnMin= -2023.37868503088     IErMin=20 ErrMin= 2.62D-04
 ErrMax= 2.62D-04  0.00D+00 EMaxC= 1.00D+00 BMatC= 1.24D-05 BMatP= 8.56D-06
 IDIUse=1 WtCom= 1.00D+00 WtEn= 0.00D+00
 Coeff-Com:  0.339D-01-0.928D-01 0.154D-01-0.201D+00 0.402D+00 0.512D+00
 Coeff-Com: -0.570D+00-0.504D+00-0.962D+00 0.134D+01 0.138D+01-0.111D+01
 Coeff-Com: -0.169D+01 0.103D+01 0.890D+00 0.106D+01-0.469D+01 0.350D+01
 Coeff-Com: -0.278D+01 0.345D+01
 Coeff:      0.339D-01-0.928D-01 0.154D-01-0.201D+00 0.402D+00 0.512D+00
 Coeff:     -0.570D+00-0.504D+00-0.962D+00 0.134D+01 0.138D+01-0.111D+01
 Coeff:     -0.169D+01 0.103D+01 0.890D+00 0.106D+01-0.469D+01 0.350D+01
 Coeff:     -0.278D+01 0.345D+01
 Gap=     0.268 Goal=   None    Shift=    0.500
 Gap=     0.120 Goal=   None    Shift=    0.500
 RMSDP=1.23D-05 MaxDP=1.20D-03 DE=-8.61D-06 OVMax= 3.72D-03

 Cycle  30  Pass 1  IDiag  1:
 E= -2023.37869243192     Delta-E=       -0.000007401039 Rises=F Damp=F
 DIIS: error= 2.53D-04 at cycle  30 NSaved=  20.
 NSaved=20 IEnMin=20 EnMin= -2023.37869243192     IErMin=20 ErrMin= 2.53D-04
 ErrMax= 2.53D-04  0.00D+00 EMaxC= 1.00D+00 BMatC= 1.16D-05 BMatP= 8.56D-06
 IDIUse=1 WtCom= 1.00D+00 WtEn= 0.00D+00
 Coeff-Com:  0.144D+00-0.313D+00-0.265D+00 0.667D+00 0.738D+00-0.654D+00
 Coeff-Com: -0.754D+00-0.228D+01 0.293D+01 0.127D+01-0.351D+00-0.238D+01
 Coeff-Com:  0.434D+00-0.510D+00 0.238D+01-0.373D+00 0.629D+00-0.438D+01
 Coeff-Com:  0.875D+00 0.319D+01
 Coeff:      0.144D+00-0.313D+00-0.265D+00 0.667D+00 0.738D+00-0.654D+00
 Coeff:     -0.754D+00-0.228D+01 0.293D+01 0.127D+01-0.351D+00-0.238D+01
 Coeff:      0.434D+00-0.510D+00 0.238D+01-0.373D+00 0.629D+00-0.438D+01
 Coeff:      0.875D+00 0.319D+01
 Gap=     0.268 Goal=   None    Shift=    0.500
 Gap=     0.120 Goal=   None    Shift=    0.500
 RMSDP=1.25D-05 MaxDP=1.28D-03 DE=-7.40D-06 OVMax= 3.58D-03

 Cycle  31  Pass 1  IDiag  1:
 E= -2023.37869893077     Delta-E=       -0.000006498842 Rises=F Damp=F
 DIIS: error= 2.46D-04 at cycle  31 NSaved=  20.
 NSaved=20 IEnMin=20 EnMin= -2023.37869893077     IErMin=20 ErrMin= 2.46D-04
 ErrMax= 2.46D-04  0.00D+00 EMaxC= 1.00D+00 BMatC= 1.14D-05 BMatP= 8.56D-06
 IDIUse=1 WtCom= 1.00D+00 WtEn= 0.00D+00
 Coeff-Com: -0.171D+00-0.126D+00 0.650D+00 0.454D+00-0.623D+00-0.472D+00
 Coeff-Com: -0.197D+01 0.255D+01 0.896D+00-0.499D+00-0.150D+01 0.344D+00
 Coeff-Com: -0.117D+01 0.275D+01-0.635D+00 0.104D+01-0.336D+01-0.301D+00
 Coeff-Com:  0.120D+01 0.193D+01
 Coeff:     -0.171D+00-0.126D+00 0.650D+00 0.454D+00-0.623D+00-0.472D+00
 Coeff:     -0.197D+01 0.255D+01 0.896D+00-0.499D+00-0.150D+01 0.344D+00
 Coeff:     -0.117D+01 0.275D+01-0.635D+00 0.104D+01-0.336D+01-0.301D+00
 Coeff:      0.120D+01 0.193D+01
 Gap=     0.268 Goal=   None    Shift=    0.500
 Gap=     0.120 Goal=   None    Shift=    0.500
 RMSDP=9.48D-06 MaxDP=1.15D-03 DE=-6.50D-06 OVMax= 3.02D-03

 Cycle  32  Pass 1  IDiag  1:
 E= -2023.37870479338     Delta-E=       -0.000005862616 Rises=F Damp=F
 DIIS: error= 2.30D-04 at cycle  32 NSaved=  20.
 NSaved=20 IEnMin=20 EnMin= -2023.37870479338     IErMin=20 ErrMin= 2.30D-04
 ErrMax= 2.30D-04  0.00D+00 EMaxC= 1.00D+00 BMatC= 9.12D-06 BMatP= 8.56D-06
 IDIUse=1 WtCom= 1.00D+00 WtEn= 0.00D+00
 Coeff-Com:  0.680D-01-0.285D-01 0.116D+00-0.602D+00-0.624D-01 0.820D+00
 Coeff-Com: -0.427D+00 0.879D+00-0.144D+01 0.609D+00 0.471D+00-0.976D+00
 Coeff-Com:  0.161D+01-0.509D+01 0.475D+01 0.203D+01-0.881D+00-0.431D+01
 Coeff-Com: -0.112D+01 0.457D+01
 Coeff:      0.680D-01-0.285D-01 0.116D+00-0.602D+00-0.624D-01 0.820D+00
 Coeff:     -0.427D+00 0.879D+00-0.144D+01 0.609D+00 0.471D+00-0.976D+00
 Coeff:      0.161D+01-0.509D+01 0.475D+01 0.203D+01-0.881D+00-0.431D+01
 Coeff:     -0.112D+01 0.457D+01
 Gap=     0.269 Goal=   None    Shift=    0.500
 Gap=     0.120 Goal=   None    Shift=    0.500
 RMSDP=1.00D-05 MaxDP=1.22D-03 DE=-5.86D-06 OVMax= 2.87D-03

 >>>>>>>>>> Convergence criterion not met.
 SCF Done:  E(ULC-wHPBE) =  -2023.37870479     A.U. after   33 cycles
            NFock= 32  Conv=0.10D-04     -V/T= 2.0034
 <Sx>= 0.0000 <Sy>= 0.0000 <Sz>= 0.5000 <S**2>= 0.7632 S= 0.5066
 <L.S>= 0.000000000000E+00
 KE= 2.016429152295D+03 PE=-1.122571749341D+04 EE= 3.906962531784D+03
 Annihilation of the first spin contaminant:
 S**2 before annihilation     0.7632,   after     0.7501
 Leave Link  502 at Wed Jan 27 01:10:15 2021, MaxMem=  4026531840 cpu:           22351.5 elap:            2828.2
 (Enter /opt/ohpc/pub/libs/gaussian/g16-A.03/sandybridge/g16/l508.exe)
 Integral symmetry usage will be decided dynamically.
 Tight linear equation convergence will be used.
 ULC-wHPBE wavefunction.
 Quadratic Convergence SCF Method.
 Line search only if initial step raises energy.
 FoFJK:  IHMeth= 1 ICntrl=       0 DoSepK=T KAlg= 0 I1Cent=           0 FoldK=F
 IRaf=         1 NMat=       1 IRICut=       1 DoRegI=T DoRafI=F ISym2E= 1 IDoP0=0 IntGTp=1.
 FoFCou: FMM=T IPFlag=           0 FMFlag=      100000 FMFlg1=        2001
         NFxFlg=           0 DoJE=T BraDBF=F KetDBF=F FulRan=T
         wScrn=  0.000000 ICntrl=       500 IOpCl=  0 I1Cent=           0 NGrid=           0
         NMat0=    1 NMatS0=      1 NMatT0=    0 NMatD0=    1 NMtDS0=    0 NMtDT0=    0
 Petite list used in FoFCou.
 FMM levels:  10  Number of levels for PrismC:   9
 Iteration   1 EE= -2023.37870975738                                    Grad=2.025D-03 Max rot=    0.0340 deg.
 QCNR:  CnvC1=2.02D-08 CnvC2=2.02D-07
 LinEq1:  Iter=  0 NonCon=     1 RMS=1.72D-05 Max=4.94D-03 NDo=     1
 AX will form     1 AO Fock derivatives at one time.
 LinEq1:  Iter=  1 NonCon=     1 RMS=9.87D-06 Max=1.79D-03 NDo=     1
 LinEq1:  Iter=  2 NonCon=     1 RMS=4.84D-06 Max=6.42D-04 NDo=     1
 LinEq1:  Iter=  3 NonCon=     1 RMS=4.10D-06 Max=6.13D-04 NDo=     1
 LinEq1:  Iter=  4 NonCon=     1 RMS=1.98D-06 Max=2.77D-04 NDo=     1
 LinEq1:  Iter=  5 NonCon=     1 RMS=1.25D-06 Max=1.06D-04 NDo=     1
 LinEq1:  Iter=  6 NonCon=     1 RMS=7.21D-07 Max=6.53D-05 NDo=     1
 LinEq1:  Iter=  7 NonCon=     1 RMS=5.10D-07 Max=4.36D-05 NDo=     1
 LinEq1:  Iter=  8 NonCon=     1 RMS=3.39D-07 Max=4.02D-05 NDo=     1
 LinEq1:  Iter=  9 NonCon=     1 RMS=2.11D-07 Max=2.82D-05 NDo=     1
 LinEq1:  Iter= 10 NonCon=     1 RMS=1.15D-07 Max=1.39D-05 NDo=     1
 LinEq1:  Iter= 11 NonCon=     1 RMS=7.49D-08 Max=9.87D-06 NDo=     1
 LinEq1:  Iter= 12 NonCon=     1 RMS=4.54D-08 Max=3.59D-06 NDo=     1
 LinEq1:  Iter= 13 NonCon=     1 RMS=2.52D-08 Max=2.59D-06 NDo=     1
 LinEq1:  Iter= 14 NonCon=     1 RMS=1.66D-08 Max=1.58D-06 NDo=     1
 LinEq1:  Iter= 15 NonCon=     1 RMS=1.01D-08 Max=1.31D-06 NDo=     1
 LinEq1:  Iter= 16 NonCon=     1 RMS=6.37D-09 Max=6.83D-07 NDo=     1
 LinEq1:  Iter= 17 NonCon=     1 RMS=4.28D-09 Max=5.21D-07 NDo=     1
 LinEq1:  Iter= 18 NonCon=     1 RMS=2.38D-09 Max=2.07D-07 NDo=     1
 LinEq1:  Iter= 19 NonCon=     0 RMS=1.48D-09 Max=1.37D-07 NDo=     1
 Linear equations converged to 2.025D-08 2.025D-07 after    19 iterations.
 Angle between quadratic step and gradient=  73.75 degrees.
     ILin= 1 X=0.000D+00 Y=-2.023378709757D+03 DE= 0.00D+00 F= -7.74D-05
     ILin= 2 X=1.000D+00 Y=-2.023378750677D+03 DE=-4.09D-05
 Iteration   2 EE= -2023.37875067705     Delta-E=       -0.000040919666 Grad=6.897D-04 Max rot=    0.0084 deg.
 QCNR:  CnvC1=6.90D-09 CnvC2=6.90D-08
 LinEq1:  Iter=  0 NonCon=     1 RMS=3.59D-06 Max=1.04D-03 NDo=     1
 LinEq1:  Iter=  1 NonCon=     1 RMS=1.93D-06 Max=3.68D-04 NDo=     1
 LinEq1:  Iter=  2 NonCon=     1 RMS=1.18D-06 Max=1.17D-04 NDo=     1
 LinEq1:  Iter=  3 NonCon=     1 RMS=8.34D-07 Max=1.05D-04 NDo=     1
 LinEq1:  Iter=  4 NonCon=     1 RMS=4.59D-07 Max=5.24D-05 NDo=     1
 LinEq1:  Iter=  5 NonCon=     1 RMS=3.25D-07 Max=3.90D-05 NDo=     1
 LinEq1:  Iter=  6 NonCon=     1 RMS=1.94D-07 Max=2.19D-05 NDo=     1
 LinEq1:  Iter=  7 NonCon=     1 RMS=1.31D-07 Max=1.28D-05 NDo=     1
 LinEq1:  Iter=  8 NonCon=     1 RMS=7.52D-08 Max=6.70D-06 NDo=     1
 LinEq1:  Iter=  9 NonCon=     1 RMS=4.13D-08 Max=6.07D-06 NDo=     1
 LinEq1:  Iter= 10 NonCon=     1 RMS=2.69D-08 Max=3.63D-06 NDo=     1
 LinEq1:  Iter= 11 NonCon=     1 RMS=1.46D-08 Max=2.13D-06 NDo=     1
 LinEq1:  Iter= 12 NonCon=     1 RMS=9.32D-09 Max=7.88D-07 NDo=     1
 LinEq1:  Iter= 13 NonCon=     1 RMS=5.97D-09 Max=5.27D-07 NDo=     1
 LinEq1:  Iter= 14 NonCon=     1 RMS=3.86D-09 Max=3.36D-07 NDo=     1
 LinEq1:  Iter= 15 NonCon=     1 RMS=2.59D-09 Max=2.35D-07 NDo=     1
 LinEq1:  Iter= 16 NonCon=     1 RMS=1.53D-09 Max=1.33D-07 NDo=     1
 LinEq1:  Iter= 17 NonCon=     0 RMS=7.93D-10 Max=5.03D-08 NDo=     1
 Linear equations converged to 6.897D-09 6.897D-08 after    17 iterations.
 Angle between quadratic step and gradient=  81.75 degrees.
     ILin= 1 X=0.000D+00 Y=-2.023378750677D+03 DE= 0.00D+00 F= -1.59D-06
     ILin= 2 X=1.000D+00 Y=-2.023378751485D+03 DE=-8.08D-07
 Iteration   3 EE= -2023.37875148541     Delta-E=       -0.000000808361 Grad=1.234D-05 Max rot=    0.0002 deg.
 Rotation gradient small -- convergence achieved.
 SCF Done:  E(ULC-wHPBE) =  -2023.37875149     a.u. after    3 cycles
            Convg  =    0.1234D-04                    39 Fock formations.
              S**2 =  0.7637                  -V/T =  2.0034
 <Sx>= 0.0000 <Sy>= 0.0000 <Sz>= 0.5000 <S**2>= 0.7637 S= 0.5068
 <L.S>= 0.000000000000E+00
 Annihilation of the first spin contaminant:
 S**2 before annihilation     0.7637,   after     0.7501
 Leave Link  508 at Wed Jan 27 01:55:49 2021, MaxMem=  4026531840 cpu:           21531.0 elap:            2734.1
 (Enter /opt/ohpc/pub/libs/gaussian/g16-A.03/sandybridge/g16/l601.exe)
 Copying SCF densities to generalized density rwf, IOpCl= 1 IROHF=0.

 **********************************************************************

            Population analysis using the SCF density.

 **********************************************************************

 Orbital symmetries:
 Alpha Orbitals:
       Occupied  (A) (A) (A) (A) (A) (A) (A) (A) (A) (A) (A) (A)
                 (A) (A) (A) (A) (A) (A) (A) (A) (A) (A) (A) (A)
                 (A) (A) (A) (A) (A) (A) (A) (A) (A) (A) (A) (A)
                 (A) (A) (A) (A) (A) (A) (A) (A) (A) (A) (A) (A)
                 (A) (A) (A) (A) (A) (A) (A) (A) (A) (A) (A) (A)
                 (A) (A) (A) (A) (A) (A) (A) (A) (A) (A) (A) (A)
                 (A) (A) (A) (A) (A) (A) (A) (A) (A) (A) (A) (A)
                 (A) (A) (A) (A) (A) (A) (A) (A) (A) (A) (A) (A)
                 (A) (A) (A) (A) (A) (A) (A) (A) (A) (A) (A) (A)
                 (A) (A) (A) (A) (A) (A) (A) (A) (A) (A) (A) (A)
                 (A) (A) (A)
       Virtual   (A) (A) (A) (A) (A) (A) (A) (A) (A) (A) (A) (A)
                 (A) (A) (A) (A) (A) (A) (A) (A) (A) (A) (A) (A)
                 (A) (A) (A) (A) (A) (A) (A) (A) (A) (A) (A) (A)
                 (A) (A) (A) (A) (A) (A) (A) (A) (A) (A) (A) (A)
                 (A) (A) (A) (A) (A) (A) (A) (A) (A) (A) (A) (A)
                 (A) (A) (A) (A) (A) (A) (A) (A) (A) (A) (A) (A)
                 (A) (A) (A) (A) (A) (A) (A) (A) (A) (A) (A) (A)
                 (A) (A) (A) (A) (A) (A) (A) (A) (A) (A) (A) (A)
                 (A) (A) (A) (A) (A) (A) (A) (A) (A) (A) (A) (A)
                 (A) (A) (A) (A) (A) (A) (A) (A) (A) (A) (A) (A)
                 (A) (A) (A) (A) (A) (A) (A) (A) (A) (A) (A) (A)
                 (A) (A) (A) (A) (A) (A) (A) (A) (A) (A) (A) (A)
                 (A) (A) (A) (A) (A) (A) (A) (A) (A) (A) (A) (A)
                 (A) (A) (A) (A) (A) (A) (A) (A) (A) (A) (A) (A)
                 (A) (A) (A) (A) (A) (A) (A) (A) (A) (A) (A) (A)
                 (A) (A) (A) (A) (A) (A) (A) (A) (A) (A) (A) (A)
                 (A) (A) (A) (A) (A) (A) (A) (A) (A) (A) (A) (A)
                 (A) (A) (A) (A) (A) (A) (A) (A) (A) (A) (A) (A)
                 (A) (A) (A) (A) (A) (A) (A) (A) (A) (A) (A) (A)
                 (A) (A) (A) (A) (A) (A) (A) (A) (A) (A) (A) (A)
                 (A) (A) (A) (A) (A) (A) (A) (A) (A) (A) (A) (A)
                 (A) (A) (A) (A) (A) (A) (A) (A) (A) (A) (A) (A)
                 (A) (A) (A) (A) (A) (A) (A) (A) (A) (A) (A) (A)
                 (A) (A) (A) (A) (A) (A) (A) (A) (A) (A) (A) (A)
                 (A) (A) (A) (A) (A) (A) (A) (A) (A) (A) (A) (A)
                 (A) (A) (A) (A) (A) (A) (A) (A) (A) (A) (A) (A)
                 (A) (A) (A) (A) (A) (A) (A) (A) (A) (A) (A) (A)
                 (A) (A) (A) (A) (A) (A) (A) (A) (A) (A) (A) (A)
                 (A) (A) (A) (A) (A) (A) (A) (A) (A) (A) (A) (A)
                 (A) (A) (A) (A) (A) (A) (A) (A) (A) (A) (A) (A)
                 (A) (A) (A) (A) (A) (A) (A) (A) (A) (A) (A) (A)
                 (A) (A) (A) (A) (A) (A) (A) (A) (A) (A) (A) (A)
                 (A) (A) (A) (A) (A) (A) (A) (A) (A) (A) (A) (A)
                 (A) (A) (A) (A) (A) (A) (A) (A) (A) (A) (A) (A)
                 (A) (A) (A) (A) (A) (A) (A) (A) (A) (A) (A) (A)
                 (A) (A) (A) (A) (A) (A) (A) (A) (A) (A) (A) (A)
                 (A) (A) (A) (A) (A) (A) (A) (A) (A) (A) (A) (A)
                 (A) (A) (A) (A) (A) (A) (A) (A) (A) (A) (A) (A)
                 (A) (A) (A) (A) (A) (A) (A) (A) (A) (A) (A) (A)
                 (A) (A) (A) (A) (A) (A) (A) (A) (A) (A) (A) (A)
                 (A) (A) (A) (A) (A) (A) (A) (A) (A) (A) (A) (A)
                 (A) (A) (A) (A) (A) (A) (A) (A) (A) (A) (A) (A)
                 (A) (A) (A) (A) (A) (A) (A) (A) (A) (A) (A) (A)
                 (A) (A) (A) (A) (A) (A) (A) (A) (A) (A) (A) (A)
                 (A) (A) (A) (A) (A) (A) (A) (A) (A) (A) (A) (A)
                 (A) (A) (A) (A) (A) (A) (A) (A) (A) (A) (A) (A)
                 (A) (A) (A) (A) (A) (A) (A) (A) (A) (A) (A) (A)
                 (A) (A) (A) (A) (A) (A) (A) (A) (A) (A) (A) (A)
                 (A) (A) (A) (A) (A) (A) (A) (A) (A) (A) (A) (A)
                 (A) (A) (A) (A) (A) (A) (A) (A) (A) (A) (A) (A)
                 (A) (A) (A) (A) (A) (A) (A) (A) (A) (A) (A) (A)
                 (A) (A) (A) (A) (A) (A) (A) (A) (A) (A) (A) (A)
                 (A) (A) (A) (A) (A) (A) (A) (A) (A) (A) (A) (A)
                 (A) (A) (A) (A) (A) (A) (A) (A) (A) (A) (A) (A)
                 (A) (A) (A) (A) (A) (A) (A) (A) (A) (A) (A) (A)
                 (A) (A) (A) (A) (A) (A) (A) (A) (A) (A) (A) (A)
                 (A) (A) (A) (A) (A) (A) (A) (A) (A) (A) (A)
 Beta  Orbitals:
       Occupied  (A) (A) (A) (A) (A) (A) (A) (A) (A) (A) (A) (A)
                 (A) (A) (A) (A) (A) (A) (A) (A) (A) (A) (A) (A)
                 (A) (A) (A) (A) (A) (A) (A) (A) (A) (A) (A) (A)
                 (A) (A) (A) (A) (A) (A) (A) (A) (A) (A) (A) (A)
                 (A) (A) (A) (A) (A) (A) (A) (A) (A) (A) (A) (A)
                 (A) (A) (A) (A) (A) (A) (A) (A) (A) (A) (A) (A)
                 (A) (A) (A) (A) (A) (A) (A) (A) (A) (A) (A) (A)
                 (A) (A) (A) (A) (A) (A) (A) (A) (A) (A) (A) (A)
                 (A) (A) (A) (A) (A) (A) (A) (A) (A) (A) (A) (A)
                 (A) (A) (A) (A) (A) (A) (A) (A) (A) (A) (A) (A)
                 (A) (A)
       Virtual   (A) (A) (A) (A) (A) (A) (A) (A) (A) (A) (A) (A)
                 (A) (A) (A) (A) (A) (A) (A) (A) (A) (A) (A) (A)
                 (A) (A) (A) (A) (A) (A) (A) (A) (A) (A) (A) (A)
                 (A) (A) (A) (A) (A) (A) (A) (A) (A) (A) (A) (A)
                 (A) (A) (A) (A) (A) (A) (A) (A) (A) (A) (A) (A)
                 (A) (A) (A) (A) (A) (A) (A) (A) (A) (A) (A) (A)
                 (A) (A) (A) (A) (A) (A) (A) (A) (A) (A) (A) (A)
                 (A) (A) (A) (A) (A) (A) (A) (A) (A) (A) (A) (A)
                 (A) (A) (A) (A) (A) (A) (A) (A) (A) (A) (A) (A)
                 (A) (A) (A) (A) (A) (A) (A) (A) (A) (A) (A) (A)
                 (A) (A) (A) (A) (A) (A) (A) (A) (A) (A) (A) (A)
                 (A) (A) (A) (A) (A) (A) (A) (A) (A) (A) (A) (A)
                 (A) (A) (A) (A) (A) (A) (A) (A) (A) (A) (A) (A)
                 (A) (A) (A) (A) (A) (A) (A) (A) (A) (A) (A) (A)
                 (A) (A) (A) (A) (A) (A) (A) (A) (A) (A) (A) (A)
                 (A) (A) (A) (A) (A) (A) (A) (A) (A) (A) (A) (A)
                 (A) (A) (A) (A) (A) (A) (A) (A) (A) (A) (A) (A)
                 (A) (A) (A) (A) (A) (A) (A) (A) (A) (A) (A) (A)
                 (A) (A) (A) (A) (A) (A) (A) (A) (A) (A) (A) (A)
                 (A) (A) (A) (A) (A) (A) (A) (A) (A) (A) (A) (A)
                 (A) (A) (A) (A) (A) (A) (A) (A) (A) (A) (A) (A)
                 (A) (A) (A) (A) (A) (A) (A) (A) (A) (A) (A) (A)
                 (A) (A) (A) (A) (A) (A) (A) (A) (A) (A) (A) (A)
                 (A) (A) (A) (A) (A) (A) (A) (A) (A) (A) (A) (A)
                 (A) (A) (A) (A) (A) (A) (A) (A) (A) (A) (A) (A)
                 (A) (A) (A) (A) (A) (A) (A) (A) (A) (A) (A) (A)
                 (A) (A) (A) (A) (A) (A) (A) (A) (A) (A) (A) (A)
                 (A) (A) (A) (A) (A) (A) (A) (A) (A) (A) (A) (A)
                 (A) (A) (A) (A) (A) (A) (A) (A) (A) (A) (A) (A)
                 (A) (A) (A) (A) (A) (A) (A) (A) (A) (A) (A) (A)
                 (A) (A) (A) (A) (A) (A) (A) (A) (A) (A) (A) (A)
                 (A) (A) (A) (A) (A) (A) (A) (A) (A) (A) (A) (A)
                 (A) (A) (A) (A) (A) (A) (A) (A) (A) (A) (A) (A)
                 (A) (A) (A) (A) (A) (A) (A) (A) (A) (A) (A) (A)
                 (A) (A) (A) (A) (A) (A) (A) (A) (A) (A) (A) (A)
                 (A) (A) (A) (A) (A) (A) (A) (A) (A) (A) (A) (A)
                 (A) (A) (A) (A) (A) (A) (A) (A) (A) (A) (A) (A)
                 (A) (A) (A) (A) (A) (A) (A) (A) (A) (A) (A) (A)
                 (A) (A) (A) (A) (A) (A) (A) (A) (A) (A) (A) (A)
                 (A) (A) (A) (A) (A) (A) (A) (A) (A) (A) (A) (A)
                 (A) (A) (A) (A) (A) (A) (A) (A) (A) (A) (A) (A)
                 (A) (A) (A) (A) (A) (A) (A) (A) (A) (A) (A) (A)
                 (A) (A) (A) (A) (A) (A) (A) (A) (A) (A) (A) (A)
                 (A) (A) (A) (A) (A) (A) (A) (A) (A) (A) (A) (A)
                 (A) (A) (A) (A) (A) (A) (A) (A) (A) (A) (A) (A)
                 (A) (A) (A) (A) (A) (A) (A) (A) (A) (A) (A) (A)
                 (A) (A) (A) (A) (A) (A) (A) (A) (A) (A) (A) (A)
                 (A) (A) (A) (A) (A) (A) (A) (A) (A) (A) (A) (A)
                 (A) (A) (A) (A) (A) (A) (A) (A) (A) (A) (A) (A)
                 (A) (A) (A) (A) (A) (A) (A) (A) (A) (A) (A) (A)
                 (A) (A) (A) (A) (A) (A) (A) (A) (A) (A) (A) (A)
                 (A) (A) (A) (A) (A) (A) (A) (A) (A) (A) (A) (A)
                 (A) (A) (A) (A) (A) (A) (A) (A) (A) (A) (A) (A)
                 (A) (A) (A) (A) (A) (A) (A) (A) (A) (A) (A) (A)
                 (A) (A) (A) (A) (A) (A) (A) (A) (A) (A) (A) (A)
                 (A) (A) (A) (A) (A) (A) (A) (A) (A) (A) (A) (A)
                 (A) (A) (A) (A) (A) (A) (A) (A) (A) (A) (A) (A)
 The electronic state is 2-A.
 Alpha  occ. eigenvalues --  -88.59748 -88.52286 -14.45263 -14.45052 -14.45036
 Alpha  occ. eigenvalues --  -14.45017 -10.38266 -10.38175 -10.38043 -10.37989
 Alpha  occ. eigenvalues --  -10.37983 -10.37227 -10.37068 -10.34955 -10.34667
 Alpha  occ. eigenvalues --  -10.34484 -10.34170 -10.34082 -10.33559 -10.33491
 Alpha  occ. eigenvalues --  -10.32733 -10.32298 -10.32105 -10.32029 -10.30895
 Alpha  occ. eigenvalues --  -10.30328 -10.30280 -10.30226 -10.29921 -10.29697
 Alpha  occ. eigenvalues --  -10.29666 -10.29641  -8.18624  -8.11569  -6.20578
 Alpha  occ. eigenvalues --   -6.20292  -6.20021  -6.13695  -6.13208  -6.12607
 Alpha  occ. eigenvalues --   -1.33886  -1.33686  -1.30697  -1.30538  -1.27102
 Alpha  occ. eigenvalues --   -1.26177  -1.25732  -1.24590  -1.20204  -1.16701
 Alpha  occ. eigenvalues --   -1.14465  -1.13876  -1.10020  -1.08034  -1.06843
 Alpha  occ. eigenvalues --   -1.06475  -1.06172  -1.06004  -1.05509  -1.05295
 Alpha  occ. eigenvalues --   -1.04348  -1.04090  -1.02108  -1.00370  -0.98635
 Alpha  occ. eigenvalues --   -0.97743  -0.93039  -0.91982  -0.89358  -0.89015
 Alpha  occ. eigenvalues --   -0.89001  -0.88583  -0.87427  -0.86952  -0.86685
 Alpha  occ. eigenvalues --   -0.85519  -0.84566  -0.84428  -0.84090  -0.83553
 Alpha  occ. eigenvalues --   -0.82817  -0.82780  -0.81786  -0.81650  -0.81479
 Alpha  occ. eigenvalues --   -0.80977  -0.80431  -0.80097  -0.79749  -0.78125
 Alpha  occ. eigenvalues --   -0.76924  -0.76382  -0.76153  -0.75751  -0.75369
 Alpha  occ. eigenvalues --   -0.75049  -0.74929  -0.74740  -0.74388  -0.73885
 Alpha  occ. eigenvalues --   -0.73581  -0.73525  -0.73316  -0.73314  -0.73144
 Alpha  occ. eigenvalues --   -0.73016  -0.72772  -0.72388  -0.71332  -0.71154
 Alpha  occ. eigenvalues --   -0.70848  -0.70819  -0.70532  -0.70165  -0.68399
 Alpha  occ. eigenvalues --   -0.65649  -0.65318  -0.64356  -0.64218  -0.63464
 Alpha  occ. eigenvalues --   -0.59821  -0.57344  -0.57116
 Alpha virt. eigenvalues --   -0.30111  -0.29303  -0.27372  -0.26066  -0.23147
 Alpha virt. eigenvalues --   -0.21365  -0.19784  -0.19446  -0.18765  -0.18482
 Alpha virt. eigenvalues --   -0.17681  -0.17342  -0.16877  -0.15742  -0.14630
 Alpha virt. eigenvalues --   -0.13807  -0.13650  -0.12567  -0.12166  -0.11916
 Alpha virt. eigenvalues --   -0.11583  -0.11254  -0.11136  -0.11019  -0.10937
 Alpha virt. eigenvalues --   -0.10713  -0.10118  -0.10067  -0.09742  -0.09306
 Alpha virt. eigenvalues --   -0.09175  -0.09052  -0.08567  -0.08238  -0.07791
 Alpha virt. eigenvalues --   -0.07591  -0.07049  -0.06840  -0.06571  -0.06473
 Alpha virt. eigenvalues --   -0.06343  -0.06088  -0.06024  -0.05841  -0.05722
 Alpha virt. eigenvalues --   -0.05206  -0.05194  -0.05037  -0.04835  -0.04203
 Alpha virt. eigenvalues --   -0.04009  -0.03816  -0.03724  -0.03519  -0.03237
 Alpha virt. eigenvalues --   -0.02647  -0.02560  -0.02234  -0.01990  -0.01516
 Alpha virt. eigenvalues --   -0.01274  -0.00830  -0.00671  -0.00349  -0.00033
 Alpha virt. eigenvalues --    0.00193   0.00264   0.00555   0.00953   0.01148
 Alpha virt. eigenvalues --    0.01279   0.01732   0.02109   0.02364   0.02668
 Alpha virt. eigenvalues --    0.02810   0.03223   0.03438   0.03746   0.03877
 Alpha virt. eigenvalues --    0.04196   0.05384   0.05755   0.06057   0.06281
 Alpha virt. eigenvalues --    0.06614   0.07115   0.07261   0.07475   0.07845
 Alpha virt. eigenvalues --    0.08066   0.08309   0.09082   0.09126   0.09403
 Alpha virt. eigenvalues --    0.09836   0.10115   0.10428   0.10752   0.11398
 Alpha virt. eigenvalues --    0.11709   0.11828   0.11969   0.12128   0.12256
 Alpha virt. eigenvalues --    0.12665   0.12788   0.13000   0.13393   0.13471
 Alpha virt. eigenvalues --    0.13767   0.13984   0.14332   0.14531   0.14924
 Alpha virt. eigenvalues --    0.15296   0.16000   0.16005   0.16787   0.17278
 Alpha virt. eigenvalues --    0.18045   0.18490   0.18790   0.19198   0.19229
 Alpha virt. eigenvalues --    0.19271   0.19524   0.19729   0.19965   0.20693
 Alpha virt. eigenvalues --    0.20717   0.21223   0.21829   0.22059   0.22930
 Alpha virt. eigenvalues --    0.23145   0.23356   0.24033   0.24384   0.24791
 Alpha virt. eigenvalues --    0.24804   0.25031   0.25248   0.25370   0.25664
 Alpha virt. eigenvalues --    0.25781   0.26133   0.26439   0.26644   0.26840
 Alpha virt. eigenvalues --    0.26989   0.27102   0.27528   0.27715   0.27977
 Alpha virt. eigenvalues --    0.28060   0.28488   0.28623   0.28777   0.28917
 Alpha virt. eigenvalues --    0.29057   0.29244   0.29487   0.29991   0.30293
 Alpha virt. eigenvalues --    0.30343   0.30822   0.31048   0.31417   0.31636
 Alpha virt. eigenvalues --    0.32056   0.32453   0.32686   0.33054   0.33118
 Alpha virt. eigenvalues --    0.33630   0.33740   0.34132   0.34276   0.34528
 Alpha virt. eigenvalues --    0.34905   0.35341   0.35725   0.36831   0.37046
 Alpha virt. eigenvalues --    0.37284   0.38095   0.38183   0.38323   0.38587
 Alpha virt. eigenvalues --    0.38723   0.39350   0.39386   0.40919   0.41484
 Alpha virt. eigenvalues --    0.42449   0.42652   0.42934   0.43643   0.43933
 Alpha virt. eigenvalues --    0.44421   0.44762   0.45125   0.45180   0.45237
 Alpha virt. eigenvalues --    0.45429   0.45629   0.46109   0.46541   0.47038
 Alpha virt. eigenvalues --    0.47506   0.48718   0.49257   0.49595   0.49963
 Alpha virt. eigenvalues --    0.50390   0.50838   0.51912   0.52120   0.53004
 Alpha virt. eigenvalues --    0.53239   0.53528   0.53823   0.54473   0.54772
 Alpha virt. eigenvalues --    0.55583   0.56602   0.57982   0.59000   0.59826
 Alpha virt. eigenvalues --    0.60489   0.61639   0.62089   0.63828   0.64589
 Alpha virt. eigenvalues --    0.64686   0.65453   0.65628   0.68890   0.69050
 Alpha virt. eigenvalues --    0.69550   0.69833   0.71215   0.72026   0.75711
 Alpha virt. eigenvalues --    0.80297   0.87091   0.92643   0.93116   0.93156
 Alpha virt. eigenvalues --    0.93355   0.94385   0.96942   0.97279   0.98218
 Alpha virt. eigenvalues --    0.98912   0.99168   1.00093   1.00440   1.01607
 Alpha virt. eigenvalues --    1.01803   1.02000   1.02193   1.02442   1.02971
 Alpha virt. eigenvalues --    1.03492   1.04329   1.04589   1.05005   1.05356
 Alpha virt. eigenvalues --    1.05815   1.06150   1.06267   1.06629   1.06729
 Alpha virt. eigenvalues --    1.08318   1.09625   1.09951   1.10467   1.10826
 Alpha virt. eigenvalues --    1.11118   1.12180   1.12648   1.12859   1.13158
 Alpha virt. eigenvalues --    1.13281   1.13469   1.13497   1.13665   1.13867
 Alpha virt. eigenvalues --    1.13926   1.14133   1.14787   1.14962   1.15416
 Alpha virt. eigenvalues --    1.15834   1.16028   1.16159   1.16682   1.16878
 Alpha virt. eigenvalues --    1.17053   1.17348   1.17920   1.18355   1.18644
 Alpha virt. eigenvalues --    1.18739   1.19153   1.20464   1.20635   1.21050
 Alpha virt. eigenvalues --    1.21874   1.22085   1.22218   1.22524   1.22818
 Alpha virt. eigenvalues --    1.23253   1.23662   1.24107   1.24493   1.24806
 Alpha virt. eigenvalues --    1.25432   1.25528   1.25778   1.25921   1.26070
 Alpha virt. eigenvalues --    1.26204   1.26591   1.27344   1.27605   1.27809
 Alpha virt. eigenvalues --    1.27873   1.28607   1.28951   1.29565   1.30026
 Alpha virt. eigenvalues --    1.30203   1.30571   1.30778   1.31270   1.31905
 Alpha virt. eigenvalues --    1.32003   1.32702   1.32838   1.32990   1.33385
 Alpha virt. eigenvalues --    1.33462   1.33990   1.34176   1.35092   1.35524
 Alpha virt. eigenvalues --    1.35841   1.36026   1.36487   1.36915   1.36958
 Alpha virt. eigenvalues --    1.37079   1.38063   1.38224   1.38915   1.39566
 Alpha virt. eigenvalues --    1.40084   1.40730   1.41540   1.42607   1.43243
 Alpha virt. eigenvalues --    1.43660   1.43925   1.44037   1.44298   1.44772
 Alpha virt. eigenvalues --    1.45369   1.45457   1.46522   1.46937   1.47194
 Alpha virt. eigenvalues --    1.47994   1.48068   1.48639   1.50266   1.50684
 Alpha virt. eigenvalues --    1.51057   1.51366   1.51521   1.51901   1.52207
 Alpha virt. eigenvalues --    1.53064   1.53845   1.54056   1.54299   1.54402
 Alpha virt. eigenvalues --    1.54849   1.55053   1.55901   1.56427   1.56807
 Alpha virt. eigenvalues --    1.57003   1.57159   1.57331   1.57541   1.57696
 Alpha virt. eigenvalues --    1.57761   1.57839   1.58187   1.58554   1.59132
 Alpha virt. eigenvalues --    1.59352   1.59561   1.59691   1.59837   1.59959
 Alpha virt. eigenvalues --    1.60025   1.60454   1.61148   1.61444   1.62223
 Alpha virt. eigenvalues --    1.63179   1.63483   1.63832   1.64140   1.64640
 Alpha virt. eigenvalues --    1.64776   1.65535   1.65733   1.66231   1.66566
 Alpha virt. eigenvalues --    1.67029   1.68012   1.68197   1.68304   1.68688
 Alpha virt. eigenvalues --    1.69371   1.69669   1.70893   1.71736   1.72243
 Alpha virt. eigenvalues --    1.73256   1.75006   1.75485   1.75859   1.76497
 Alpha virt. eigenvalues --    1.78234   1.78858   1.80028   1.80778   1.81784
 Alpha virt. eigenvalues --    1.82179   1.82593   1.83597   1.84055   1.84119
 Alpha virt. eigenvalues --    1.85450   1.86354   1.88399   1.88738   1.89106
 Alpha virt. eigenvalues --    1.89663   1.90229   1.90802   1.91991   1.92983
 Alpha virt. eigenvalues --    1.93643   1.93985   1.94825   1.95014   1.95228
 Alpha virt. eigenvalues --    1.95639   1.95909   1.96701   1.97605   1.99253
 Alpha virt. eigenvalues --    1.99469   2.00543   2.00927   2.02678   2.03328
 Alpha virt. eigenvalues --    2.04523   2.05074   2.05164   2.06239   2.06310
 Alpha virt. eigenvalues --    2.06786   2.06890   2.07071   2.07592   2.07785
 Alpha virt. eigenvalues --    2.07959   2.08267   2.08817   2.09026   2.09319
 Alpha virt. eigenvalues --    2.09495   2.09676   2.10232   2.10562   2.11293
 Alpha virt. eigenvalues --    2.11400   2.11736   2.12299   2.12499   2.12937
 Alpha virt. eigenvalues --    2.13895   2.13907   2.14413   2.14780   2.15075
 Alpha virt. eigenvalues --    2.15133   2.15591   2.16208   2.16735   2.20181
 Alpha virt. eigenvalues --    2.21780   2.22424   2.22879   2.23188   2.23567
 Alpha virt. eigenvalues --    2.23742   2.24115   2.25156   2.25925   2.26890
 Alpha virt. eigenvalues --    2.28777   2.29156   2.29644   2.30117   2.31146
[...]
    62   Atom       -0.000215      0.000168     -0.000097
    63   Atom       -0.000218     -0.000045      0.000018
    64   Atom       -0.000034      0.000083     -0.000031
 --------------------------------------------------------


 ---------------------------------------------------------------------------------
              Anisotropic Spin Dipole Couplings in Principal Axis System
 ---------------------------------------------------------------------------------

       Atom             a.u.   MegaHertz   Gauss  10(-4) cm-1        Axes

              Baa    -0.0550    -7.380    -2.633    -2.462 -0.1557 -0.6247  0.7652
     1 C(13)  Bbb    -0.0514    -6.893    -2.460    -2.299  0.9861 -0.0523  0.1579
              Bcc     0.1064    14.273     5.093     4.761 -0.0587  0.7791  0.6242
 
              Baa    -0.0428    -5.747    -2.050    -1.917 -0.6266 -0.0787  0.7754
     2 C(13)  Bbb    -0.0330    -4.429    -1.580    -1.477  0.7381 -0.3794  0.5579
              Bcc     0.0758    10.176     3.631     3.394  0.2503  0.9219  0.2958
 
              Baa    -1.1583   -47.490   -16.945   -15.841  0.4384 -0.4740  0.7636
     3 S(33)  Bbb    -1.1023   -45.192   -16.125   -15.074  0.8977  0.2722 -0.3464
              Bcc     2.2606    92.681    33.071    30.915 -0.0437  0.8374  0.5449
 
              Baa    -0.0651    -8.742    -3.119    -2.916  0.9148  0.2186 -0.3397
     4 C(13)  Bbb    -0.0621    -8.337    -2.975    -2.781  0.3969 -0.6425  0.6555
              Bcc     0.1273    17.079     6.094     5.697  0.0750  0.7345  0.6745
 
              Baa    -0.0291    -3.906    -1.394    -1.303 -0.2715  0.7987  0.5370
     5 C(13)  Bbb    -0.0241    -3.230    -1.153    -1.077  0.9623  0.2347  0.1376
              Bcc     0.0532     7.136     2.546     2.380  0.0161 -0.5541  0.8323
 
              Baa    -0.0315    -4.232    -1.510    -1.412  0.6971 -0.3550 -0.6229
     6 C(13)  Bbb    -0.0255    -3.428    -1.223    -1.144  0.7061  0.1896  0.6822
              Bcc     0.0571     7.660     2.733     2.555  0.1241  0.9155 -0.3828
 
              Baa    -0.0491    -6.592    -2.352    -2.199  0.0255  0.8055  0.5920
     7 C(13)  Bbb     0.0225     3.023     1.079     1.008  0.9816 -0.1322  0.1376
              Bcc     0.0266     3.570     1.274     1.191 -0.1891 -0.5777  0.7941
 
              Baa    -0.0500    -6.709    -2.394    -2.238 -0.0007  0.8092  0.5876
     8 C(13)  Bbb     0.0222     2.983     1.064     0.995  0.4177 -0.5336  0.7354
              Bcc     0.0278     3.726     1.329     1.243  0.9086  0.2460 -0.3376
 
              Baa    -0.0053    -2.805    -1.001    -0.935 -0.3939 -0.6117  0.6861
     9 H(1)   Bbb    -0.0031    -1.654    -0.590    -0.552  0.0807  0.7205  0.6887
              Bcc     0.0084     4.458     1.591     1.487  0.9156 -0.3266  0.2345
 
              Baa    -0.0104    -1.399    -0.499    -0.467 -0.1474 -0.5658  0.8113
    10 C(13)  Bbb     0.0029     0.393     0.140     0.131 -0.5474  0.7298  0.4095
              Bcc     0.0075     1.006     0.359     0.336  0.8238  0.3837  0.4173
 
              Baa    -0.0298    -4.000    -1.427    -1.334  0.1321  0.8115 -0.5692
    11 C(13)  Bbb    -0.0002    -0.021    -0.008    -0.007  0.3205  0.5084  0.7992
              Bcc     0.0300     4.021     1.435     1.341  0.9380 -0.2880 -0.1930
 
              Baa    -0.0290    -3.890    -1.388    -1.297  0.6902 -0.0432  0.7223
    12 C(13)  Bbb    -0.0270    -3.619    -1.291    -1.207 -0.4315  0.7768  0.4587
              Bcc     0.0560     7.509     2.679     2.505  0.5809  0.6283 -0.5175
 
              Baa    -0.0122    -1.631    -0.582    -0.544 -0.2346  0.5476  0.8032
    13 C(13)  Bbb    -0.0095    -1.279    -0.456    -0.427  0.9670  0.0466  0.2506
              Bcc     0.0217     2.910     1.038     0.971  0.0998  0.8354 -0.5405
 
              Baa    -0.0022    -1.197    -0.427    -0.399  0.2512  0.9067 -0.3389
    14 H(1)   Bbb    -0.0008    -0.433    -0.155    -0.145 -0.3621  0.4127  0.8358
              Bcc     0.0031     1.630     0.582     0.544  0.8977 -0.0872  0.4320
 
              Baa    -0.0054    -2.893    -1.032    -0.965  0.3667  0.8283 -0.4236
    15 H(1)   Bbb    -0.0026    -1.365    -0.487    -0.455  0.6403  0.1057  0.7608
              Bcc     0.0080     4.258     1.519     1.420  0.6750 -0.5502 -0.4916
 
              Baa    -0.0036    -1.904    -0.679    -0.635  0.6685 -0.1055  0.7362
    16 H(1)   Bbb    -0.0013    -0.689    -0.246    -0.230  0.5550  0.7297 -0.3994
              Bcc     0.0049     2.593     0.925     0.865 -0.4950  0.6756  0.5464
 
              Baa    -0.1106   -14.838    -5.294    -4.949  0.7703 -0.3790  0.5129
    17 C(13)  Bbb    -0.1032   -13.847    -4.941    -4.619  0.6376  0.4725 -0.6084
              Bcc     0.2138    28.684    10.235     9.568 -0.0118  0.7957  0.6056
 
              Baa    -0.0040    -2.149    -0.767    -0.717 -0.5956  0.1729  0.7844
    18 H(1)   Bbb    -0.0037    -1.971    -0.703    -0.657  0.4632  0.8718  0.1595
              Bcc     0.0077     4.120     1.470     1.374  0.6563 -0.4583  0.5994
 
              Baa    -0.0085    -4.515    -1.611    -1.506  0.9184  0.1047 -0.3815
    19 H(1)   Bbb    -0.0023    -1.209    -0.431    -0.403 -0.1733  0.9733 -0.1503
              Bcc     0.0107     5.723     2.042     1.909  0.3556  0.2041  0.9121
 
              Baa    -0.0031    -1.644    -0.587    -0.548  0.0247  0.6915  0.7220
    20 H(1)   Bbb     0.0003     0.144     0.052     0.048  0.0063  0.7221 -0.6918
              Bcc     0.0028     1.500     0.535     0.500  0.9997 -0.0216 -0.0135
 
              Baa    -0.0137    -7.331    -2.616    -2.445  0.7766 -0.3862  0.4978
    21 H(1)   Bbb    -0.0014    -0.737    -0.263    -0.246 -0.0008  0.7895  0.6137
              Bcc     0.0151     8.067     2.879     2.691  0.6300  0.4770 -0.6128
 
              Baa    -0.2705   -11.090    -3.957    -3.699  0.6002 -0.5958  0.5337
    22 S(33)  Bbb    -0.2434    -9.980    -3.561    -3.329 -0.2307  0.5099  0.8287
              Bcc     0.5139    21.070     7.518     7.028  0.7659  0.6205 -0.1686
 
              Baa    -0.0044    -0.586    -0.209    -0.195 -0.4117 -0.2475  0.8771
    23 C(13)  Bbb     0.0000     0.002     0.001     0.001  0.0385  0.9568  0.2881
              Bcc     0.0043     0.584     0.208     0.195  0.9105 -0.1523  0.3844
 
              Baa    -0.0023    -0.307    -0.109    -0.102  0.4105 -0.0821  0.9082
    24 C(13)  Bbb    -0.0003    -0.039    -0.014    -0.013  0.1140  0.9927  0.0382
              Bcc     0.0026     0.345     0.123     0.115  0.9047 -0.0879 -0.4168
 
              Baa    -0.0018    -0.245    -0.088    -0.082 -0.6080 -0.1381  0.7819
    25 C(13)  Bbb    -0.0001    -0.012    -0.004    -0.004 -0.3064  0.9493 -0.0706
              Bcc     0.0019     0.258     0.092     0.086  0.7325  0.2825  0.6194
 
              Baa    -0.0145    -0.561    -0.200    -0.187  0.3185  0.8942  0.3147
    26 N(14)  Bbb    -0.0136    -0.523    -0.187    -0.175  0.9279 -0.3619  0.0893
              Bcc     0.0281     1.084     0.387     0.362 -0.1937 -0.2635  0.9450
 
              Baa    -0.0155    -0.598    -0.213    -0.200 -0.0608  0.9756  0.2109
    27 N(14)  Bbb    -0.0146    -0.564    -0.201    -0.188  0.9709  0.0088  0.2393
              Bcc     0.0301     1.162     0.415     0.388 -0.2316 -0.2193  0.9478
 
              Baa    -0.0005    -0.062    -0.022    -0.021  0.4107  0.2889  0.8648
    28 C(13)  Bbb     0.0000     0.003     0.001     0.001 -0.0783  0.9561 -0.2822
              Bcc     0.0004     0.059     0.021     0.020  0.9084 -0.0482 -0.4153
 
              Baa    -0.0004    -0.239    -0.085    -0.080 -0.3209 -0.6489  0.6898
    29 H(1)   Bbb    -0.0001    -0.039    -0.014    -0.013  0.6823  0.3468  0.6436
              Bcc     0.0005     0.279     0.099     0.093 -0.6569  0.6772  0.3314
 
              Baa    -0.0008    -0.425    -0.152    -0.142 -0.1151 -0.0651  0.9912
    30 H(1)   Bbb    -0.0004    -0.230    -0.082    -0.077  0.6140  0.7797  0.1225
              Bcc     0.0012     0.655     0.234     0.218  0.7809 -0.6227  0.0497
 
              Baa    -0.0004    -0.236    -0.084    -0.079 -0.1040  0.0835  0.9911
    31 H(1)   Bbb    -0.0001    -0.069    -0.025    -0.023  0.7887  0.6140  0.0311
              Bcc     0.0006     0.305     0.109     0.102 -0.6060  0.7848 -0.1297
 
              Baa    -0.0006    -0.079    -0.028    -0.026  0.2589  0.9409  0.2181
    32 C(13)  Bbb    -0.0001    -0.013    -0.005    -0.004  0.1578 -0.2640  0.9515
              Bcc     0.0007     0.092     0.033     0.031  0.9529 -0.2120 -0.2168
 
              Baa    -0.0003    -0.176    -0.063    -0.059 -0.1591 -0.6332  0.7575
    33 H(1)   Bbb    -0.0002    -0.114    -0.041    -0.038  0.4544  0.6342  0.6256
              Bcc     0.0005     0.291     0.104     0.097  0.8765 -0.4437 -0.1868
 
              Baa    -0.0003    -0.164    -0.058    -0.055  0.0148  0.5926  0.8054
    34 H(1)   Bbb    -0.0003    -0.139    -0.050    -0.046  0.5655  0.6593 -0.4955
              Bcc     0.0006     0.303     0.108     0.101  0.8246 -0.4628  0.3254
 
              Baa    -0.0003    -0.182    -0.065    -0.061 -0.0850 -0.3449  0.9348
    35 H(1)   Bbb    -0.0002    -0.082    -0.029    -0.027  0.0575  0.9349  0.3502
              Bcc     0.0005     0.265     0.095     0.088  0.9947 -0.0835  0.0597
 
              Baa    -0.0003    -0.043    -0.015    -0.014  0.2258  0.1569  0.9614
    36 C(13)  Bbb    -0.0002    -0.026    -0.009    -0.009 -0.3391  0.9379 -0.0734
              Bcc     0.0005     0.069     0.025     0.023  0.9132  0.3095 -0.2650
 
              Baa    -0.0005    -0.264    -0.094    -0.088 -0.1404 -0.6713  0.7277
    37 H(1)   Bbb    -0.0000    -0.026    -0.009    -0.009 -0.5691  0.6562  0.4956
              Bcc     0.0005     0.290     0.104     0.097  0.8102  0.3446  0.4742
 
              Baa    -0.0007    -0.372    -0.133    -0.124 -0.1074 -0.3181  0.9419
    38 H(1)   Bbb    -0.0004    -0.207    -0.074    -0.069 -0.2289  0.9299  0.2879
              Bcc     0.0011     0.579     0.207     0.193  0.9675  0.1847  0.1727
 
              Baa    -0.0004    -0.229    -0.082    -0.077 -0.1287  0.1167  0.9848
    39 H(1)   Bbb    -0.0001    -0.051    -0.018    -0.017 -0.5370  0.8266 -0.1682
              Bcc     0.0005     0.280     0.100     0.093  0.8337  0.5505  0.0438
 
              Baa    -0.0006    -0.080    -0.028    -0.027  0.0116  0.9928  0.1195
    40 C(13)  Bbb     0.0000     0.001     0.000     0.000 -0.4938 -0.0982  0.8640
              Bcc     0.0006     0.079     0.028     0.026  0.8695 -0.0690  0.4891
 
              Baa    -0.0003    -0.184    -0.066    -0.061 -0.2556 -0.6387  0.7258
    41 H(1)   Bbb    -0.0002    -0.110    -0.039    -0.037 -0.4195  0.7496  0.5120
              Bcc     0.0006     0.294     0.105     0.098  0.8710  0.1736  0.4596
 
              Baa    -0.0003    -0.166    -0.059    -0.055 -0.0373  0.4754  0.8790
    42 H(1)   Bbb    -0.0003    -0.143    -0.051    -0.048 -0.1580  0.8657 -0.4749
              Bcc     0.0006     0.310     0.110     0.103  0.9867  0.1566 -0.0428
 
              Baa    -0.0003    -0.181    -0.065    -0.060 -0.3187 -0.3110  0.8954
    43 H(1)   Bbb    -0.0002    -0.085    -0.030    -0.028  0.1456  0.9174  0.3705
              Bcc     0.0005     0.266     0.095     0.089  0.9366 -0.2485  0.2471
 
              Baa    -0.0043    -0.577    -0.206    -0.192  0.3007  0.8835 -0.3592
    44 C(13)  Bbb    -0.0025    -0.338    -0.121    -0.113  0.9514 -0.2519  0.1769
              Bcc     0.0068     0.915     0.326     0.305 -0.0658  0.3949  0.9163
 
              Baa    -0.0039    -0.519    -0.185    -0.173 -0.3809  0.4092  0.8291
    45 C(13)  Bbb     0.0010     0.132     0.047     0.044 -0.1259  0.8654 -0.4850
              Bcc     0.0029     0.387     0.138     0.129  0.9160  0.2891  0.2781
 
              Baa    -0.0053    -0.708    -0.253    -0.236  0.1799  0.3160  0.9316
    46 C(13)  Bbb     0.0019     0.252     0.090     0.084  0.3626  0.8590 -0.3614
              Bcc     0.0034     0.456     0.163     0.152  0.9144 -0.4028 -0.0399
 
              Baa    -0.0023    -0.090    -0.032    -0.030 -0.0965  0.8960 -0.4334
    47 N(14)  Bbb    -0.0006    -0.025    -0.009    -0.008  0.9951  0.0769 -0.0625
              Bcc     0.0030     0.114     0.041     0.038  0.0226  0.4373  0.8990
 
              Baa    -0.0040    -0.153    -0.055    -0.051  0.1722  0.9483 -0.2666
    48 N(14)  Bbb    -0.0024    -0.093    -0.033    -0.031  0.9625 -0.1044  0.2503
              Bcc     0.0064     0.245     0.088     0.082 -0.2096  0.2997  0.9307
 
              Baa    -0.0010    -0.132    -0.047    -0.044  0.3791 -0.5373  0.7534
    49 C(13)  Bbb    -0.0005    -0.071    -0.025    -0.024 -0.0517  0.8006  0.5970
              Bcc     0.0015     0.203     0.073     0.068  0.9239  0.2653 -0.2757
 
              Baa    -0.0005    -0.274    -0.098    -0.091 -0.4274  0.8574  0.2866
    50 H(1)   Bbb    -0.0004    -0.212    -0.076    -0.071  0.3513 -0.1346  0.9265
              Bcc     0.0009     0.486     0.173     0.162  0.8330  0.4967 -0.2437
 
              Baa    -0.0013    -0.675    -0.241    -0.225 -0.5057  0.7934 -0.3388
    51 H(1)   Bbb    -0.0012    -0.647    -0.231    -0.216 -0.2158  0.2639  0.9401
              Bcc     0.0025     1.322     0.472     0.441  0.8353  0.5485  0.0378
 
              Baa    -0.0004    -0.238    -0.085    -0.079 -0.5608  0.8279  0.0097
    52 H(1)   Bbb    -0.0004    -0.224    -0.080    -0.075 -0.0498 -0.0454  0.9977
              Bcc     0.0009     0.462     0.165     0.154  0.8264  0.5591  0.0667
 
              Baa    -0.0004    -0.047    -0.017    -0.016 -0.1434  0.9018 -0.4077
    53 C(13)  Bbb    -0.0001    -0.012    -0.004    -0.004  0.0028  0.4123  0.9110
              Bcc     0.0004     0.059     0.021     0.020  0.9897  0.1295 -0.0616
 
              Baa    -0.0003    -0.137    -0.049    -0.046 -0.0141  0.5460  0.8377
    54 H(1)   Bbb    -0.0002    -0.119    -0.043    -0.040 -0.2966  0.7978 -0.5250
              Bcc     0.0005     0.256     0.091     0.085  0.9549  0.2559 -0.1507
 
              Baa    -0.0003    -0.137    -0.049    -0.046 -0.2644  0.9637 -0.0373
    55 H(1)   Bbb    -0.0002    -0.115    -0.041    -0.038 -0.1302  0.0026  0.9915
              Bcc     0.0005     0.252     0.090     0.084  0.9556  0.2670  0.1248
 
              Baa    -0.0003    -0.149    -0.053    -0.050  0.0044  0.5092  0.8606
    56 H(1)   Bbb    -0.0002    -0.113    -0.040    -0.038 -0.0646  0.8590 -0.5079
              Bcc     0.0005     0.262     0.094     0.087  0.9979  0.0534 -0.0366
 
              Baa    -0.0009    -0.116    -0.042    -0.039  0.4207  0.6307  0.6521
    57 C(13)  Bbb    -0.0007    -0.087    -0.031    -0.029 -0.2470 -0.6120  0.7513
              Bcc     0.0015     0.204     0.073     0.068  0.8729 -0.4772 -0.1016
 
              Baa    -0.0007    -0.363    -0.130    -0.121  0.1470  0.6825  0.7159
    58 H(1)   Bbb    -0.0005    -0.269    -0.096    -0.090 -0.4983 -0.5741  0.6497
              Bcc     0.0012     0.633     0.226     0.211  0.8544 -0.4522  0.2557
 
              Baa    -0.0013    -0.675    -0.241    -0.225  0.2761  0.4995  0.8211
    59 H(1)   Bbb    -0.0010    -0.522    -0.186    -0.174  0.3960  0.7193 -0.5708
              Bcc     0.0022     1.197     0.427     0.399  0.8757 -0.4828 -0.0008
 
              Baa    -0.0005    -0.263    -0.094    -0.088  0.0284 -0.0524  0.9982
    60 H(1)   Bbb    -0.0004    -0.223    -0.079    -0.074  0.5448  0.8381  0.0285
              Bcc     0.0009     0.486     0.173     0.162  0.8381 -0.5430 -0.0524
 
              Baa    -0.0004    -0.056    -0.020    -0.019  0.1892  0.9779 -0.0888
    61 C(13)  Bbb    -0.0000    -0.006    -0.002    -0.002 -0.0050  0.0914  0.9958
              Bcc     0.0005     0.063     0.022     0.021  0.9819 -0.1880  0.0222
 
              Baa    -0.0003    -0.172    -0.061    -0.057  0.0303  0.6796  0.7329
    62 H(1)   Bbb    -0.0002    -0.125    -0.045    -0.042  0.3704  0.6734 -0.6398
              Bcc     0.0006     0.297     0.106     0.099  0.9284 -0.2908  0.2313
 
              Baa    -0.0003    -0.144    -0.051    -0.048  0.1782  0.7319 -0.6576
    63 H(1)   Bbb    -0.0003    -0.139    -0.050    -0.046  0.2330  0.6179  0.7509
              Bcc     0.0005     0.282     0.101     0.094  0.9560 -0.2871 -0.0605
 
              Baa    -0.0003    -0.160    -0.057    -0.053 -0.0650  0.5087  0.8585
    64 H(1)   Bbb    -0.0002    -0.127    -0.045    -0.042  0.0932  0.8597 -0.5023
              Bcc     0.0005     0.286     0.102     0.095  0.9935 -0.0474  0.1033
 

 ---------------------------------------------------------------------------------

 No NMR shielding tensors so no spin-rotation constants.
 Leave Link  601 at Wed Jan 27 01:55:50 2021, MaxMem=  4026531840 cpu:              10.4 elap:               1.4
 (Enter /opt/ohpc/pub/libs/gaussian/g16-A.03/sandybridge/g16/l9999.exe)

 Test job not archived.
 1\1\GINC-CNODE145\SP\ULC-wHPBE\TZVP\C26H32N4S2(3+,2)\RDU230\27-Jan-202
 1\0\\#P LC-wHPBE/TZVP iop(3/107=0221900000, 3/108=0221900000) scf=(con
 ver=6,fermi,ndamp=35,noincfock,novaracc,vshift=500,xqc)\\H32 C26 S2 N4
 \\3,2\C,0,-2.928949,-0.209586,-0.466429\C,0,-1.563914,-0.061175,-0.303
 79\S,0,-0.549634,-0.92994,-1.465043\C,0,-1.080492,0.744795,0.70659\C,0
 ,1.720975,-1.178026,0.124019\C,0,1.104728,-0.556786,-0.961278\C,0,-3.8
 04439,0.453059,0.37376\C,0,-1.957571,1.39872,1.546095\H,0,-0.017059,0.
 867388,0.843825\C,0,3.05531,-0.905897,0.375396\C,0,1.834379,0.303673,-
 1.763498\C,0,3.157322,0.57014,-1.506853\C,0,3.772824,-0.043708,-0.4294
 35\H,0,3.535939,-1.385849,1.215765\H,0,1.346414,0.763075,-2.610001\H,0
 ,3.71103,1.227115,-2.160412\C,0,-3.316329,1.26263,1.386512\H,0,-3.3099
 64,-0.825983,-1.268943\H,0,-0.12139,-2.546838,0.437504\H,0,-1.570409,2
 .020933,2.339064\H,0,-3.993957,1.766527,2.059405\S,0,0.923466,-2.27951
 2,1.229412\C,0,5.179371,0.186625,-0.15991\C,0,6.258258,1.013194,-0.194
 238\C,0,6.373984,-0.291545,0.281001\N,0,6.778879,2.1722,-0.466391\N,0,
 7.085837,-1.264246,0.765069\C,0,5.943792,3.274283,-0.907684\H,0,6.1879
 51,3.5455,-1.931936\H,0,4.898805,2.994168,-0.846509\H,0,6.108951,4.134
 804,-0.264794\C,0,8.194976,2.451187,-0.318309\H,0,8.537142,3.011091,-1
 .183702\H,0,8.380874,3.039067,0.577705\H,0,8.758216,1.527533,-0.273817
 \C,0,6.515968,-2.589608,0.931428\H,0,6.460524,-2.846499,1.986434\H,0,5
 .524243,-2.624805,0.496396\H,0,7.140387,-3.318442,0.421721\C,0,8.48492
 9,-1.112006,1.118438\H,0,8.667734,-1.621246,2.059984\H,0,9.125917,-1.5
 45202,0.353886\H,0,8.728287,-0.065327,1.25212\C,0,-5.234909,0.301436,0
 .192555\C,0,-6.482207,0.837696,0.274291\C,0,-6.296202,-0.469144,-0.166
 373\N,0,-7.258316,1.842942,0.55157\N,0,-6.771609,-1.601745,-0.593499\C
 ,0,-6.699705,3.135271,0.904858\H,0,-6.943427,3.382636,1.935256\H,0,-5.
 623434,3.119821,0.780416\H,0,-7.111169,3.899344,0.250646\C,0,-8.704916
 ,1.757804,0.486526\H,0,-9.127537,2.25749,1.353238\H,0,-9.080352,2.2381
 57,-0.414316\H,0,-9.022841,0.722915,0.509579\C,0,-5.902929,-2.750782,-
 0.768792\H,0,-5.850729,-3.027562,-1.819029\H,0,-4.908582,-2.521281,-0.
 40444\H,0,-6.292204,-3.59128,-0.200176\C,0,-8.181475,-1.806186,-0.8668
 23\H,0,-8.283723,-2.375263,-1.7861\H,0,-8.657299,-2.356258,-0.057912\H
 ,0,-8.67988,-0.85495,-1.00634\\Version=EM64L-G16RevA.03\State=2-A\HF=-
 2023.3787515\S2=0.763686\S2-1=0.\S2A=0.750139\RMSD=3.016e-08\Dipole=-0
 .5136202,0.9351671,0.0177802\Quadrupole=255.3670962,-109.0874989,-146.
 2795974,4.4870389,2.7094688,1.9183003\PG=C01 [X(C26H32N4S2)]\\@


 You don't have to suffer to be a poet.
 Adolescence is enough suffering for anyone.
                             -- John Ciardi
 Job cpu time:       0 days 12 hours 13 minutes 28.7 seconds.
 Elapsed time:       0 days  1 hours 32 minutes 58.5 seconds.
 File lengths (MBytes):  RWF=    364 Int=      0 D2E=      0 Chk=     52 Scr=      8
 Normal termination of Gaussian 16 at Wed Jan 27 01:55:51 2021.
