 Entering Gaussian System, Link 0=g16
 Input=mol_ta_cp_whol_tune_c4.gjf
 Output=mol_ta_cp_whol_tune_c4.log
 Initial command:
 /opt/ohpc/pub/libs/gaussian/g16-A.03/sandybridge/g16/l1.exe "/mnt/gpfs2_4m/scratch/rdu230/ondemand/projects/init_structures/gaussian/wtuning/mol_ta_cp_whol/tuning_mol_ta_cp_whol_ocycle0/Gau-11242.inp" -scrdir="/mnt/gpfs2_4m/scratch/rdu230/ondemand/projects/init_structures/gaussian/wtuning/mol_ta_cp_whol/tuning_mol_ta_cp_whol_ocycle0/"
 Entering Link 1 = /opt/ohpc/pub/libs/gaussian/g16-A.03/sandybridge/g16/l1.exe PID=     11244.
  
 Copyright (c) 1988,1990,1992,1993,1995,1998,2003,2009,2016,
            Gaussian, Inc.  All Rights Reserved.
  
 This is part of the Gaussian(R) 16 program.  It is based on
 the Gaussian(R) 09 system (copyright 2009, Gaussian, Inc.),
 the Gaussian(R) 03 system (copyright 2003, Gaussian, Inc.),
 the Gaussian(R) 98 system (copyright 1998, Gaussian, Inc.),
 the Gaussian(R) 94 system (copyright 1995, Gaussian, Inc.),
 the Gaussian 92(TM) system (copyright 1992, Gaussian, Inc.),
 the Gaussian 90(TM) system (copyright 1990, Gaussian, Inc.),
 the Gaussian 88(TM) system (copyright 1988, Gaussian, Inc.),
 the Gaussian 86(TM) system (copyright 1986, Carnegie Mellon
 University), and the Gaussian 82(TM) system (copyright 1983,
 Carnegie Mellon University). Gaussian is a federally registered
 trademark of Gaussian, Inc.
  
 This software contains proprietary and confidential information,
 including trade secrets, belonging to Gaussian, Inc.
  
 This software is provided under written license and may be
 used, copied, transmitted, or stored only in accord with that
 written license.
  
 The following legend is applicable only to US Government
 contracts under FAR:
  
                    RESTRICTED RIGHTS LEGEND
  
 Use, reproduction and disclosure by the US Government is
 subject to restrictions as set forth in subparagraphs (a)
 and (c) of the Commercial Computer Software - Restricted
 Rights clause in FAR 52.227-19.
  
 Gaussian, Inc.
 340 Quinnipiac St., Bldg. 40, Wallingford CT 06492
  
  
 ---------------------------------------------------------------
 Warning -- This program may not be used in any manner that
 competes with the business of Gaussian, Inc. or will provide
 assistance to any competitor of Gaussian, Inc.  The licensee
 of this program is prohibited from giving any competitor of
 Gaussian, Inc. access to this program.  By using this program,
 the user acknowledges that Gaussian, Inc. is engaged in the
 business of creating and licensing software in the field of
 computational chemistry and represents and warrants to the
 licensee that it is not a competitor of Gaussian, Inc. and that
 it will not use this program in any manner prohibited above.
 ---------------------------------------------------------------
  

 Cite this work as:
 Gaussian 16, Revision A.03,
 M. J. Frisch, G. W. Trucks, H. B. Schlegel, G. E. Scuseria, 
 M. A. Robb, J. R. Cheeseman, G. Scalmani, V. Barone, 
 G. A. Petersson, H. Nakatsuji, X. Li, M. Caricato, A. V. Marenich, 
 J. Bloino, B. G. Janesko, R. Gomperts, B. Mennucci, H. P. Hratchian, 
 J. V. Ortiz, A. F. Izmaylov, J. L. Sonnenberg, D. Williams-Young, 
 F. Ding, F. Lipparini, F. Egidi, J. Goings, B. Peng, A. Petrone, 
 T. Henderson, D. Ranasinghe, V. G. Zakrzewski, J. Gao, N. Rega, 
 G. Zheng, W. Liang, M. Hada, M. Ehara, K. Toyota, R. Fukuda, 
 J. Hasegawa, M. Ishida, T. Nakajima, Y. Honda, O. Kitao, H. Nakai, 
 T. Vreven, K. Throssell, J. A. Montgomery, Jr., J. E. Peralta, 
 F. Ogliaro, M. J. Bearpark, J. J. Heyd, E. N. Brothers, K. N. Kudin, 
 V. N. Staroverov, T. A. Keith, R. Kobayashi, J. Normand, 
 K. Raghavachari, A. P. Rendell, J. C. Burant, S. S. Iyengar, 
 J. Tomasi, M. Cossi, J. M. Millam, M. Klene, C. Adamo, R. Cammi, 
 J. W. Ochterski, R. L. Martin, K. Morokuma, O. Farkas, 
 J. B. Foresman, and D. J. Fox, Gaussian, Inc., Wallingford CT, 2016.
 
 ******************************************
 Gaussian 16:  EM64L-G16RevA.03 25-Dec-2016
                27-Jan-2021 
 ******************************************
 %mem=30GB
 %nproc=8
 Will use up to    8 processors via shared memory.
 ----------------------------------------------------------------------
 #P LC-wHPBE/TZVP iop(3/107=0191400000, 3/108=0191400000) scf=(conver=6
 ,fermi,ndamp=35,noincfock,novaracc,vshift=500,xqc)
 ----------------------------------------------------------------------
 1/38=1,172=1/1;
 2/12=2,17=6,18=5,40=1/2;
 3/5=19,7=101,11=2,25=1,30=1,74=-71,107=191400000,108=191400000/1,2,3;
 4//1;
 5/5=100002,6=6,8=3,10=500,13=1,18=-1,22=13,38=1,93=35/2,8;
 6/7=2,8=2,9=2,10=2,28=1/1;
 99/5=1,9=1/99;
 Leave Link    1 at Wed Jan 27 07:12:10 2021, MaxMem=  4026531840 cpu:               1.9 elap:               0.3
 (Enter /opt/ohpc/pub/libs/gaussian/g16-A.03/sandybridge/g16/l101.exe)
 -------------
 H32 C26 S2 N4
 -------------
 Symbolic Z-matrix:
 Charge =  3 Multiplicity = 2
 C                    -2.92895  -0.20959  -0.46643 
 C                    -1.56391  -0.06118  -0.30379 
 S                    -0.54963  -0.92994  -1.46504 
 C                    -1.08049   0.7448    0.70659 
 C                     1.72098  -1.17803   0.12402 
 C                     1.10473  -0.55679  -0.96128 
 C                    -3.80444   0.45306   0.37376 
 C                    -1.95757   1.39872   1.5461 
 H                    -0.01706   0.86739   0.84383 
 C                     3.05531  -0.9059    0.3754 
 C                     1.83438   0.30367  -1.7635 
 C                     3.15732   0.57014  -1.50685 
 C                     3.77282  -0.04371  -0.42944 
 H                     3.53594  -1.38585   1.21576 
 H                     1.34641   0.76308  -2.61 
 H                     3.71103   1.22712  -2.16041 
 C                    -3.31633   1.26263   1.38651 
 H                    -3.30996  -0.82598  -1.26894 
 H                    -0.12139  -2.54684   0.4375 
 H                    -1.57041   2.02093   2.33906 
 H                    -3.99396   1.76653   2.0594 
 S                     0.92347  -2.27951   1.22941 
 C                     5.17937   0.18663  -0.15991 
 C                     6.25826   1.01319  -0.19424 
 C                     6.37398  -0.29155   0.281 
 N                     6.77888   2.1722   -0.46639 
 N                     7.08584  -1.26425   0.76507 
 C                     5.94379   3.27428  -0.90768 
 H                     6.18795   3.5455   -1.93194 
 H                     4.89881   2.99417  -0.84651 
 H                     6.10895   4.1348   -0.26479 
 C                     8.19498   2.45119  -0.31831 
 H                     8.53714   3.01109  -1.1837 
 H                     8.38087   3.03907   0.57771 
 H                     8.75822   1.52753  -0.27382 
 C                     6.51597  -2.58961   0.93143 
 H                     6.46052  -2.8465    1.98643 
 H                     5.52424  -2.62481   0.4964 
 H                     7.14039  -3.31844   0.42172 
 C                     8.48493  -1.11201   1.11844 
 H                     8.66773  -1.62125   2.05998 
 H                     9.12592  -1.5452    0.35389 
 H                     8.72829  -0.06533   1.25212 
 C                    -5.23491   0.30144   0.19256 
 C                    -6.48221   0.8377    0.27429 
 C                    -6.2962   -0.46914  -0.16637 
 N                    -7.25832   1.84294   0.55157 
 N                    -6.77161  -1.60175  -0.5935 
 C                    -6.6997    3.13527   0.90486 
 H                    -6.94343   3.38264   1.93526 
 H                    -5.62343   3.11982   0.78042 
 H                    -7.11117   3.89934   0.25065 
 C                    -8.70492   1.7578    0.48653 
 H                    -9.12754   2.25749   1.35324 
 H                    -9.08035   2.23816  -0.41432 
 H                    -9.02284   0.72292   0.50958 
 C                    -5.90293  -2.75078  -0.76879 
 H                    -5.85073  -3.02756  -1.81903 
 H                    -4.90858  -2.52128  -0.40444 
 H                    -6.2922   -3.59128  -0.20018 
 C                    -8.18148  -1.80619  -0.86682 
 H                    -8.28372  -2.37526  -1.7861 
 H                    -8.6573   -2.35626  -0.05791 
 H                    -8.67988  -0.85495  -1.00634 
 
 ITRead=  0  0  0  0  0  0  0  0  0  0  0  0  0  0  0  0  0  0  0  0
 ITRead=  0  0  0  0  0  0  0  0  0  0  0  0  0  0  0  0  0  0  0  0
 ITRead=  0  0  0  0  0  0  0  0  0  0  0  0  0  0  0  0  0  0  0  0
 ITRead=  0  0  0  0
 MicOpt= -1 -1 -1 -1 -1 -1 -1 -1 -1 -1 -1 -1 -1 -1 -1 -1 -1 -1 -1 -1
 MicOpt= -1 -1 -1 -1 -1 -1 -1 -1 -1 -1 -1 -1 -1 -1 -1 -1 -1 -1 -1 -1
 MicOpt= -1 -1 -1 -1 -1 -1 -1 -1 -1 -1 -1 -1 -1 -1 -1 -1 -1 -1 -1 -1
 MicOpt= -1 -1 -1 -1
 NAtoms=     64 NQM=       64 NQMF=       0 NMMI=      0 NMMIF=      0
                NMic=       0 NMicF=      0.
                    Isotopes and Nuclear Properties:
 (Nuclear quadrupole moments (NQMom) in fm**2, nuclear magnetic moments (NMagM)
  in nuclear magnetons)

  Atom         1           2           3           4           5           6           7           8           9          10
 IAtWgt=          12          12          32          12          12          12          12          12           1          12
 AtmWgt=  12.0000000  12.0000000  31.9720718  12.0000000  12.0000000  12.0000000  12.0000000  12.0000000   1.0078250  12.0000000
 NucSpn=           0           0           0           0           0           0           0           0           1           0
 AtZEff=  -0.0000000  -0.0000000  -0.0000000  -0.0000000  -0.0000000  -0.0000000  -0.0000000  -0.0000000  -0.0000000  -0.0000000
 NQMom=    0.0000000   0.0000000   0.0000000   0.0000000   0.0000000   0.0000000   0.0000000   0.0000000   0.0000000   0.0000000
 NMagM=    0.0000000   0.0000000   0.0000000   0.0000000   0.0000000   0.0000000   0.0000000   0.0000000   2.7928460   0.0000000
 AtZNuc=   6.0000000   6.0000000  16.0000000   6.0000000   6.0000000   6.0000000   6.0000000   6.0000000   1.0000000   6.0000000

  Atom        11          12          13          14          15          16          17          18          19          20
 IAtWgt=          12          12          12           1           1           1          12           1           1           1
 AtmWgt=  12.0000000  12.0000000  12.0000000   1.0078250   1.0078250   1.0078250  12.0000000   1.0078250   1.0078250   1.0078250
 NucSpn=           0           0           0           1           1           1           0           1           1           1
 AtZEff=  -0.0000000  -0.0000000  -0.0000000  -0.0000000  -0.0000000  -0.0000000  -0.0000000  -0.0000000  -0.0000000  -0.0000000
 NQMom=    0.0000000   0.0000000   0.0000000   0.0000000   0.0000000   0.0000000   0.0000000   0.0000000   0.0000000   0.0000000
 NMagM=    0.0000000   0.0000000   0.0000000   2.7928460   2.7928460   2.7928460   0.0000000   2.7928460   2.7928460   2.7928460
 AtZNuc=   6.0000000   6.0000000   6.0000000   1.0000000   1.0000000   1.0000000   6.0000000   1.0000000   1.0000000   1.0000000

  Atom        21          22          23          24          25          26          27          28          29          30
 IAtWgt=           1          32          12          12          12          14          14          12           1           1
 AtmWgt=   1.0078250  31.9720718  12.0000000  12.0000000  12.0000000  14.0030740  14.0030740  12.0000000   1.0078250   1.0078250
 NucSpn=           1           0           0           0           0           2           2           0           1           1
 AtZEff=  -0.0000000  -0.0000000  -0.0000000  -0.0000000  -0.0000000  -0.0000000  -0.0000000  -0.0000000  -0.0000000  -0.0000000
 NQMom=    0.0000000   0.0000000   0.0000000   0.0000000   0.0000000   2.0440000   2.0440000   0.0000000   0.0000000   0.0000000
 NMagM=    2.7928460   0.0000000   0.0000000   0.0000000   0.0000000   0.4037610   0.4037610   0.0000000   2.7928460   2.7928460
 AtZNuc=   1.0000000  16.0000000   6.0000000   6.0000000   6.0000000   7.0000000   7.0000000   6.0000000   1.0000000   1.0000000

  Atom        31          32          33          34          35          36          37          38          39          40
 IAtWgt=           1          12           1           1           1          12           1           1           1          12
 AtmWgt=   1.0078250  12.0000000   1.0078250   1.0078250   1.0078250  12.0000000   1.0078250   1.0078250   1.0078250  12.0000000
 NucSpn=           1           0           1           1           1           0           1           1           1           0
 AtZEff=  -0.0000000  -0.0000000  -0.0000000  -0.0000000  -0.0000000  -0.0000000  -0.0000000  -0.0000000  -0.0000000  -0.0000000
 NQMom=    0.0000000   0.0000000   0.0000000   0.0000000   0.0000000   0.0000000   0.0000000   0.0000000   0.0000000   0.0000000
 NMagM=    2.7928460   0.0000000   2.7928460   2.7928460   2.7928460   0.0000000   2.7928460   2.7928460   2.7928460   0.0000000
 AtZNuc=   1.0000000   6.0000000   1.0000000   1.0000000   1.0000000   6.0000000   1.0000000   1.0000000   1.0000000   6.0000000

  Atom        41          42          43          44          45          46          47          48          49          50
 IAtWgt=           1           1           1          12          12          12          14          14          12           1
 AtmWgt=   1.0078250   1.0078250   1.0078250  12.0000000  12.0000000  12.0000000  14.0030740  14.0030740  12.0000000   1.0078250
 NucSpn=           1           1           1           0           0           0           2           2           0           1
 AtZEff=  -0.0000000  -0.0000000  -0.0000000  -0.0000000  -0.0000000  -0.0000000  -0.0000000  -0.0000000  -0.0000000  -0.0000000
 NQMom=    0.0000000   0.0000000   0.0000000   0.0000000   0.0000000   0.0000000   2.0440000   2.0440000   0.0000000   0.0000000
 NMagM=    2.7928460   2.7928460   2.7928460   0.0000000   0.0000000   0.0000000   0.4037610   0.4037610   0.0000000   2.7928460
 AtZNuc=   1.0000000   1.0000000   1.0000000   6.0000000   6.0000000   6.0000000   7.0000000   7.0000000   6.0000000   1.0000000

  Atom        51          52          53          54          55          56          57          58          59          60
 IAtWgt=           1           1          12           1           1           1          12           1           1           1
 AtmWgt=   1.0078250   1.0078250  12.0000000   1.0078250   1.0078250   1.0078250  12.0000000   1.0078250   1.0078250   1.0078250
 NucSpn=           1           1           0           1           1           1           0           1           1           1
 AtZEff=  -0.0000000  -0.0000000  -0.0000000  -0.0000000  -0.0000000  -0.0000000  -0.0000000  -0.0000000  -0.0000000  -0.0000000
 NQMom=    0.0000000   0.0000000   0.0000000   0.0000000   0.0000000   0.0000000   0.0000000   0.0000000   0.0000000   0.0000000
 NMagM=    2.7928460   2.7928460   0.0000000   2.7928460   2.7928460   2.7928460   0.0000000   2.7928460   2.7928460   2.7928460
 AtZNuc=   1.0000000   1.0000000   6.0000000   1.0000000   1.0000000   1.0000000   6.0000000   1.0000000   1.0000000   1.0000000

  Atom        61          62          63          64
 IAtWgt=          12           1           1           1
 AtmWgt=  12.0000000   1.0078250   1.0078250   1.0078250
 NucSpn=           0           1           1           1
 AtZEff=  -0.0000000  -0.0000000  -0.0000000  -0.0000000
 NQMom=    0.0000000   0.0000000   0.0000000   0.0000000
 NMagM=    0.0000000   2.7928460   2.7928460   2.7928460
 AtZNuc=   6.0000000   1.0000000   1.0000000   1.0000000
 Leave Link  101 at Wed Jan 27 07:12:10 2021, MaxMem=  4026531840 cpu:               0.9 elap:               0.1
 (Enter /opt/ohpc/pub/libs/gaussian/g16-A.03/sandybridge/g16/l202.exe)
 Stoichiometry    C26H32N4S2(3+,2)
 Framework group  C1[X(C26H32N4S2)]
 Deg. of freedom   186
 Full point group                 C1      NOp   1
 Largest Abelian subgroup         C1      NOp   1
 Largest concise Abelian subgroup C1      NOp   1
                         Standard orientation:                         
 ---------------------------------------------------------------------
 Center     Atomic      Atomic             Coordinates (Angstroms)
 Number     Number       Type             X           Y           Z
 ---------------------------------------------------------------------
      1          6           0        2.928949   -0.209586    0.466429
      2          6           0        1.563914   -0.061175    0.303790
      3         16           0        0.549634   -0.929940    1.465043
      4          6           0        1.080492    0.744795   -0.706590
      5          6           0       -1.720975   -1.178026   -0.124019
      6          6           0       -1.104728   -0.556786    0.961278
      7          6           0        3.804439    0.453059   -0.373760
      8          6           0        1.957571    1.398720   -1.546095
      9          1           0        0.017059    0.867388   -0.843825
     10          6           0       -3.055310   -0.905897   -0.375396
     11          6           0       -1.834379    0.303673    1.763498
     12          6           0       -3.157322    0.570140    1.506853
     13          6           0       -3.772824   -0.043708    0.429435
     14          1           0       -3.535939   -1.385849   -1.215765
     15          1           0       -1.346414    0.763075    2.610001
     16          1           0       -3.711030    1.227115    2.160412
     17          6           0        3.316329    1.262630   -1.386512
     18          1           0        3.309964   -0.825983    1.268943
     19          1           0        0.121390   -2.546838   -0.437504
     20          1           0        1.570409    2.020933   -2.339064
     21          1           0        3.993957    1.766527   -2.059405
     22         16           0       -0.923466   -2.279512   -1.229412
     23          6           0       -5.179371    0.186625    0.159910
     24          6           0       -6.258258    1.013194    0.194238
     25          6           0       -6.373984   -0.291545   -0.281001
     26          7           0       -6.778879    2.172200    0.466391
     27          7           0       -7.085837   -1.264246   -0.765069
     28          6           0       -5.943792    3.274283    0.907684
     29          1           0       -6.187951    3.545500    1.931936
     30          1           0       -4.898805    2.994168    0.846509
     31          1           0       -6.108951    4.134804    0.264794
     32          6           0       -8.194976    2.451187    0.318309
     33          1           0       -8.537142    3.011091    1.183702
     34          1           0       -8.380874    3.039067   -0.577705
     35          1           0       -8.758216    1.527533    0.273817
     36          6           0       -6.515968   -2.589608   -0.931428
     37          1           0       -6.460524   -2.846499   -1.986434
     38          1           0       -5.524243   -2.624805   -0.496396
     39          1           0       -7.140387   -3.318442   -0.421721
     40          6           0       -8.484929   -1.112006   -1.118438
     41          1           0       -8.667734   -1.621246   -2.059984
     42          1           0       -9.125917   -1.545202   -0.353886
     43          1           0       -8.728287   -0.065327   -1.252120
     44          6           0        5.234909    0.301436   -0.192555
     45          6           0        6.482207    0.837696   -0.274291
     46          6           0        6.296202   -0.469144    0.166373
     47          7           0        7.258316    1.842942   -0.551570
     48          7           0        6.771609   -1.601745    0.593499
     49          6           0        6.699705    3.135271   -0.904858
     50          1           0        6.943427    3.382636   -1.935256
     51          1           0        5.623434    3.119821   -0.780416
     52          1           0        7.111169    3.899344   -0.250646
     53          6           0        8.704916    1.757804   -0.486526
     54          1           0        9.127537    2.257490   -1.353238
     55          1           0        9.080352    2.238157    0.414316
     56          1           0        9.022841    0.722915   -0.509579
     57          6           0        5.902929   -2.750782    0.768792
     58          1           0        5.850729   -3.027562    1.819029
     59          1           0        4.908582   -2.521281    0.404440
     60          1           0        6.292204   -3.591280    0.200176
     61          6           0        8.181475   -1.806186    0.866823
     62          1           0        8.283723   -2.375263    1.786100
     63          1           0        8.657299   -2.356258    0.057912
     64          1           0        8.679880   -0.854950    1.006340
 ---------------------------------------------------------------------
 Rotational constants (GHZ):           0.3037259           0.0375439           0.0353071
 Leave Link  202 at Wed Jan 27 07:12:10 2021, MaxMem=  4026531840 cpu:               0.1 elap:               0.0
 (Enter /opt/ohpc/pub/libs/gaussian/g16-A.03/sandybridge/g16/l301.exe)
 Standard basis: TZVP (5D, 7F)
 Ernie: Thresh=  0.10000D-02 Tol=  0.10000D-05 Strict=F.
 There are   838 symmetry adapted cartesian basis functions of A   symmetry.
 There are   806 symmetry adapted basis functions of A   symmetry.
   806 basis functions,  1400 primitive gaussians,   838 cartesian basis functions
   123 alpha electrons      122 beta electrons
       nuclear repulsion energy      3278.9471045421 Hartrees.
 IExCor=33909 DFT=T Ex+Corr=LC-wHPBE ExCW=0 ScaHFX=  1.000000
 ScaDFX=  1.000000  1.000000  1.000000  1.000000 ScalE2=  1.000000  1.000000
 IRadAn=      5 IRanWt=     -1 IRanGd=            0 ICorTp=0 IEmpDi=  4
 HFx  wShort=  0.000000 wLong=  0.191400 cFull=  0.000000 cShort=  0.000000 cLong=  1.000000
 DFx  wShort=  0.000000 wLong=  0.191400 cFull=  0.000000 cShort=  1.000000 cLong=  0.000000
 NAtoms=   64 NActive=   64 NUniq=   64 SFac= 1.00D+00 NAtFMM=   60 NAOKFM=T Big=T
 Integral buffers will be    131072 words long.
 Raffenetti 2 integral format.
 Two-electron integral symmetry is turned on.
 Leave Link  301 at Wed Jan 27 07:12:10 2021, MaxMem=  4026531840 cpu:               0.5 elap:               0.1
 (Enter /opt/ohpc/pub/libs/gaussian/g16-A.03/sandybridge/g16/l302.exe)
 NPDir=0 NMtPBC=     1 NCelOv=     1 NCel=       1 NClECP=     1 NCelD=      1
         NCelK=      1 NCelE2=     1 NClLst=     1 CellRange=     0.0.
 One-electron integrals computed using PRISM.
 One-electron integral symmetry used in STVInt
 NBasis=   806 RedAO= T EigKep=  6.39D-06  NBF=   806
 NBsUse=   806 1.00D-06 EigRej= -1.00D+00 NBFU=   806
 Precomputing XC quadrature grid using
 IXCGrd= 4 IRadAn=           5 IRanWt=          -1 IRanGd=           0 AccXCQ= 0.00D+00.
 Generated NRdTot=       0 NPtTot=           0 NUsed=           0 NTot=          32
 NSgBfM=   770   766   769   770   770 MxSgAt=    64 MxSgA2=    64.
 Leave Link  302 at Wed Jan 27 07:12:12 2021, MaxMem=  4026531840 cpu:              18.5 elap:               2.3
 (Enter /opt/ohpc/pub/libs/gaussian/g16-A.03/sandybridge/g16/l303.exe)
 DipDrv:  MaxL=1.
 Leave Link  303 at Wed Jan 27 07:12:12 2021, MaxMem=  4026531840 cpu:               1.4 elap:               0.2
 (Enter /opt/ohpc/pub/libs/gaussian/g16-A.03/sandybridge/g16/l401.exe)
 ExpMin= 9.52D-02 ExpMax= 6.07D+04 ExpMxC= 2.07D+03 IAcc=3 IRadAn=         5 AccDes= 0.00D+00
 Harris functional with IExCor=33909 and IRadAn=       5 diagonalized for initial guess.
 HarFok:  IExCor=33909 AccDes= 0.00D+00 IRadAn=         5 IDoV= 1 UseB2=F ITyADJ=14
 ICtDFT=  3500011 ScaDFX=  1.000000  1.000000  1.000000  1.000000
 FoFCou: FMM=F IPFlag=           0 FMFlag=      100000 FMFlg1=        2001
         NFxFlg=           0 DoJE=T BraDBF=F KetDBF=T FulRan=T
         wScrn=  0.000000 ICntrl=       500 IOpCl=  0 I1Cent=   200000004 NGrid=           0
         NMat0=    1 NMatS0=      1 NMatT0=    0 NMatD0=    1 NMtDS0=    0 NMtDT0=    0
 Petite list used in FoFCou.
 Harris En= -1998.43871807196    
 JPrj=0 DoOrth=F DoCkMO=F.
 Initial guess <Sx>= 0.0000 <Sy>= 0.0000 <Sz>= 0.5000 <S**2>= 0.7500 S= 0.5000
 Leave Link  401 at Wed Jan 27 07:12:24 2021, MaxMem=  4026531840 cpu:              91.0 elap:              11.4
 (Enter /opt/ohpc/pub/libs/gaussian/g16-A.03/sandybridge/g16/l502.exe)
 Integral symmetry usage will be decided dynamically.
 UHF open shell SCF:
 Using DIIS extrapolation, IDIIS=    10.
 NGot=  4026531840 LenX=  4025112240 LenY=  4024409158
 Requested convergence on RMS density matrix=1.00D-06 within  32 cycles.
 Requested convergence on MAX density matrix=1.00D-04.
 Requested convergence on             energy=1.00D-04.
 Virtual orbitals will be shifted by   0.500 hartree.
 No special actions if energy rises.
 Dynamic level shift is on during FON iterations.

 Cycle   1  Pass 1  IDiag  1:
 FoFJK:  IHMeth= 1 ICntrl=       0 DoSepK=T KAlg= 0 I1Cent=           0 FoldK=F
 IRaf=         1 NMat=       1 IRICut=       1 DoRegI=T DoRafI=F ISym2E= 0 IDoP0=0 IntGTp=1.
 FoFCou: FMM=T IPFlag=           0 FMFlag=      100000 FMFlg1=        2001
         NFxFlg=           0 DoJE=T BraDBF=F KetDBF=F FulRan=T
         wScrn=  0.000000 ICntrl=       500 IOpCl=  0 I1Cent=           0 NGrid=           0
         NMat0=    1 NMatS0=      1 NMatT0=    0 NMatD0=    1 NMtDS0=    0 NMtDT0=    0
 Symmetry not used in FoFCou.
 FMM levels:  10  Number of levels for PrismC:   9
 E= -2022.71806367007    
 DIIS: error= 2.88D-02 at cycle   1 NSaved=   1.
 NSaved= 1 IEnMin= 1 EnMin= -2022.71806367007     IErMin= 1 ErrMin= 2.88D-02
 ErrMax= 2.88D-02  0.00D+00 EMaxC= 1.00D+00 BMatC= 2.46D+00 BMatP= 2.46D+00
 IDIUse=1 WtCom= 1.00D+00 WtEn= 0.00D+00
 Coeff-Com:  0.100D+01
 Coeff:      0.100D+01
 Gap=     0.488 Goal=   None    Shift=    0.500
 T= 1471. Gap= 0.646 NK=0 IS=  124 IE=  806 IFin=  123
          NO(<0.9)=   0  NV(>0.1)=   0    123.00e < EF      0.00e >EF  Err=0.0D+00
 Gap=     0.103 Goal=   None    Shift=    0.500
 T= 1471. Gap= 0.432 NK=0 IS=  123 IE=  806 IFin=  122
          NO(<0.9)=   0  NV(>0.1)=   0    122.00e < EF      0.00e >EF  Err=0.0D+00
 GapD=    0.103 DampG=1.000 DampE=0.500 DampFc=0.5000 IDamp=-1.
 Damping current iteration by 5.00D-01
 RMSDP=4.02D-03 MaxDP=6.93D-01              OVMax= 1.07D-01

 Cycle   2  Pass 1  IDiag  1:
 E= -2023.09386579248     Delta-E=       -0.375802122407 Rises=F Damp=T
 DIIS: error= 1.21D-02 at cycle   2 NSaved=   2.
 NSaved= 2 IEnMin= 2 EnMin= -2023.09386579248     IErMin= 2 ErrMin= 1.21D-02
 ErrMax= 1.21D-02  0.00D+00 EMaxC= 1.00D+00 BMatC= 3.68D-01 BMatP= 2.46D+00
 IDIUse=1 WtCom= 1.00D+00 WtEn= 0.00D+00
 Coeff-Com: -0.515D+00 0.152D+01
 Coeff:     -0.515D+00 0.152D+01
 Gap=     0.308 Goal=   None    Shift=    0.500
 T= 1342. Gap= 0.727 NK=0 IS=  124 IE=  806 IFin=  123
          NO(<0.9)=   0  NV(>0.1)=   0    123.00e < EF      0.00e >EF  Err=0.0D+00
 Gap=     0.104 Goal=   None    Shift=    0.500
 T= 1342. Gap= 0.575 NK=0 IS=  123 IE=  806 IFin=  122
          NO(<0.9)=   0  NV(>0.1)=   0    122.00e < EF      0.00e >EF  Err=0.0D+00
 GapD=    0.104 DampG=1.000 DampE=0.500 DampFc=0.5000 IDamp=-1.
 Damping current iteration by 5.00D-01
 RMSDP=2.13D-03 MaxDP=2.39D-01 DE=-3.76D-01 OVMax= 2.12D-02

 Cycle   3  Pass 1  IDiag  1:
 E= -2023.21513880483     Delta-E=       -0.121273012349 Rises=F Damp=T
 DIIS: error= 6.68D-03 at cycle   3 NSaved=   3.
 NSaved= 3 IEnMin= 3 EnMin= -2023.21513880483     IErMin= 3 ErrMin= 6.68D-03
 ErrMax= 6.68D-03  0.00D+00 EMaxC= 1.00D+00 BMatC= 6.60D-02 BMatP= 3.68D-01
 IDIUse=1 WtCom= 1.00D+00 WtEn= 0.00D+00
 Coeff-Com:  0.126D+00-0.108D+01 0.196D+01
 Coeff:      0.126D+00-0.108D+01 0.196D+01
 Gap=     0.244 Goal=   None    Shift=    0.500
 T= 1113. Gap= 0.744 NK=0 IS=  124 IE=  806 IFin=  123
          NO(<0.9)=   0  NV(>0.1)=   0    123.00e < EF      0.00e >EF  Err=0.0D+00
 Gap=     0.101 Goal=   None    Shift=    0.500
 T= 1113. Gap= 0.601 NK=0 IS=  123 IE=  806 IFin=  122
          NO(<0.9)=   0  NV(>0.1)=   0    122.00e < EF      0.00e >EF  Err=0.0D+00
 GapD=    0.101 DampG=1.000 DampE=1.000 DampFc=1.0000 IDamp=-1.
 RMSDP=1.37D-03 MaxDP=1.79D-01 DE=-1.21D-01 OVMax= 1.49D-02

 Cycle   4  Pass 1  IDiag  1:
 E= -2023.31584725084     Delta-E=       -0.100708446011 Rises=F Damp=F
 DIIS: error= 1.67D-03 at cycle   4 NSaved=   4.
 NSaved= 4 IEnMin= 4 EnMin= -2023.31584725084     IErMin= 4 ErrMin= 1.67D-03
 ErrMax= 1.67D-03  0.00D+00 EMaxC= 1.00D+00 BMatC= 4.26D-03 BMatP= 6.60D-02
 IDIUse=1 WtCom= 1.00D+00 WtEn= 0.00D+00
 Coeff-Com:  0.631D-01-0.726D-01-0.584D-01 0.107D+01
 Coeff:      0.631D-01-0.726D-01-0.584D-01 0.107D+01
 Gap=     0.244 Goal=   None    Shift=    0.500
 T=  608. Gap= 0.744 NK=4 IS=  124 IE=  137 IFin=  123
          NO(<0.9)=   0  NV(>0.1)=   0    123.00e < EF      0.00e >EF  Err=0.0D+00
 Gap=     0.102 Goal=   None    Shift=    0.500
 T=  608. Gap= 0.603 NK=4 IS=  123 IE=  136 IFin=  122
          NO(<0.9)=   0  NV(>0.1)=   0    122.00e < EF      0.00e >EF  Err=0.0D+00
 GapD=    0.102 DampG=1.000 DampE=1.000 DampFc=1.0000 IDamp=-1.
 RMSDP=2.89D-04 MaxDP=5.23D-02 DE=-1.01D-01 OVMax= 1.46D-02

 Cycle   5  Pass 1  IDiag  1:
 E= -2023.31779769904     Delta-E=       -0.001950448197 Rises=F Damp=F
 DIIS: error= 1.72D-03 at cycle   5 NSaved=   5.
 NSaved= 5 IEnMin= 5 EnMin= -2023.31779769904     IErMin= 4 ErrMin= 1.67D-03
 ErrMax= 1.72D-03  0.00D+00 EMaxC= 1.00D+00 BMatC= 1.08D-03 BMatP= 4.26D-03
 IDIUse=1 WtCom= 1.00D+00 WtEn= 0.00D+00
 Coeff-Com: -0.118D-01 0.221D+00-0.427D+00 0.677D-01 0.115D+01
 Coeff:     -0.118D-01 0.221D+00-0.427D+00 0.677D-01 0.115D+01
 Gap=     0.246 Goal=   None    Shift=    0.500
 T=  182. Gap= 0.746 NK=4 IS=  124 IE=  137 IFin=  123
          NO(<0.9)=   0  NV(>0.1)=   0    123.00e < EF      0.00e >EF  Err=0.0D+00
 Gap=     0.105 Goal=   None    Shift=    0.500
 T=  182. Gap= 0.605 NK=4 IS=  123 IE=  136 IFin=  122
          NO(<0.9)=   0  NV(>0.1)=   0    122.00e < EF      0.00e >EF  Err=0.0D+00
 GapD=    0.105 DampG=1.000 DampE=1.000 DampFc=1.0000 IDamp=-1.
 RMSDP=1.67D-04 MaxDP=3.02D-02 DE=-1.95D-03 OVMax= 1.39D-02

 Cycle   6  Pass 1  IDiag  1:
 E= -2023.31868158631     Delta-E=       -0.000883887278 Rises=F Damp=F
 DIIS: error= 1.54D-03 at cycle   6 NSaved=   6.
 NSaved= 6 IEnMin= 6 EnMin= -2023.31868158631     IErMin= 6 ErrMin= 1.54D-03
 ErrMax= 1.54D-03  0.00D+00 EMaxC= 1.00D+00 BMatC= 4.26D-04 BMatP= 1.08D-03
 IDIUse=1 WtCom= 1.00D+00 WtEn= 0.00D+00
 Coeff-Com: -0.161D-01 0.205D-01 0.593D-03-0.353D+00-0.363D+00 0.171D+01
 Coeff:     -0.161D-01 0.205D-01 0.593D-03-0.353D+00-0.363D+00 0.171D+01
 Gap=     0.248 Goal=   None    Shift=    0.500
 Gap=     0.107 Goal=   None    Shift=    0.500
 GapD=    0.107 DampG=1.000 DampE=1.000 DampFc=1.0000 IDamp=-1.
 RMSDP=1.16D-04 MaxDP=2.00D-02 DE=-8.84D-04 OVMax= 1.37D-02

 Cycle   7  Pass 1  IDiag  1:
 E= -2023.31922427159     Delta-E=       -0.000542685273 Rises=F Damp=F
 DIIS: error= 1.33D-03 at cycle   7 NSaved=   7.
 NSaved= 7 IEnMin= 7 EnMin= -2023.31922427159     IErMin= 7 ErrMin= 1.33D-03
 ErrMax= 1.33D-03  0.00D+00 EMaxC= 1.00D+00 BMatC= 2.26D-04 BMatP= 4.26D-04
 IDIUse=1 WtCom= 1.00D+00 WtEn= 0.00D+00
 Coeff-Com:  0.201D-03-0.678D-01 0.127D+00-0.156D+00-0.471D+00 0.457D-01
 Coeff-Com:  0.152D+01
 Coeff:      0.201D-03-0.678D-01 0.127D+00-0.156D+00-0.471D+00 0.457D-01
 Coeff:      0.152D+01
 Gap=     0.248 Goal=   None    Shift=    0.500
 Gap=     0.108 Goal=   None    Shift=    0.500
 GapD=    0.108 DampG=1.000 DampE=1.000 DampFc=1.0000 IDamp=-1.
 RMSDP=7.67D-05 MaxDP=1.21D-02 DE=-5.43D-04 OVMax= 1.22D-02

 Cycle   8  Pass 1  IDiag  1:
 E= -2023.31955649111     Delta-E=       -0.000332219526 Rises=F Damp=F
 DIIS: error= 1.09D-03 at cycle   8 NSaved=   8.
 NSaved= 8 IEnMin= 8 EnMin= -2023.31955649111     IErMin= 8 ErrMin= 1.09D-03
 ErrMax= 1.09D-03  0.00D+00 EMaxC= 1.00D+00 BMatC= 1.29D-04 BMatP= 2.26D-04
 IDIUse=1 WtCom= 1.00D+00 WtEn= 0.00D+00
 Coeff-Com:  0.753D-02-0.227D-01 0.203D-01 0.186D+00 0.619D-01-0.115D+01
 Coeff-Com: -0.530D+00 0.243D+01
 Coeff:      0.753D-02-0.227D-01 0.203D-01 0.186D+00 0.619D-01-0.115D+01
 Coeff:     -0.530D+00 0.243D+01
 Gap=     0.248 Goal=   None    Shift=    0.500
 Gap=     0.108 Goal=   None    Shift=    0.500
 GapD=    0.108 DampG=1.000 DampE=1.000 DampFc=1.0000 IDamp=-1.
 RMSDP=6.65D-05 MaxDP=8.99D-03 DE=-3.32D-04 OVMax= 1.20D-02

 Cycle   9  Pass 1  IDiag  1:
 E= -2023.31979350519     Delta-E=       -0.000237014074 Rises=F Damp=F
 DIIS: error= 9.04D-04 at cycle   9 NSaved=   9.
 NSaved= 9 IEnMin= 9 EnMin= -2023.31979350519     IErMin= 9 ErrMin= 9.04D-04
 ErrMax= 9.04D-04  0.00D+00 EMaxC= 1.00D+00 BMatC= 8.60D-05 BMatP= 1.29D-04
 IDIUse=1 WtCom= 1.00D+00 WtEn= 0.00D+00
 Coeff-Com:  0.326D-02 0.175D-01-0.445D-01 0.199D+00 0.271D+00-0.881D+00
 Coeff-Com: -0.106D+01 0.120D+01 0.129D+01
 Coeff:      0.326D-02 0.175D-01-0.445D-01 0.199D+00 0.271D+00-0.881D+00
 Coeff:     -0.106D+01 0.120D+01 0.129D+01
 Gap=     0.248 Goal=   None    Shift=    0.500
 Gap=     0.109 Goal=   None    Shift=    0.500
 RMSDP=4.20D-05 MaxDP=5.54D-03 DE=-2.37D-04 OVMax= 9.95D-03

 Cycle  10  Pass 1  IDiag  1:
 E= -2023.31994708804     Delta-E=       -0.000153582857 Rises=F Damp=F
 DIIS: error= 7.35D-04 at cycle  10 NSaved=  10.
 NSaved=10 IEnMin=10 EnMin= -2023.31994708804     IErMin=10 ErrMin= 7.35D-04
 ErrMax= 7.35D-04  0.00D+00 EMaxC= 1.00D+00 BMatC= 5.53D-05 BMatP= 8.60D-05
 IDIUse=1 WtCom= 1.00D+00 WtEn= 0.00D+00
 Coeff-Com: -0.281D-02 0.989D-02-0.135D-01-0.776D-01 0.495D-01 0.559D+00
 Coeff-Com: -0.244D-01-0.122D+01-0.208D+01 0.380D+01
 Coeff:     -0.281D-02 0.989D-02-0.135D-01-0.776D-01 0.495D-01 0.559D+00
 Coeff:     -0.244D-01-0.122D+01-0.208D+01 0.380D+01
 Gap=     0.248 Goal=   None    Shift=    0.500
 Gap=     0.109 Goal=   None    Shift=    0.500
 RMSDP=4.07D-05 MaxDP=5.14D-03 DE=-1.54D-04 OVMax= 9.79D-03

 Cycle  11  Pass 1  IDiag  1:
 E= -2023.32006760317     Delta-E=       -0.000120515121 Rises=F Damp=F
 DIIS: error= 7.10D-04 at cycle  11 NSaved=  11.
 NSaved=11 IEnMin=11 EnMin= -2023.32006760317     IErMin=11 ErrMin= 7.10D-04
 ErrMax= 7.10D-04  0.00D+00 EMaxC= 1.00D+00 BMatC= 4.80D-05 BMatP= 5.53D-05
 IDIUse=1 WtCom= 1.00D+00 WtEn= 0.00D+00
 Coeff-Com: -0.300D-02 0.526D-02-0.389D-02-0.908D-01 0.257D-01 0.585D+00
 Coeff-Com:  0.598D-01-0.111D+01-0.219D+01 0.323D+01 0.499D+00
 Coeff:     -0.300D-02 0.526D-02-0.389D-02-0.908D-01 0.257D-01 0.585D+00
 Coeff:      0.598D-01-0.111D+01-0.219D+01 0.323D+01 0.499D+00
 Gap=     0.248 Goal=   None    Shift=    0.500
 Gap=     0.109 Goal=   None    Shift=    0.500
 RMSDP=2.39D-05 MaxDP=3.35D-03 DE=-1.21D-04 OVMax= 7.14D-03

 Cycle  12  Pass 1  IDiag  1:
 E= -2023.32014500649     Delta-E=       -0.000077403326 Rises=F Damp=F
 DIIS: error= 6.80D-04 at cycle  12 NSaved=  12.
 NSaved=12 IEnMin=12 EnMin= -2023.32014500649     IErMin=12 ErrMin= 6.80D-04
 ErrMax= 6.80D-04  0.00D+00 EMaxC= 1.00D+00 BMatC= 3.40D-05 BMatP= 4.80D-05
 IDIUse=1 WtCom= 1.00D+00 WtEn= 0.00D+00
 Coeff-Com:  0.947D-03-0.143D-01 0.244D-01-0.165D-01-0.662D-01-0.556D-02
 Coeff-Com:  0.217D+00 0.397D+00-0.475D+00-0.429D+00-0.293D+01 0.430D+01
 Coeff:      0.947D-03-0.143D-01 0.244D-01-0.165D-01-0.662D-01-0.556D-02
 Coeff:      0.217D+00 0.397D+00-0.475D+00-0.429D+00-0.293D+01 0.430D+01
 Gap=     0.249 Goal=   None    Shift=    0.500
 Gap=     0.109 Goal=   None    Shift=    0.500
 RMSDP=2.71D-05 MaxDP=3.60D-03 DE=-7.74D-05 OVMax= 6.89D-03

 Cycle  13  Pass 1  IDiag  1:
 E= -2023.32021036440     Delta-E=       -0.000065357913 Rises=F Damp=F
 DIIS: error= 6.52D-04 at cycle  13 NSaved=  13.
 NSaved=13 IEnMin=13 EnMin= -2023.32021036440     IErMin=13 ErrMin= 6.52D-04
 ErrMax= 6.52D-04  0.00D+00 EMaxC= 1.00D+00 BMatC= 3.30D-05 BMatP= 3.40D-05
 IDIUse=1 WtCom= 1.00D+00 WtEn= 0.00D+00
 Coeff-Com:  0.162D-02-0.818D-02 0.110D-01 0.452D-01-0.269D-01-0.301D+00
 Coeff-Com:  0.123D-01 0.907D+00 0.537D+00-0.120D+01-0.403D+01 0.394D+01
 Coeff-Com:  0.110D+01
 Coeff:      0.162D-02-0.818D-02 0.110D-01 0.452D-01-0.269D-01-0.301D+00
 Coeff:      0.123D-01 0.907D+00 0.537D+00-0.120D+01-0.403D+01 0.394D+01
 Coeff:      0.110D+01
 Gap=     0.249 Goal=   None    Shift=    0.500
 Gap=     0.109 Goal=   None    Shift=    0.500
 RMSDP=1.91D-05 MaxDP=2.34D-03 DE=-6.54D-05 OVMax= 5.38D-03

 Cycle  14  Pass 1  IDiag  1:
 E= -2023.32025946170     Delta-E=       -0.000049097294 Rises=F Damp=F
 DIIS: error= 6.21D-04 at cycle  14 NSaved=  14.
 NSaved=14 IEnMin=14 EnMin= -2023.32025946170     IErMin=14 ErrMin= 6.21D-04
 ErrMax= 6.21D-04  0.00D+00 EMaxC= 1.00D+00 BMatC= 2.56D-05 BMatP= 3.30D-05
 IDIUse=1 WtCom= 1.00D+00 WtEn= 0.00D+00
 Coeff-Com:  0.606D-03 0.184D-03-0.272D-02 0.317D-01 0.123D-02-0.103D+00
 Coeff-Com: -0.955D-01 0.213D+00 0.364D+00 0.362D+00-0.229D+01 0.122D+01
 Coeff-Com: -0.166D+01 0.296D+01
 Coeff:      0.606D-03 0.184D-03-0.272D-02 0.317D-01 0.123D-02-0.103D+00
 Coeff:     -0.955D-01 0.213D+00 0.364D+00 0.362D+00-0.229D+01 0.122D+01
 Coeff:     -0.166D+01 0.296D+01
 Gap=     0.249 Goal=   None    Shift=    0.500
 Gap=     0.109 Goal=   None    Shift=    0.500
 RMSDP=1.57D-05 MaxDP=1.90D-03 DE=-4.91D-05 OVMax= 4.92D-03

 Cycle  15  Pass 1  IDiag  1:
 E= -2023.32029835627     Delta-E=       -0.000038894570 Rises=F Damp=F
 DIIS: error= 5.92D-04 at cycle  15 NSaved=  15.
 NSaved=15 IEnMin=15 EnMin= -2023.32029835627     IErMin=15 ErrMin= 5.92D-04
 ErrMax= 5.92D-04  0.00D+00 EMaxC= 1.00D+00 BMatC= 2.02D-05 BMatP= 2.56D-05
 IDIUse=1 WtCom= 1.00D+00 WtEn= 0.00D+00
 Coeff-Com: -0.473D-03 0.899D-03-0.131D-02-0.178D-01 0.631D-02 0.169D+00
 Coeff-Com: -0.581D-01-0.439D+00-0.207D+00 0.141D+01-0.258D+00-0.460D+00
 Coeff-Com: -0.270D+01 0.150D+01 0.205D+01
 Coeff:     -0.473D-03 0.899D-03-0.131D-02-0.178D-01 0.631D-02 0.169D+00
 Coeff:     -0.581D-01-0.439D+00-0.207D+00 0.141D+01-0.258D+00-0.460D+00
 Coeff:     -0.270D+01 0.150D+01 0.205D+01
 Gap=     0.249 Goal=   None    Shift=    0.500
 Gap=     0.109 Goal=   None    Shift=    0.500
 RMSDP=1.32D-05 MaxDP=1.47D-03 DE=-3.89D-05 OVMax= 4.73D-03

 Cycle  16  Pass 1  IDiag  1:
 E= -2023.32033019722     Delta-E=       -0.000031840955 Rises=F Damp=F
 DIIS: error= 5.62D-04 at cycle  16 NSaved=  16.
 NSaved=16 IEnMin=16 EnMin= -2023.32033019722     IErMin=16 ErrMin= 5.62D-04
 ErrMax= 5.62D-04  0.00D+00 EMaxC= 1.00D+00 BMatC= 1.62D-05 BMatP= 2.02D-05
 IDIUse=1 WtCom= 1.00D+00 WtEn= 0.00D+00
 Coeff-Com: -0.660D-03-0.161D-02 0.430D-02-0.408D-01 0.115D-01 0.202D+00
 Coeff-Com: -0.629D-02-0.425D+00-0.409D+00 0.103D+01 0.389D+00-0.147D+00
 Coeff-Com: -0.128D+01-0.114D+01 0.462D+00 0.235D+01
 Coeff:     -0.660D-03-0.161D-02 0.430D-02-0.408D-01 0.115D-01 0.202D+00
 Coeff:     -0.629D-02-0.425D+00-0.409D+00 0.103D+01 0.389D+00-0.147D+00
 Coeff:     -0.128D+01-0.114D+01 0.462D+00 0.235D+01
 Gap=     0.249 Goal=   None    Shift=    0.500
 Gap=     0.109 Goal=   None    Shift=    0.500
 RMSDP=1.16D-05 MaxDP=1.16D-03 DE=-3.18D-05 OVMax= 4.57D-03

 Cycle  17  Pass 1  IDiag  1:
 E= -2023.32035733698     Delta-E=       -0.000027139760 Rises=F Damp=F
 DIIS: error= 5.34D-04 at cycle  17 NSaved=  17.
 NSaved=17 IEnMin=17 EnMin= -2023.32035733698     IErMin=17 ErrMin= 5.34D-04
 ErrMax= 5.34D-04  0.00D+00 EMaxC= 1.00D+00 BMatC= 1.33D-05 BMatP= 1.62D-05
 IDIUse=1 WtCom= 1.00D+00 WtEn= 0.00D+00
 Coeff-Com:  0.149D-03-0.361D-02 0.645D-02-0.136D-01 0.675D-02-0.259D-01
 Coeff-Com:  0.209D-01 0.203D+00-0.312D-01-0.458D+00-0.821D+00 0.172D+01
 Coeff-Com:  0.139D+01-0.214D+01-0.244D+01 0.486D+00 0.310D+01
 Coeff:      0.149D-03-0.361D-02 0.645D-02-0.136D-01 0.675D-02-0.259D-01
 Coeff:      0.209D-01 0.203D+00-0.312D-01-0.458D+00-0.821D+00 0.172D+01
 Coeff:      0.139D+01-0.214D+01-0.244D+01 0.486D+00 0.310D+01
 Gap=     0.249 Goal=   None    Shift=    0.500
 Gap=     0.109 Goal=   None    Shift=    0.500
 RMSDP=1.14D-05 MaxDP=1.09D-03 DE=-2.71D-05 OVMax= 4.67D-03

 Cycle  18  Pass 1  IDiag  1:
 E= -2023.32038223448     Delta-E=       -0.000024897493 Rises=F Damp=F
 DIIS: error= 5.06D-04 at cycle  18 NSaved=  18.
 NSaved=18 IEnMin=18 EnMin= -2023.32038223448     IErMin=18 ErrMin= 5.06D-04
 ErrMax= 5.06D-04  0.00D+00 EMaxC= 1.00D+00 BMatC= 1.18D-05 BMatP= 1.33D-05
 IDIUse=1 WtCom= 1.00D+00 WtEn= 0.00D+00
 Coeff-Com:  0.338D-03-0.342D-02 0.555D-02-0.193D-02-0.374D-02-0.568D-01
 Coeff-Com:  0.205D-01 0.262D+00 0.907D-01-0.515D+00-0.135D+01 0.199D+01
 Coeff-Com:  0.132D+01-0.106D+01-0.250D+01-0.540D+00 0.206D+01 0.128D+01
 Coeff:      0.338D-03-0.342D-02 0.555D-02-0.193D-02-0.374D-02-0.568D-01
 Coeff:      0.205D-01 0.262D+00 0.907D-01-0.515D+00-0.135D+01 0.199D+01
 Coeff:      0.132D+01-0.106D+01-0.250D+01-0.540D+00 0.206D+01 0.128D+01
 Gap=     0.249 Goal=   None    Shift=    0.500
 Gap=     0.109 Goal=   None    Shift=    0.500
 RMSDP=9.24D-06 MaxDP=8.46D-04 DE=-2.49D-05 OVMax= 4.16D-03

 Cycle  19  Pass 1  IDiag  1:
 E= -2023.32040286505     Delta-E=       -0.000020630572 Rises=F Damp=F
 DIIS: error= 4.78D-04 at cycle  19 NSaved=  19.
 NSaved=19 IEnMin=19 EnMin= -2023.32040286505     IErMin=19 ErrMin= 4.78D-04
 ErrMax= 4.78D-04  0.00D+00 EMaxC= 1.00D+00 BMatC= 9.54D-06 BMatP= 1.18D-05
 IDIUse=1 WtCom= 1.00D+00 WtEn= 0.00D+00
 Coeff-Com: -0.630D-04 0.128D-02-0.251D-02 0.770D-02-0.151D-01 0.254D-01
 Coeff-Com:  0.615D-02-0.894D-01 0.759D-01 0.234D+00-0.502D+00 0.176D+00
 Coeff-Com: -0.609D+00 0.169D+01-0.653D-01-0.107D+01-0.133D+01-0.264D+01
 Coeff-Com:  0.510D+01
 Coeff:     -0.630D-04 0.128D-02-0.251D-02 0.770D-02-0.151D-01 0.254D-01
 Coeff:      0.615D-02-0.894D-01 0.759D-01 0.234D+00-0.502D+00 0.176D+00
 Coeff:     -0.609D+00 0.169D+01-0.653D-01-0.107D+01-0.133D+01-0.264D+01
 Coeff:      0.510D+01
 Gap=     0.249 Goal=   None    Shift=    0.500
 Gap=     0.109 Goal=   None    Shift=    0.500
 RMSDP=1.28D-05 MaxDP=1.12D-03 DE=-2.06D-05 OVMax= 5.07D-03

 Cycle  20  Pass 1  IDiag  1:
 E= -2023.32042527092     Delta-E=       -0.000022405876 Rises=F Damp=F
 DIIS: error= 4.54D-04 at cycle  20 NSaved=  20.
 NSaved=20 IEnMin=20 EnMin= -2023.32042527092     IErMin=20 ErrMin= 4.54D-04
 ErrMax= 4.54D-04  0.00D+00 EMaxC= 1.00D+00 BMatC= 1.05D-05 BMatP= 9.54D-06
 IDIUse=1 WtCom= 1.00D+00 WtEn= 0.00D+00
 Coeff-Com: -0.257D-03 0.219D-02-0.396D-02 0.107D-02-0.343D-02 0.758D-01
 Coeff-Com: -0.270D-01-0.236D+00 0.399D-01 0.543D+00-0.159D+00-0.391D+00
 Coeff-Com: -0.121D+01 0.196D+01 0.783D+00-0.372D+00-0.187D+01-0.450D+01
 Coeff-Com:  0.566D+01 0.715D+00
 Coeff:     -0.257D-03 0.219D-02-0.396D-02 0.107D-02-0.343D-02 0.758D-01
 Coeff:     -0.270D-01-0.236D+00 0.399D-01 0.543D+00-0.159D+00-0.391D+00
 Coeff:     -0.121D+01 0.196D+01 0.783D+00-0.372D+00-0.187D+01-0.450D+01
 Coeff:      0.566D+01 0.715D+00
 Gap=     0.249 Goal=   None    Shift=    0.500
 Gap=     0.109 Goal=   None    Shift=    0.500
 RMSDP=1.01D-05 MaxDP=7.95D-04 DE=-2.24D-05 OVMax= 4.54D-03

 Cycle  21  Pass 1  IDiag  1:
 E= -2023.32044411752     Delta-E=       -0.000018846596 Rises=F Damp=F
 DIIS: error= 4.26D-04 at cycle  21 NSaved=  20.
 NSaved=20 IEnMin=20 EnMin= -2023.32044411752     IErMin=20 ErrMin= 4.26D-04
 ErrMax= 4.26D-04  0.00D+00 EMaxC= 1.00D+00 BMatC= 9.31D-06 BMatP= 9.54D-06
 IDIUse=1 WtCom= 1.00D+00 WtEn= 0.00D+00
 Coeff-Com: -0.152D-02 0.220D-02-0.178D-01 0.154D-01 0.689D-01-0.384D-01
 Coeff-Com: -0.130D+00-0.974D-01 0.294D+00 0.376D+00-0.403D+00-0.283D+00
 Coeff-Com: -0.298D+00 0.240D+00 0.111D+01 0.290D+00-0.395D+01 0.334D+01
 Coeff-Com: -0.447D+01 0.495D+01
 Coeff:     -0.152D-02 0.220D-02-0.178D-01 0.154D-01 0.689D-01-0.384D-01
 Coeff:     -0.130D+00-0.974D-01 0.294D+00 0.376D+00-0.403D+00-0.283D+00
 Coeff:     -0.298D+00 0.240D+00 0.111D+01 0.290D+00-0.395D+01 0.334D+01
 Coeff:     -0.447D+01 0.495D+01
 Gap=     0.249 Goal=   None    Shift=    0.500
 Gap=     0.109 Goal=   None    Shift=    0.500
 RMSDP=1.21D-05 MaxDP=9.29D-04 DE=-1.88D-05 OVMax= 5.02D-03

 Cycle  22  Pass 1  IDiag  1:
 E= -2023.32046246174     Delta-E=       -0.000018344216 Rises=F Damp=F
 DIIS: error= 4.01D-04 at cycle  22 NSaved=  20.
 NSaved=20 IEnMin=20 EnMin= -2023.32046246174     IErMin=20 ErrMin= 4.01D-04
 ErrMax= 4.01D-04  0.00D+00 EMaxC= 1.00D+00 BMatC= 1.04D-05 BMatP= 9.31D-06
 IDIUse=1 WtCom= 1.00D+00 WtEn= 0.00D+00
 Coeff-Com: -0.902D-03-0.146D-01 0.231D-01 0.446D-01-0.570D-01-0.595D-01
 Coeff-Com: -0.633D-01 0.201D+00 0.700D-01 0.367D-01 0.166D+00-0.815D+00
 Coeff-Com: -0.487D+00 0.118D+01 0.119D+01-0.267D+01 0.231D+01-0.589D+01
 Coeff-Com:  0.492D+01 0.917D+00
 Coeff:     -0.902D-03-0.146D-01 0.231D-01 0.446D-01-0.570D-01-0.595D-01
 Coeff:     -0.633D-01 0.201D+00 0.700D-01 0.367D-01 0.166D+00-0.815D+00
 Coeff:     -0.487D+00 0.118D+01 0.119D+01-0.267D+01 0.231D+01-0.589D+01
 Coeff:      0.492D+01 0.917D+00
 Gap=     0.249 Goal=   None    Shift=    0.500
 Gap=     0.109 Goal=   None    Shift=    0.500
 RMSDP=9.54D-06 MaxDP=6.51D-04 DE=-1.83D-05 OVMax= 4.42D-03

 Cycle  23  Pass 1  IDiag  1:
 E= -2023.32047761218     Delta-E=       -0.000015150446 Rises=F Damp=F
 DIIS: error= 3.74D-04 at cycle  23 NSaved=  20.
 NSaved=20 IEnMin=20 EnMin= -2023.32047761218     IErMin=20 ErrMin= 3.74D-04
 ErrMax= 3.74D-04  0.00D+00 EMaxC= 1.00D+00 BMatC= 9.09D-06 BMatP= 9.31D-06
 IDIUse=1 WtCom= 1.00D+00 WtEn= 0.00D+00
 Coeff-Com:  0.564D-03-0.102D-01-0.980D-02 0.186D-01 0.709D-01 0.594D-02
 Coeff-Com: -0.906D-01-0.707D+00 0.953D+00 0.762D+00-0.603D+00-0.156D+01
 Coeff-Com:  0.550D-01 0.152D+01 0.927D-01 0.825D+00-0.325D+01 0.180D+01
 Coeff-Com: -0.321D+01 0.433D+01
 Coeff:      0.564D-03-0.102D-01-0.980D-02 0.186D-01 0.709D-01 0.594D-02
 Coeff:     -0.906D-01-0.707D+00 0.953D+00 0.762D+00-0.603D+00-0.156D+01
 Coeff:      0.550D-01 0.152D+01 0.927D-01 0.825D+00-0.325D+01 0.180D+01
 Coeff:     -0.321D+01 0.433D+01
 Gap=     0.250 Goal=   None    Shift=    0.500
 Gap=     0.109 Goal=   None    Shift=    0.500
 RMSDP=9.73D-06 MaxDP=5.60D-04 DE=-1.52D-05 OVMax= 4.47D-03

 Cycle  24  Pass 1  IDiag  1:
 E= -2023.32049106488     Delta-E=       -0.000013452695 Rises=F Damp=F
 DIIS: error= 3.50D-04 at cycle  24 NSaved=  20.
 NSaved=20 IEnMin=20 EnMin= -2023.32049106488     IErMin=20 ErrMin= 3.50D-04
 ErrMax= 3.50D-04  0.00D+00 EMaxC= 1.00D+00 BMatC= 8.96D-06 BMatP= 9.09D-06
 IDIUse=1 WtCom= 1.00D+00 WtEn= 0.00D+00
 Coeff-Com: -0.168D-01 0.251D-01 0.407D-01-0.453D-01-0.251D-01 0.459D-01
 Coeff-Com: -0.530D+00 0.698D+00 0.300D+00 0.898D-01-0.117D+01-0.292D+00
 Coeff-Com:  0.675D+00-0.278D+00 0.141D+01 0.133D+00-0.298D+00-0.581D+01
 Coeff-Com:  0.424D+01 0.181D+01
 Coeff:     -0.168D-01 0.251D-01 0.407D-01-0.453D-01-0.251D-01 0.459D-01
 Coeff:     -0.530D+00 0.698D+00 0.300D+00 0.898D-01-0.117D+01-0.292D+00
 Coeff:      0.675D+00-0.278D+00 0.141D+01 0.133D+00-0.298D+00-0.581D+01
 Coeff:      0.424D+01 0.181D+01
 Gap=     0.250 Goal=   None    Shift=    0.500
 Gap=     0.109 Goal=   None    Shift=    0.500
 RMSDP=9.17D-06 MaxDP=5.45D-04 DE=-1.35D-05 OVMax= 4.29D-03

 Cycle  25  Pass 1  IDiag  1:
 E= -2023.32050268955     Delta-E=       -0.000011624670 Rises=F Damp=F
 DIIS: error= 3.26D-04 at cycle  25 NSaved=  20.
 NSaved=20 IEnMin=20 EnMin= -2023.32050268955     IErMin=20 ErrMin= 3.26D-04
 ErrMax= 3.26D-04  0.00D+00 EMaxC= 1.00D+00 BMatC= 8.62D-06 BMatP= 8.96D-06
 IDIUse=1 WtCom= 1.00D+00 WtEn= 0.00D+00
 Coeff-Com:  0.204D-01-0.203D-01-0.765D-01 0.126D+00 0.999D-01-0.272D+00
 Coeff-Com:  0.455D-01-0.568D+00 0.132D+01 0.330D-01-0.378D+00-0.852D+00
 Coeff-Com: -0.280D+01 0.382D+01 0.172D+01-0.404D+00-0.457D+01 0.112D+01
 Coeff-Com: -0.493D+00 0.312D+01
 Coeff:      0.204D-01-0.203D-01-0.765D-01 0.126D+00 0.999D-01-0.272D+00
 Coeff:      0.455D-01-0.568D+00 0.132D+01 0.330D-01-0.378D+00-0.852D+00
 Coeff:     -0.280D+01 0.382D+01 0.172D+01-0.404D+00-0.457D+01 0.112D+01
 Coeff:     -0.493D+00 0.312D+01
 Gap=     0.250 Goal=   None    Shift=    0.500
 Gap=     0.109 Goal=   None    Shift=    0.500
 RMSDP=8.82D-06 MaxDP=6.09D-04 DE=-1.16D-05 OVMax= 4.18D-03

 Cycle  26  Pass 1  IDiag  1:
 E= -2023.32051285873     Delta-E=       -0.000010169183 Rises=F Damp=F
 DIIS: error= 3.03D-04 at cycle  26 NSaved=  20.
 NSaved=20 IEnMin=20 EnMin= -2023.32051285873     IErMin=20 ErrMin= 3.03D-04
 ErrMax= 3.03D-04  0.00D+00 EMaxC= 1.00D+00 BMatC= 8.29D-06 BMatP= 8.62D-06
 IDIUse=1 WtCom= 1.00D+00 WtEn= 0.00D+00
 Coeff-Com: -0.224D-01-0.278D-02 0.168D+00-0.381D-01-0.323D+00 0.518D-01
 Coeff-Com: -0.268D+00 0.111D+01-0.111D+00-0.216D+00-0.565D+00-0.309D+01
 Coeff-Com:  0.416D+01-0.574D+00 0.131D+01-0.220D+01 0.138D+00-0.169D+01
 Coeff-Com:  0.603D+00 0.256D+01
 Coeff:     -0.224D-01-0.278D-02 0.168D+00-0.381D-01-0.323D+00 0.518D-01
 Coeff:     -0.268D+00 0.111D+01-0.111D+00-0.216D+00-0.565D+00-0.309D+01
 Coeff:      0.416D+01-0.574D+00 0.131D+01-0.220D+01 0.138D+00-0.169D+01
 Coeff:      0.603D+00 0.256D+01
 Gap=     0.250 Goal=   None    Shift=    0.500
 Gap=     0.109 Goal=   None    Shift=    0.500
 RMSDP=8.13D-06 MaxDP=6.16D-04 DE=-1.02D-05 OVMax= 3.96D-03

 Cycle  27  Pass 1  IDiag  1:
 E= -2023.32052164386     Delta-E=       -0.000008785126 Rises=F Damp=F
 DIIS: error= 2.80D-04 at cycle  27 NSaved=  20.
 NSaved=20 IEnMin=20 EnMin= -2023.32052164386     IErMin=20 ErrMin= 2.80D-04
 ErrMax= 2.80D-04  0.00D+00 EMaxC= 1.00D+00 BMatC= 7.50D-06 BMatP= 8.29D-06
 IDIUse=1 WtCom= 1.00D+00 WtEn= 0.00D+00
 Coeff-Com: -0.160D-01 0.709D-01-0.256D-01-0.184D+00 0.907D-01 0.175D+00
 Coeff-Com:  0.221D+00-0.560D+00 0.316D+00 0.351D+00-0.235D+01 0.284D+01
 Coeff-Com: -0.249D+01 0.249D+01-0.129D+01 0.112D+01-0.869D+00-0.201D+01
 Coeff-Com:  0.774D+00 0.235D+01
 Coeff:     -0.160D-01 0.709D-01-0.256D-01-0.184D+00 0.907D-01 0.175D+00
 Coeff:      0.221D+00-0.560D+00 0.316D+00 0.351D+00-0.235D+01 0.284D+01
 Coeff:     -0.249D+01 0.249D+01-0.129D+01 0.112D+01-0.869D+00-0.201D+01
 Coeff:      0.774D+00 0.235D+01
 Gap=     0.250 Goal=   None    Shift=    0.500
 Gap=     0.109 Goal=   None    Shift=    0.500
 RMSDP=7.12D-06 MaxDP=5.69D-04 DE=-8.79D-06 OVMax= 3.60D-03

 Cycle  28  Pass 1  IDiag  1:
 E= -2023.32052902093     Delta-E=       -0.000007377072 Rises=F Damp=F
 DIIS: error= 2.58D-04 at cycle  28 NSaved=  20.
 NSaved=20 IEnMin=20 EnMin= -2023.32052902093     IErMin=20 ErrMin= 2.58D-04
 ErrMax= 2.58D-04  0.00D+00 EMaxC= 1.00D+00 BMatC= 6.28D-06 BMatP= 7.50D-06
 IDIUse=1 WtCom= 1.00D+00 WtEn= 0.00D+00
 Coeff-Com:  0.509D-01-0.236D-01-0.260D+00 0.245D+00 0.191D+00 0.327D-01
 Coeff-Com: -0.675D+00 0.376D+00 0.616D+00-0.147D+01 0.127D+01-0.124D+01
 Coeff-Com:  0.144D+01-0.214D+01 0.218D+01 0.359D+00-0.116D+01-0.130D+01
 Coeff-Com: -0.283D+00 0.279D+01
 Coeff:      0.509D-01-0.236D-01-0.260D+00 0.245D+00 0.191D+00 0.327D-01
 Coeff:     -0.675D+00 0.376D+00 0.616D+00-0.147D+01 0.127D+01-0.124D+01
 Coeff:      0.144D+01-0.214D+01 0.218D+01 0.359D+00-0.116D+01-0.130D+01
 Coeff:     -0.283D+00 0.279D+01
 Gap=     0.250 Goal=   None    Shift=    0.500
 Gap=     0.109 Goal=   None    Shift=    0.500
 RMSDP=6.62D-06 MaxDP=4.21D-04 DE=-7.38D-06 OVMax= 3.39D-03

 Cycle  29  Pass 1  IDiag  1:
 E= -2023.32053517815     Delta-E=       -0.000006157223 Rises=F Damp=F
 DIIS: error= 2.37D-04 at cycle  29 NSaved=  20.
 NSaved=20 IEnMin=20 EnMin= -2023.32053517815     IErMin=20 ErrMin= 2.37D-04
 ErrMax= 2.37D-04  0.00D+00 EMaxC= 1.00D+00 BMatC= 5.39D-06 BMatP= 6.28D-06
 IDIUse=1 WtCom= 1.00D+00 WtEn= 0.00D+00
 Coeff-Com:  0.909D-01-0.383D+00 0.383D+00-0.893D-01 0.372D+00-0.518D+00
 Coeff-Com:  0.262D-02 0.199D+00-0.608D+00 0.218D+00 0.200D+01-0.116D+01
 Coeff-Com: -0.388D+01 0.291D+01 0.121D+01 0.157D+01-0.217D+01-0.368D+01
 Coeff-Com:  0.195D+01 0.259D+01
 Coeff:      0.909D-01-0.383D+00 0.383D+00-0.893D-01 0.372D+00-0.518D+00
 Coeff:      0.262D-02 0.199D+00-0.608D+00 0.218D+00 0.200D+01-0.116D+01
 Coeff:     -0.388D+01 0.291D+01 0.121D+01 0.157D+01-0.217D+01-0.368D+01
 Coeff:      0.195D+01 0.259D+01
 Gap=     0.251 Goal=   None    Shift=    0.500
 Gap=     0.109 Goal=   None    Shift=    0.500
 RMSDP=6.85D-06 MaxDP=4.71D-04 DE=-6.16D-06 OVMax= 3.36D-03

 Cycle  30  Pass 1  IDiag  1:
 E= -2023.32054042842     Delta-E=       -0.000005250269 Rises=F Damp=F
 DIIS: error= 2.18D-04 at cycle  30 NSaved=  20.
 NSaved=20 IEnMin=20 EnMin= -2023.32054042842     IErMin=20 ErrMin= 2.18D-04
 ErrMax= 2.18D-04  0.00D+00 EMaxC= 1.00D+00 BMatC= 5.10D-06 BMatP= 5.39D-06
 IDIUse=1 WtCom= 1.00D+00 WtEn= 0.00D+00
 Coeff-Com: -0.300D+00 0.415D+00 0.115D+00 0.218D+00-0.733D+00-0.358D-01
 Coeff-Com:  0.275D+00-0.720D+00 0.857D+00 0.139D+01-0.861D+00-0.386D+01
 Coeff-Com:  0.283D+01 0.760D+00 0.128D+01-0.906D+00-0.254D+01 0.892D-01
 Coeff-Com:  0.102D+01 0.172D+01
 Coeff:     -0.300D+00 0.415D+00 0.115D+00 0.218D+00-0.733D+00-0.358D-01
 Coeff:      0.275D+00-0.720D+00 0.857D+00 0.139D+01-0.861D+00-0.386D+01
 Coeff:      0.283D+01 0.760D+00 0.128D+01-0.906D+00-0.254D+01 0.892D-01
 Coeff:      0.102D+01 0.172D+01
 Gap=     0.251 Goal=   None    Shift=    0.500
 Gap=     0.109 Goal=   None    Shift=    0.500
 RMSDP=5.69D-06 MaxDP=3.40D-04 DE=-5.25D-06 OVMax= 3.00D-03

 Cycle  31  Pass 1  IDiag  1:
 E= -2023.32054472249     Delta-E=       -0.000004294066 Rises=F Damp=F
 DIIS: error= 1.99D-04 at cycle  31 NSaved=  20.
 NSaved=20 IEnMin=20 EnMin= -2023.32054472249     IErMin=20 ErrMin= 1.99D-04
 ErrMax= 1.99D-04  0.00D+00 EMaxC= 1.00D+00 BMatC= 4.34D-06 BMatP= 5.10D-06
 IDIUse=1 WtCom= 1.00D+00 WtEn= 0.00D+00
 Coeff-Com:  0.232D-01-0.156D+00 0.313D+00-0.104D+00 0.158D+00-0.564D-01
 Coeff-Com: -0.191D+01 0.240D+01-0.885D+00 0.108D+01-0.140D+01 0.396D+00
 Coeff-Com: -0.881D+00 0.479D+00 0.153D+01 0.499D+00-0.204D+01-0.723D+00
 Coeff-Com: -0.194D+01 0.421D+01
 Coeff:      0.232D-01-0.156D+00 0.313D+00-0.104D+00 0.158D+00-0.564D-01
 Coeff:     -0.191D+01 0.240D+01-0.885D+00 0.108D+01-0.140D+01 0.396D+00
 Coeff:     -0.881D+00 0.479D+00 0.153D+01 0.499D+00-0.204D+01-0.723D+00
 Coeff:     -0.194D+01 0.421D+01
 Gap=     0.251 Goal=   None    Shift=    0.500
 Gap=     0.109 Goal=   None    Shift=    0.500
 RMSDP=6.38D-06 MaxDP=4.17D-04 DE=-4.29D-06 OVMax= 3.01D-03

 Cycle  32  Pass 1  IDiag  1:
 E= -2023.32054837906     Delta-E=       -0.000003656578 Rises=F Damp=F
 DIIS: error= 1.83D-04 at cycle  32 NSaved=  20.
 NSaved=20 IEnMin=20 EnMin= -2023.32054837906     IErMin=20 ErrMin= 1.83D-04
 ErrMax= 1.83D-04  0.00D+00 EMaxC= 1.00D+00 BMatC= 4.25D-06 BMatP= 4.34D-06
 IDIUse=1 WtCom= 1.00D+00 WtEn= 0.00D+00
 Coeff-Com: -0.652D-01 0.197D+00-0.130D+00 0.271D+00 0.116D+00-0.206D+01
 Coeff-Com:  0.236D+01-0.163D+01 0.177D+01-0.753D+00 0.167D+00-0.987D+00
 Coeff-Com: -0.418D+00 0.164D+01 0.138D+01-0.156D+01-0.533D+00-0.417D+01
 Coeff-Com:  0.434D+01 0.106D+01
 Coeff:     -0.652D-01 0.197D+00-0.130D+00 0.271D+00 0.116D+00-0.206D+01
 Coeff:      0.236D+01-0.163D+01 0.177D+01-0.753D+00 0.167D+00-0.987D+00
 Coeff:     -0.418D+00 0.164D+01 0.138D+01-0.156D+01-0.533D+00-0.417D+01
 Coeff:      0.434D+01 0.106D+01
 Gap=     0.251 Goal=   None    Shift=    0.500
 Gap=     0.109 Goal=   None    Shift=    0.500
 RMSDP=4.79D-06 MaxDP=2.91D-04 DE=-3.66D-06 OVMax= 2.57D-03

 >>>>>>>>>> Convergence criterion not met.
 SCF Done:  E(ULC-wHPBE) =  -2023.32054838     A.U. after   33 cycles
            NFock= 32  Conv=0.48D-05     -V/T= 2.0033
 <Sx>= 0.0000 <Sy>= 0.0000 <Sz>= 0.5000 <S**2>= 0.7597 S= 0.5049
 <L.S>= 0.000000000000E+00
 KE= 2.016566419917D+03 PE=-1.122597519168D+04 EE= 3.907141118838D+03
 Annihilation of the first spin contaminant:
 S**2 before annihilation     0.7597,   after     0.7501
 Leave Link  502 at Wed Jan 27 07:59:30 2021, MaxMem=  4026531840 cpu:           22323.3 elap:            2825.9
 (Enter /opt/ohpc/pub/libs/gaussian/g16-A.03/sandybridge/g16/l508.exe)
 Integral symmetry usage will be decided dynamically.
 Tight linear equation convergence will be used.
 ULC-wHPBE wavefunction.
 Quadratic Convergence SCF Method.
 Line search only if initial step raises energy.
 FoFJK:  IHMeth= 1 ICntrl=       0 DoSepK=T KAlg= 0 I1Cent=           0 FoldK=F
 IRaf=         1 NMat=       1 IRICut=       1 DoRegI=T DoRafI=F ISym2E= 1 IDoP0=0 IntGTp=1.
 FoFCou: FMM=T IPFlag=           0 FMFlag=      100000 FMFlg1=        2001
         NFxFlg=           0 DoJE=T BraDBF=F KetDBF=F FulRan=T
         wScrn=  0.000000 ICntrl=       500 IOpCl=  0 I1Cent=           0 NGrid=           0
         NMat0=    1 NMatS0=      1 NMatT0=    0 NMatD0=    1 NMtDS0=    0 NMtDT0=    0
 Petite list used in FoFCou.
 FMM levels:  10  Number of levels for PrismC:   9
 Iteration   1 EE= -2023.32055140902                                    Grad=1.291D-03 Max rot=    0.0291 deg.
 QCNR:  CnvC1=1.29D-08 CnvC2=1.29D-07
 LinEq1:  Iter=  0 NonCon=     1 RMS=1.33D-05 Max=4.70D-03 NDo=     1
 AX will form     1 AO Fock derivatives at one time.
 LinEq1:  Iter=  1 NonCon=     1 RMS=7.14D-06 Max=9.59D-04 NDo=     1
 LinEq1:  Iter=  2 NonCon=     1 RMS=3.42D-06 Max=5.28D-04 NDo=     1
 LinEq1:  Iter=  3 NonCon=     1 RMS=3.18D-06 Max=6.40D-04 NDo=     1
 LinEq1:  Iter=  4 NonCon=     1 RMS=1.63D-06 Max=1.85D-04 NDo=     1
 LinEq1:  Iter=  5 NonCon=     1 RMS=1.12D-06 Max=1.24D-04 NDo=     1
 LinEq1:  Iter=  6 NonCon=     1 RMS=6.91D-07 Max=9.79D-05 NDo=     1
 LinEq1:  Iter=  7 NonCon=     1 RMS=4.83D-07 Max=6.73D-05 NDo=     1
 LinEq1:  Iter=  8 NonCon=     1 RMS=3.49D-07 Max=4.55D-05 NDo=     1
 LinEq1:  Iter=  9 NonCon=     1 RMS=2.36D-07 Max=3.38D-05 NDo=     1
 LinEq1:  Iter= 10 NonCon=     1 RMS=1.26D-07 Max=1.65D-05 NDo=     1
 LinEq1:  Iter= 11 NonCon=     1 RMS=8.00D-08 Max=1.05D-05 NDo=     1
 LinEq1:  Iter= 12 NonCon=     1 RMS=4.72D-08 Max=3.19D-06 NDo=     1
 LinEq1:  Iter= 13 NonCon=     1 RMS=2.97D-08 Max=2.51D-06 NDo=     1
 LinEq1:  Iter= 14 NonCon=     1 RMS=1.94D-08 Max=1.72D-06 NDo=     1
 LinEq1:  Iter= 15 NonCon=     1 RMS=1.26D-08 Max=1.01D-06 NDo=     1
 LinEq1:  Iter= 16 NonCon=     1 RMS=7.70D-09 Max=1.06D-06 NDo=     1
 LinEq1:  Iter= 17 NonCon=     1 RMS=4.98D-09 Max=6.95D-07 NDo=     1
 LinEq1:  Iter= 18 NonCon=     1 RMS=2.99D-09 Max=3.79D-07 NDo=     1
 LinEq1:  Iter= 19 NonCon=     1 RMS=1.81D-09 Max=1.87D-07 NDo=     1
 LinEq1:  Iter= 20 NonCon=     0 RMS=1.29D-09 Max=1.18D-07 NDo=     1
 Linear equations converged to 1.291D-08 1.291D-07 after    20 iterations.
 Angle between quadratic step and gradient=  68.61 degrees.
     ILin= 1 X=0.000D+00 Y=-2.023320551409D+03 DE= 0.00D+00 F= -3.06D-05
     ILin= 2 X=1.000D+00 Y=-2.023320566666D+03 DE=-1.53D-05
 Iteration   2 EE= -2023.32056666630     Delta-E=       -0.000015257274 Grad=1.793D-04 Max rot=    0.0013 deg.
 Rotation gradient small -- convergence achieved.
 SCF Done:  E(ULC-wHPBE) =  -2023.32056667     a.u. after    2 cycles
            Convg  =    0.1793D-03                    22 Fock formations.
              S**2 =  0.7598                  -V/T =  2.0033
 <Sx>= 0.0000 <Sy>= 0.0000 <Sz>= 0.5000 <S**2>= 0.7598 S= 0.5049
 <L.S>= 0.000000000000E+00
 Annihilation of the first spin contaminant:
 S**2 before annihilation     0.7598,   after     0.7501
 Leave Link  508 at Wed Jan 27 08:25:28 2021, MaxMem=  4026531840 cpu:           12266.7 elap:            1558.0
 (Enter /opt/ohpc/pub/libs/gaussian/g16-A.03/sandybridge/g16/l601.exe)
 Copying SCF densities to generalized density rwf, IOpCl= 1 IROHF=0.

 **********************************************************************

            Population analysis using the SCF density.

 **********************************************************************

 Orbital symmetries:
 Alpha Orbitals:
       Occupied  (A) (A) (A) (A) (A) (A) (A) (A) (A) (A) (A) (A)
                 (A) (A) (A) (A) (A) (A) (A) (A) (A) (A) (A) (A)
                 (A) (A) (A) (A) (A) (A) (A) (A) (A) (A) (A) (A)
                 (A) (A) (A) (A) (A) (A) (A) (A) (A) (A) (A) (A)
                 (A) (A) (A) (A) (A) (A) (A) (A) (A) (A) (A) (A)
                 (A) (A) (A) (A) (A) (A) (A) (A) (A) (A) (A) (A)
                 (A) (A) (A) (A) (A) (A) (A) (A) (A) (A) (A) (A)
                 (A) (A) (A) (A) (A) (A) (A) (A) (A) (A) (A) (A)
                 (A) (A) (A) (A) (A) (A) (A) (A) (A) (A) (A) (A)
                 (A) (A) (A) (A) (A) (A) (A) (A) (A) (A) (A) (A)
                 (A) (A) (A)
       Virtual   (A) (A) (A) (A) (A) (A) (A) (A) (A) (A) (A) (A)
                 (A) (A) (A) (A) (A) (A) (A) (A) (A) (A) (A) (A)
                 (A) (A) (A) (A) (A) (A) (A) (A) (A) (A) (A) (A)
                 (A) (A) (A) (A) (A) (A) (A) (A) (A) (A) (A) (A)
                 (A) (A) (A) (A) (A) (A) (A) (A) (A) (A) (A) (A)
                 (A) (A) (A) (A) (A) (A) (A) (A) (A) (A) (A) (A)
                 (A) (A) (A) (A) (A) (A) (A) (A) (A) (A) (A) (A)
                 (A) (A) (A) (A) (A) (A) (A) (A) (A) (A) (A) (A)
                 (A) (A) (A) (A) (A) (A) (A) (A) (A) (A) (A) (A)
                 (A) (A) (A) (A) (A) (A) (A) (A) (A) (A) (A) (A)
                 (A) (A) (A) (A) (A) (A) (A) (A) (A) (A) (A) (A)
                 (A) (A) (A) (A) (A) (A) (A) (A) (A) (A) (A) (A)
                 (A) (A) (A) (A) (A) (A) (A) (A) (A) (A) (A) (A)
                 (A) (A) (A) (A) (A) (A) (A) (A) (A) (A) (A) (A)
                 (A) (A) (A) (A) (A) (A) (A) (A) (A) (A) (A) (A)
                 (A) (A) (A) (A) (A) (A) (A) (A) (A) (A) (A) (A)
                 (A) (A) (A) (A) (A) (A) (A) (A) (A) (A) (A) (A)
                 (A) (A) (A) (A) (A) (A) (A) (A) (A) (A) (A) (A)
                 (A) (A) (A) (A) (A) (A) (A) (A) (A) (A) (A) (A)
                 (A) (A) (A) (A) (A) (A) (A) (A) (A) (A) (A) (A)
                 (A) (A) (A) (A) (A) (A) (A) (A) (A) (A) (A) (A)
                 (A) (A) (A) (A) (A) (A) (A) (A) (A) (A) (A) (A)
                 (A) (A) (A) (A) (A) (A) (A) (A) (A) (A) (A) (A)
                 (A) (A) (A) (A) (A) (A) (A) (A) (A) (A) (A) (A)
                 (A) (A) (A) (A) (A) (A) (A) (A) (A) (A) (A) (A)
                 (A) (A) (A) (A) (A) (A) (A) (A) (A) (A) (A) (A)
                 (A) (A) (A) (A) (A) (A) (A) (A) (A) (A) (A) (A)
                 (A) (A) (A) (A) (A) (A) (A) (A) (A) (A) (A) (A)
                 (A) (A) (A) (A) (A) (A) (A) (A) (A) (A) (A) (A)
                 (A) (A) (A) (A) (A) (A) (A) (A) (A) (A) (A) (A)
                 (A) (A) (A) (A) (A) (A) (A) (A) (A) (A) (A) (A)
                 (A) (A) (A) (A) (A) (A) (A) (A) (A) (A) (A) (A)
                 (A) (A) (A) (A) (A) (A) (A) (A) (A) (A) (A) (A)
                 (A) (A) (A) (A) (A) (A) (A) (A) (A) (A) (A) (A)
                 (A) (A) (A) (A) (A) (A) (A) (A) (A) (A) (A) (A)
                 (A) (A) (A) (A) (A) (A) (A) (A) (A) (A) (A) (A)
                 (A) (A) (A) (A) (A) (A) (A) (A) (A) (A) (A) (A)
                 (A) (A) (A) (A) (A) (A) (A) (A) (A) (A) (A) (A)
                 (A) (A) (A) (A) (A) (A) (A) (A) (A) (A) (A) (A)
                 (A) (A) (A) (A) (A) (A) (A) (A) (A) (A) (A) (A)
                 (A) (A) (A) (A) (A) (A) (A) (A) (A) (A) (A) (A)
                 (A) (A) (A) (A) (A) (A) (A) (A) (A) (A) (A) (A)
                 (A) (A) (A) (A) (A) (A) (A) (A) (A) (A) (A) (A)
                 (A) (A) (A) (A) (A) (A) (A) (A) (A) (A) (A) (A)
                 (A) (A) (A) (A) (A) (A) (A) (A) (A) (A) (A) (A)
                 (A) (A) (A) (A) (A) (A) (A) (A) (A) (A) (A) (A)
                 (A) (A) (A) (A) (A) (A) (A) (A) (A) (A) (A) (A)
                 (A) (A) (A) (A) (A) (A) (A) (A) (A) (A) (A) (A)
                 (A) (A) (A) (A) (A) (A) (A) (A) (A) (A) (A) (A)
                 (A) (A) (A) (A) (A) (A) (A) (A) (A) (A) (A) (A)
                 (A) (A) (A) (A) (A) (A) (A) (A) (A) (A) (A) (A)
                 (A) (A) (A) (A) (A) (A) (A) (A) (A) (A) (A) (A)
                 (A) (A) (A) (A) (A) (A) (A) (A) (A) (A) (A) (A)
                 (A) (A) (A) (A) (A) (A) (A) (A) (A) (A) (A) (A)
                 (A) (A) (A) (A) (A) (A) (A) (A) (A) (A) (A) (A)
                 (A) (A) (A) (A) (A) (A) (A) (A) (A) (A) (A) (A)
                 (A) (A) (A) (A) (A) (A) (A) (A) (A) (A) (A)
 Beta  Orbitals:
       Occupied  (A) (A) (A) (A) (A) (A) (A) (A) (A) (A) (A) (A)
                 (A) (A) (A) (A) (A) (A) (A) (A) (A) (A) (A) (A)
                 (A) (A) (A) (A) (A) (A) (A) (A) (A) (A) (A) (A)
                 (A) (A) (A) (A) (A) (A) (A) (A) (A) (A) (A) (A)
                 (A) (A) (A) (A) (A) (A) (A) (A) (A) (A) (A) (A)
                 (A) (A) (A) (A) (A) (A) (A) (A) (A) (A) (A) (A)
                 (A) (A) (A) (A) (A) (A) (A) (A) (A) (A) (A) (A)
                 (A) (A) (A) (A) (A) (A) (A) (A) (A) (A) (A) (A)
                 (A) (A) (A) (A) (A) (A) (A) (A) (A) (A) (A) (A)
                 (A) (A) (A) (A) (A) (A) (A) (A) (A) (A) (A) (A)
                 (A) (A)
       Virtual   (A) (A) (A) (A) (A) (A) (A) (A) (A) (A) (A) (A)
                 (A) (A) (A) (A) (A) (A) (A) (A) (A) (A) (A) (A)
                 (A) (A) (A) (A) (A) (A) (A) (A) (A) (A) (A) (A)
                 (A) (A) (A) (A) (A) (A) (A) (A) (A) (A) (A) (A)
                 (A) (A) (A) (A) (A) (A) (A) (A) (A) (A) (A) (A)
                 (A) (A) (A) (A) (A) (A) (A) (A) (A) (A) (A) (A)
                 (A) (A) (A) (A) (A) (A) (A) (A) (A) (A) (A) (A)
                 (A) (A) (A) (A) (A) (A) (A) (A) (A) (A) (A) (A)
                 (A) (A) (A) (A) (A) (A) (A) (A) (A) (A) (A) (A)
                 (A) (A) (A) (A) (A) (A) (A) (A) (A) (A) (A) (A)
                 (A) (A) (A) (A) (A) (A) (A) (A) (A) (A) (A) (A)
                 (A) (A) (A) (A) (A) (A) (A) (A) (A) (A) (A) (A)
                 (A) (A) (A) (A) (A) (A) (A) (A) (A) (A) (A) (A)
                 (A) (A) (A) (A) (A) (A) (A) (A) (A) (A) (A) (A)
                 (A) (A) (A) (A) (A) (A) (A) (A) (A) (A) (A) (A)
                 (A) (A) (A) (A) (A) (A) (A) (A) (A) (A) (A) (A)
                 (A) (A) (A) (A) (A) (A) (A) (A) (A) (A) (A) (A)
                 (A) (A) (A) (A) (A) (A) (A) (A) (A) (A) (A) (A)
                 (A) (A) (A) (A) (A) (A) (A) (A) (A) (A) (A) (A)
                 (A) (A) (A) (A) (A) (A) (A) (A) (A) (A) (A) (A)
                 (A) (A) (A) (A) (A) (A) (A) (A) (A) (A) (A) (A)
                 (A) (A) (A) (A) (A) (A) (A) (A) (A) (A) (A) (A)
                 (A) (A) (A) (A) (A) (A) (A) (A) (A) (A) (A) (A)
                 (A) (A) (A) (A) (A) (A) (A) (A) (A) (A) (A) (A)
                 (A) (A) (A) (A) (A) (A) (A) (A) (A) (A) (A) (A)
                 (A) (A) (A) (A) (A) (A) (A) (A) (A) (A) (A) (A)
                 (A) (A) (A) (A) (A) (A) (A) (A) (A) (A) (A) (A)
                 (A) (A) (A) (A) (A) (A) (A) (A) (A) (A) (A) (A)
                 (A) (A) (A) (A) (A) (A) (A) (A) (A) (A) (A) (A)
                 (A) (A) (A) (A) (A) (A) (A) (A) (A) (A) (A) (A)
                 (A) (A) (A) (A) (A) (A) (A) (A) (A) (A) (A) (A)
                 (A) (A) (A) (A) (A) (A) (A) (A) (A) (A) (A) (A)
                 (A) (A) (A) (A) (A) (A) (A) (A) (A) (A) (A) (A)
                 (A) (A) (A) (A) (A) (A) (A) (A) (A) (A) (A) (A)
                 (A) (A) (A) (A) (A) (A) (A) (A) (A) (A) (A) (A)
                 (A) (A) (A) (A) (A) (A) (A) (A) (A) (A) (A) (A)
                 (A) (A) (A) (A) (A) (A) (A) (A) (A) (A) (A) (A)
                 (A) (A) (A) (A) (A) (A) (A) (A) (A) (A) (A) (A)
                 (A) (A) (A) (A) (A) (A) (A) (A) (A) (A) (A) (A)
                 (A) (A) (A) (A) (A) (A) (A) (A) (A) (A) (A) (A)
                 (A) (A) (A) (A) (A) (A) (A) (A) (A) (A) (A) (A)
                 (A) (A) (A) (A) (A) (A) (A) (A) (A) (A) (A) (A)
                 (A) (A) (A) (A) (A) (A) (A) (A) (A) (A) (A) (A)
                 (A) (A) (A) (A) (A) (A) (A) (A) (A) (A) (A) (A)
                 (A) (A) (A) (A) (A) (A) (A) (A) (A) (A) (A) (A)
                 (A) (A) (A) (A) (A) (A) (A) (A) (A) (A) (A) (A)
                 (A) (A) (A) (A) (A) (A) (A) (A) (A) (A) (A) (A)
                 (A) (A) (A) (A) (A) (A) (A) (A) (A) (A) (A) (A)
                 (A) (A) (A) (A) (A) (A) (A) (A) (A) (A) (A) (A)
                 (A) (A) (A) (A) (A) (A) (A) (A) (A) (A) (A) (A)
                 (A) (A) (A) (A) (A) (A) (A) (A) (A) (A) (A) (A)
                 (A) (A) (A) (A) (A) (A) (A) (A) (A) (A) (A) (A)
                 (A) (A) (A) (A) (A) (A) (A) (A) (A) (A) (A) (A)
                 (A) (A) (A) (A) (A) (A) (A) (A) (A) (A) (A) (A)
                 (A) (A) (A) (A) (A) (A) (A) (A) (A) (A) (A) (A)
                 (A) (A) (A) (A) (A) (A) (A) (A) (A) (A) (A) (A)
                 (A) (A) (A) (A) (A) (A) (A) (A) (A) (A) (A) (A)
 The electronic state is 2-A.
 Alpha  occ. eigenvalues --  -88.56789 -88.51593 -14.43756 -14.43754 -14.43336
 Alpha  occ. eigenvalues --  -14.43117 -10.36516 -10.36464 -10.36076 -10.35983
 Alpha  occ. eigenvalues --  -10.35876 -10.35537 -10.35404 -10.33255 -10.32759
 Alpha  occ. eigenvalues --  -10.32587 -10.32374 -10.31560 -10.31122 -10.31089
 Alpha  occ. eigenvalues --  -10.30980 -10.30923 -10.30839 -10.29792 -10.28950
 Alpha  occ. eigenvalues --  -10.28897 -10.28841 -10.28317 -10.28239 -10.28232
 Alpha  occ. eigenvalues --  -10.28017 -10.27786  -8.15692  -8.10818  -6.17722
 Alpha  occ. eigenvalues --   -6.17315  -6.17150  -6.12953  -6.12471  -6.11988
 Alpha  occ. eigenvalues --   -1.32186  -1.31739  -1.29110  -1.28653  -1.25075
 Alpha  occ. eigenvalues --   -1.24337  -1.23950  -1.22500  -1.18001  -1.15375
 Alpha  occ. eigenvalues --   -1.12485  -1.11535  -1.08030  -1.06807  -1.05068
 Alpha  occ. eigenvalues --   -1.04894  -1.04629  -1.04247  -1.03966  -1.03600
 Alpha  occ. eigenvalues --   -1.02774  -1.02442  -1.00095  -0.98637  -0.97222
 Alpha  occ. eigenvalues --   -0.95790  -0.91208  -0.90796  -0.87863  -0.87602
 Alpha  occ. eigenvalues --   -0.87416  -0.87249  -0.85870  -0.85514  -0.84903
 Alpha  occ. eigenvalues --   -0.83868  -0.83248  -0.82874  -0.82641  -0.81980
 Alpha  occ. eigenvalues --   -0.81773  -0.81170  -0.80460  -0.80272  -0.80009
 Alpha  occ. eigenvalues --   -0.79710  -0.79242  -0.78592  -0.77839  -0.76885
 Alpha  occ. eigenvalues --   -0.75738  -0.74866  -0.74776  -0.74634  -0.74027
 Alpha  occ. eigenvalues --   -0.73834  -0.73697  -0.73227  -0.73032  -0.72534
 Alpha  occ. eigenvalues --   -0.72413  -0.72331  -0.72179  -0.72080  -0.71836
 Alpha  occ. eigenvalues --   -0.71823  -0.71547  -0.70827  -0.70600  -0.69977
 Alpha  occ. eigenvalues --   -0.69691  -0.69427  -0.69147  -0.68829  -0.67827
 Alpha  occ. eigenvalues --   -0.64633  -0.64027  -0.63424  -0.62982  -0.61660
 Alpha  occ. eigenvalues --   -0.59689  -0.56647  -0.56182
 Alpha virt. eigenvalues --   -0.30909  -0.29347  -0.27620  -0.26883  -0.23836
 Alpha virt. eigenvalues --   -0.22196  -0.20708  -0.19949  -0.19614  -0.19291
 Alpha virt. eigenvalues --   -0.18434  -0.17847  -0.17772  -0.16676  -0.15265
 Alpha virt. eigenvalues --   -0.14536  -0.14264  -0.13103  -0.12962  -0.12707
 Alpha virt. eigenvalues --   -0.12478  -0.11970  -0.11783  -0.11735  -0.11635
 Alpha virt. eigenvalues --   -0.11375  -0.11046  -0.10655  -0.10430  -0.10276
 Alpha virt. eigenvalues --   -0.09933  -0.09755  -0.09278  -0.09152  -0.08404
 Alpha virt. eigenvalues --   -0.08351  -0.07773  -0.07603  -0.07469  -0.07344
 Alpha virt. eigenvalues --   -0.07045  -0.06900  -0.06841  -0.06569  -0.06382
 Alpha virt. eigenvalues --   -0.06060  -0.05991  -0.05726  -0.05603  -0.04991
 Alpha virt. eigenvalues --   -0.04776  -0.04624  -0.04539  -0.04267  -0.03792
 Alpha virt. eigenvalues --   -0.03456  -0.03311  -0.02986  -0.02824  -0.02374
 Alpha virt. eigenvalues --   -0.02065  -0.01538  -0.01425  -0.01195  -0.01033
 Alpha virt. eigenvalues --   -0.00618  -0.00398  -0.00168   0.00034   0.00310
 Alpha virt. eigenvalues --    0.00541   0.01045   0.01415   0.01498   0.01906
 Alpha virt. eigenvalues --    0.02076   0.02355   0.02646   0.02982   0.03255
 Alpha virt. eigenvalues --    0.03352   0.04713   0.04997   0.05157   0.05386
 Alpha virt. eigenvalues --    0.05745   0.06247   0.06497   0.06556   0.06967
 Alpha virt. eigenvalues --    0.07291   0.07338   0.08191   0.08474   0.08622
 Alpha virt. eigenvalues --    0.08932   0.09302   0.09486   0.09897   0.10547
 Alpha virt. eigenvalues --    0.10790   0.10955   0.11111   0.11176   0.11331
 Alpha virt. eigenvalues --    0.11541   0.11968   0.12097   0.12441   0.12600
 Alpha virt. eigenvalues --    0.12875   0.13259   0.13295   0.13614   0.13954
 Alpha virt. eigenvalues --    0.14394   0.15005   0.15189   0.16005   0.16387
 Alpha virt. eigenvalues --    0.17102   0.17688   0.17892   0.18217   0.18288
 Alpha virt. eigenvalues --    0.18466   0.18636   0.18817   0.19215   0.19646
 Alpha virt. eigenvalues --    0.19914   0.20327   0.21056   0.21190   0.22048
 Alpha virt. eigenvalues --    0.22337   0.22553   0.23205   0.23449   0.23869
 Alpha virt. eigenvalues --    0.24060   0.24118   0.24306   0.24369   0.24742
 Alpha virt. eigenvalues --    0.24927   0.25194   0.25431   0.25681   0.25785
 Alpha virt. eigenvalues --    0.26058   0.26163   0.26548   0.26776   0.26831
 Alpha virt. eigenvalues --    0.27239   0.27418   0.27715   0.27951   0.27994
 Alpha virt. eigenvalues --    0.28146   0.28369   0.28523   0.28945   0.29273
 Alpha virt. eigenvalues --    0.29621   0.29822   0.30105   0.30549   0.30739
 Alpha virt. eigenvalues --    0.31289   0.31497   0.31840   0.32032   0.32210
 Alpha virt. eigenvalues --    0.32551   0.32722   0.33078   0.33332   0.33748
 Alpha virt. eigenvalues --    0.33832   0.34407   0.34751   0.35734   0.36086
 Alpha virt. eigenvalues --    0.36429   0.37160   0.37215   0.37451   0.37525
 Alpha virt. eigenvalues --    0.37755   0.38253   0.38434   0.40081   0.40462
 Alpha virt. eigenvalues --    0.41390   0.41733   0.41997   0.42586   0.43031
 Alpha virt. eigenvalues --    0.43579   0.43585   0.43977   0.44240   0.44364
 Alpha virt. eigenvalues --    0.44468   0.44833   0.44989   0.45742   0.46003
 Alpha virt. eigenvalues --    0.46759   0.47619   0.48024   0.48564   0.49131
 Alpha virt. eigenvalues --    0.49294   0.49897   0.50902   0.51124   0.51647
 Alpha virt. eigenvalues --    0.52081   0.52297   0.52663   0.53557   0.54022
 Alpha virt. eigenvalues --    0.54410   0.55636   0.56797   0.57898   0.58754
 Alpha virt. eigenvalues --    0.59464   0.60759   0.61313   0.63040   0.63262
 Alpha virt. eigenvalues --    0.63849   0.64191   0.64646   0.67886   0.68060
 Alpha virt. eigenvalues --    0.68454   0.68755   0.70020   0.71231   0.74295
 Alpha virt. eigenvalues --    0.78464   0.86313   0.91557   0.91602   0.91757
 Alpha virt. eigenvalues --    0.92069   0.93604   0.95711   0.96233   0.97103
 Alpha virt. eigenvalues --    0.97522   0.97750   0.98945   0.99313   1.00328
 Alpha virt. eigenvalues --    1.00535   1.00746   1.00931   1.01139   1.02022
 Alpha virt. eigenvalues --    1.02147   1.03203   1.03539   1.03767   1.03844
 Alpha virt. eigenvalues --    1.04622   1.04860   1.05181   1.05347   1.05654
 Alpha virt. eigenvalues --    1.06807   1.08221   1.08986   1.09349   1.09553
 Alpha virt. eigenvalues --    1.09959   1.10975   1.11416   1.11692   1.11836
 Alpha virt. eigenvalues --    1.11899   1.11926   1.12204   1.12343   1.12604
 Alpha virt. eigenvalues --    1.12740   1.13158   1.13531   1.13622   1.14376
 Alpha virt. eigenvalues --    1.14597   1.14673   1.14790   1.15399   1.15664
 Alpha virt. eigenvalues --    1.15745   1.16122   1.16506   1.16969   1.17251
 Alpha virt. eigenvalues --    1.17681   1.18048   1.18956   1.19476   1.19960
 Alpha virt. eigenvalues --    1.20643   1.20790   1.20991   1.21528   1.21657
 Alpha virt. eigenvalues --    1.21758   1.22489   1.22875   1.23227   1.23823
 Alpha virt. eigenvalues --    1.23936   1.24234   1.24472   1.24683   1.24907
 Alpha virt. eigenvalues --    1.25111   1.25147   1.26085   1.26320   1.26543
 Alpha virt. eigenvalues --    1.26781   1.27371   1.27704   1.28111   1.28717
 Alpha virt. eigenvalues --    1.28976   1.29469   1.29598   1.30031   1.30541
 Alpha virt. eigenvalues --    1.30980   1.31183   1.31451   1.31555   1.31970
 Alpha virt. eigenvalues --    1.32371   1.32605   1.32922   1.33834   1.34339
 Alpha virt. eigenvalues --    1.34419   1.34632   1.35033   1.35370   1.35599
 Alpha virt. eigenvalues --    1.35926   1.36508   1.37040   1.37607   1.38399
 Alpha virt. eigenvalues --    1.38901   1.39397   1.40285   1.41391   1.41701
 Alpha virt. eigenvalues --    1.42256   1.42595   1.42676   1.42954   1.43706
 Alpha virt. eigenvalues --    1.43837   1.44103   1.45237   1.45694   1.45977
 Alpha virt. eigenvalues --    1.46413   1.46876   1.47245   1.49065   1.49209
 Alpha virt. eigenvalues --    1.49819   1.50029   1.50358   1.50403   1.50901
 Alpha virt. eigenvalues --    1.51650   1.52589   1.52649   1.52812   1.53197
 Alpha virt. eigenvalues --    1.53363   1.53852   1.54415   1.55163   1.55298
 Alpha virt. eigenvalues --    1.55584   1.55763   1.55887   1.56008   1.56139
 Alpha virt. eigenvalues --    1.56488   1.56575   1.56834   1.57015   1.57719
 Alpha virt. eigenvalues --    1.57875   1.58176   1.58286   1.58416   1.58507
 Alpha virt. eigenvalues --    1.58574   1.59199   1.59794   1.60022   1.60625
 Alpha virt. eigenvalues --    1.62042   1.62287   1.62494   1.62585   1.63211
 Alpha virt. eigenvalues --    1.63845   1.64344   1.64434   1.64774   1.65255
 Alpha virt. eigenvalues --    1.65804   1.66582   1.66798   1.67118   1.67537
 Alpha virt. eigenvalues --    1.67952   1.68155   1.69217   1.70680   1.70903
 Alpha virt. eigenvalues --    1.72177   1.73292   1.74074   1.74795   1.75204
 Alpha virt. eigenvalues --    1.76839   1.77617   1.78684   1.79389   1.80418
 Alpha virt. eigenvalues --    1.80687   1.81121   1.82283   1.82483   1.82935
 Alpha virt. eigenvalues --    1.84037   1.85160   1.86790   1.87377   1.87628
 Alpha virt. eigenvalues --    1.88430   1.88797   1.89524   1.90353   1.91665
 Alpha virt. eigenvalues --    1.91958   1.92748   1.93376   1.93619   1.93875
 Alpha virt. eigenvalues --    1.93990   1.94728   1.95237   1.96519   1.97587
 Alpha virt. eigenvalues --    1.98330   1.99197   1.99562   2.01182   2.01669
 Alpha virt. eigenvalues --    2.02758   2.03843   2.04366   2.05033   2.05267
 Alpha virt. eigenvalues --    2.05292   2.05365   2.05614   2.06095   2.06414
 Alpha virt. eigenvalues --    2.06617   2.06960   2.07519   2.07631   2.07970
 Alpha virt. eigenvalues --    2.08049   2.08313   2.08772   2.09179   2.09893
 Alpha virt. eigenvalues --    2.10120   2.10615   2.10704   2.11161   2.11402
 Alpha virt. eigenvalues --    2.12172   2.12663   2.12798   2.13067   2.13794
 Alpha virt. eigenvalues --    2.13949   2.14032   2.14970   2.15081   2.18924
 Alpha virt. eigenvalues --    2.20364   2.20760   2.21517   2.21834   2.21985
 Alpha virt. eigenvalues --    2.22262   2.23011   2.23724   2.24363   2.25376
 Alpha virt. eigenvalues --    2.27258   2.28061   2.28361   2.28711   2.29537
 Alpha virt. eigenvalues --    2.30255   2.30399   2.30529   2.30814   2.30890
 Alpha virt. eigenvalues --    2.31388   2.31891   2.32178   2.33091   2.33541
 Alpha virt. eigenvalues --    2.34112   2.34181   2.35215   2.35576   2.36175
 Alpha virt. eigenvalues --    2.36285   2.36620   2.36760   2.37083   2.37946
 Alpha virt. eigenvalues --    2.39029   2.39197   2.39742   2.40882   2.41833
 Alpha virt. eigenvalues --    2.42130   2.42741   2.43022   2.43324   2.43692
 Alpha virt. eigenvalues --    2.44509   2.44735   2.45374   2.47316   2.47975
 Alpha virt. eigenvalues --    2.48432   2.48755   2.49392   2.50972   2.51369
 Alpha virt. eigenvalues --    2.51565   2.51736   2.51891   2.53160   2.53750
 Alpha virt. eigenvalues --    2.54673   2.54982   2.55275   2.55893   2.56419
 Alpha virt. eigenvalues --    2.57240   2.57760   2.61054   2.62998   2.63479
 Alpha virt. eigenvalues --    2.63873   2.64304   2.65344   2.65719   2.71806
 Alpha virt. eigenvalues --    2.72356   2.74232   2.75176   2.76369   2.76835
 Alpha virt. eigenvalues --    2.78838   2.81095   2.83831   2.84597   2.86416
 Alpha virt. eigenvalues --    2.87343   2.87597   2.88255   2.88773   2.88990
 Alpha virt. eigenvalues --    2.89374   2.89720   2.90934   2.91227   2.91615
 Alpha virt. eigenvalues --    2.92126   2.93420   2.93900   2.94845   2.95804
 Alpha virt. eigenvalues --    2.96871   2.97682   2.98604   2.99328   3.00697
 Alpha virt. eigenvalues --    3.06610   3.06895   3.07108   3.07760   3.07892
 Alpha virt. eigenvalues --    3.08276   3.08396   3.08903   3.10130   3.10203
[...]
    61   Atom       -0.000164      0.000036      0.000049
    62   Atom       -0.000207      0.000187     -0.000115
    63   Atom       -0.000222     -0.000055      0.000033
    64   Atom       -0.000005      0.000093     -0.000033
 --------------------------------------------------------


 ---------------------------------------------------------------------------------
              Anisotropic Spin Dipole Couplings in Principal Axis System
 ---------------------------------------------------------------------------------

       Atom             a.u.   MegaHertz   Gauss  10(-4) cm-1        Axes

              Baa    -0.0431    -5.790    -2.066    -1.931 -0.0653 -0.6313  0.7728
     1 C(13)  Bbb    -0.0398    -5.340    -1.906    -1.781  0.9945  0.0223  0.1023
              Bcc     0.0829    11.130     3.971     3.713 -0.0818  0.7753  0.6263
 
              Baa    -0.0393    -5.277    -1.883    -1.760 -0.5785 -0.0323  0.8150
     2 C(13)  Bbb    -0.0288    -3.865    -1.379    -1.289  0.7625 -0.3764  0.5263
              Bcc     0.0681     9.142     3.262     3.050  0.2898  0.9259  0.2424
 
              Baa    -0.9802   -40.186   -14.339   -13.404  0.4763 -0.4505  0.7551
     3 S(33)  Bbb    -0.9359   -38.373   -13.692   -12.800  0.8779  0.2927 -0.3790
              Bcc     1.9161    78.558    28.032    26.204 -0.0503  0.8434  0.5349
 
              Baa    -0.0521    -6.991    -2.495    -2.332  0.9882  0.0178 -0.1520
     4 C(13)  Bbb    -0.0502    -6.740    -2.405    -2.248  0.1220 -0.6907  0.7127
              Bcc     0.1023    13.732     4.900     4.580  0.0923  0.7229  0.6848
 
              Baa    -0.0320    -4.293    -1.532    -1.432 -0.2523  0.7874  0.5624
     5 C(13)  Bbb    -0.0288    -3.863    -1.378    -1.288  0.9671  0.1852  0.1746
              Bcc     0.0608     8.156     2.910     2.721 -0.0333 -0.5880  0.8082
 
              Baa    -0.0430    -5.764    -2.057    -1.923  0.6653 -0.4444 -0.6000
     6 C(13)  Bbb    -0.0383    -5.140    -1.834    -1.715  0.7270  0.2028  0.6560
              Bcc     0.0813    10.904     3.891     3.637  0.1698  0.8726 -0.4579
 
              Baa    -0.0364    -4.886    -1.744    -1.630  0.0337  0.8139  0.5800
     7 C(13)  Bbb     0.0165     2.214     0.790     0.739  0.9806 -0.1389  0.1381
              Bcc     0.0199     2.672     0.953     0.891 -0.1930 -0.5642  0.8028
 
              Baa    -0.0346    -4.637    -1.655    -1.547 -0.0091  0.8194  0.5731
     8 C(13)  Bbb     0.0149     1.994     0.711     0.665  0.4219 -0.5165  0.7451
              Bcc     0.0197     2.644     0.943     0.882  0.9066  0.2486 -0.3410
 
              Baa    -0.0036    -1.918    -0.684    -0.640 -0.3260 -0.3836  0.8640
     9 H(1)   Bbb    -0.0026    -1.365    -0.487    -0.455  0.2183  0.8587  0.4636
              Bcc     0.0062     3.283     1.171     1.095  0.9198 -0.3397  0.1962
 
              Baa    -0.0070    -0.933    -0.333    -0.311 -0.0625 -0.2092  0.9759
    10 C(13)  Bbb     0.0003     0.040     0.014     0.013  0.7527 -0.6520 -0.0916
              Bcc     0.0067     0.893     0.319     0.298  0.6554  0.7288  0.1982
 
              Baa    -0.0384    -5.148    -1.837    -1.717  0.2191  0.7847 -0.5798
    11 C(13)  Bbb     0.0062     0.833     0.297     0.278  0.3109  0.5071  0.8038
              Bcc     0.0322     4.315     1.540     1.439  0.9248 -0.3564 -0.1329
 
              Baa    -0.0460    -6.170    -2.202    -2.058  0.6692  0.0937  0.7372
    12 C(13)  Bbb    -0.0431    -5.777    -2.062    -1.927 -0.5541  0.7239  0.4110
              Bcc     0.0890    11.948     4.263     3.985  0.4951  0.6835 -0.5363
 
              Baa    -0.0100    -1.344    -0.480    -0.448 -0.4905  0.4861  0.7233
    13 C(13)  Bbb    -0.0078    -1.050    -0.375    -0.350  0.8703  0.2306  0.4353
              Bcc     0.0178     2.395     0.854     0.799  0.0448  0.8429 -0.5361
 
              Baa    -0.0027    -1.450    -0.518    -0.484  0.2540  0.9161 -0.3102
    14 H(1)   Bbb    -0.0009    -0.455    -0.162    -0.152 -0.4201  0.3934  0.8178
              Bcc     0.0036     1.906     0.680     0.636  0.8712 -0.0774  0.4848
 
              Baa    -0.0051    -2.731    -0.974    -0.911  0.2944  0.8062 -0.5132
    15 H(1)   Bbb    -0.0022    -1.178    -0.420    -0.393  0.6613  0.2159  0.7184
              Bcc     0.0073     3.908     1.395     1.304  0.6900 -0.5508 -0.4696
 
              Baa    -0.0056    -2.994    -1.068    -0.999  0.7557 -0.0114  0.6548
    16 H(1)   Bbb    -0.0015    -0.791    -0.282    -0.264  0.4521  0.7325 -0.5090
              Bcc     0.0071     3.784     1.350     1.262 -0.4738  0.6807  0.5587
 
              Baa    -0.0923   -12.388    -4.420    -4.132  0.7507 -0.3882  0.5345
    17 C(13)  Bbb    -0.0862   -11.574    -4.130    -3.861  0.6604  0.4620 -0.5920
              Bcc     0.1786    23.962     8.550     7.993 -0.0171  0.7974  0.6032
 
              Baa    -0.0034    -1.836    -0.655    -0.612 -0.2557  0.6050  0.7540
    18 H(1)   Bbb    -0.0028    -1.479    -0.528    -0.493  0.6779  0.6683 -0.3064
              Bcc     0.0062     3.316     1.183     1.106  0.6892 -0.4329  0.5810
 
              Baa    -0.0082    -4.380    -1.563    -1.461  0.8974  0.0238 -0.4405
    19 H(1)   Bbb    -0.0025    -1.326    -0.473    -0.442 -0.0205  0.9997  0.0123
              Bcc     0.0107     5.706     2.036     1.903  0.4407 -0.0020  0.8977
 
              Baa    -0.0027    -1.448    -0.517    -0.483  0.0122  0.6675  0.7445
    20 H(1)   Bbb     0.0006     0.335     0.120     0.112  0.1391  0.7362 -0.6623
              Bcc     0.0021     1.112     0.397     0.371  0.9902 -0.1116  0.0838
 
              Baa    -0.0115    -6.151    -2.195    -2.052  0.7729 -0.3877  0.5023
    21 H(1)   Bbb    -0.0013    -0.668    -0.238    -0.223 -0.0040  0.7886  0.6149
              Bcc     0.0128     6.819     2.433     2.275  0.6346  0.4773 -0.6079
 
              Baa    -0.3880   -15.910    -5.677    -5.307  0.6274 -0.4434  0.6401
    22 S(33)  Bbb    -0.3656   -14.988    -5.348    -4.999 -0.3210  0.6017  0.7314
              Bcc     0.7536    30.897    11.025    10.306  0.7094  0.6644 -0.2351
 
              Baa    -0.0025    -0.337    -0.120    -0.112 -0.5279  0.2539  0.8105
    23 C(13)  Bbb    -0.0013    -0.169    -0.060    -0.056  0.3407  0.9374 -0.0718
              Bcc     0.0038     0.506     0.180     0.169  0.7780 -0.2383  0.5814
 
              Baa    -0.0029    -0.390    -0.139    -0.130  0.3189 -0.1392  0.9375
    24 C(13)  Bbb     0.0001     0.007     0.003     0.002  0.2753  0.9601  0.0489
              Bcc     0.0029     0.383     0.137     0.128  0.9069 -0.2425 -0.3445
 
              Baa    -0.0028    -0.378    -0.135    -0.126 -0.4538 -0.2513  0.8549
    25 C(13)  Bbb     0.0001     0.012     0.004     0.004 -0.5343  0.8446 -0.0353
              Bcc     0.0027     0.367     0.131     0.122  0.7132  0.4728  0.5175
 
              Baa    -0.0196    -0.754    -0.269    -0.252  0.3144  0.8946  0.3176
    26 N(14)  Bbb    -0.0185    -0.712    -0.254    -0.238  0.9297 -0.3577  0.0872
              Bcc     0.0380     1.466     0.523     0.489 -0.1917 -0.2679  0.9442
 
              Baa    -0.0212    -0.817    -0.292    -0.273 -0.0271  0.9749  0.2211
    27 N(14)  Bbb    -0.0202    -0.779    -0.278    -0.260  0.9715 -0.0264  0.2355
              Bcc     0.0414     1.597     0.570     0.533 -0.2354 -0.2212  0.9464
 
              Baa    -0.0006    -0.079    -0.028    -0.026  0.5048  0.2401  0.8292
    28 C(13)  Bbb    -0.0000    -0.004    -0.002    -0.001 -0.2469  0.9606 -0.1278
              Bcc     0.0006     0.084     0.030     0.028  0.8272  0.1402 -0.5442
 
              Baa    -0.0005    -0.286    -0.102    -0.095 -0.3461 -0.6543  0.6724
    29 H(1)   Bbb    -0.0001    -0.035    -0.012    -0.012  0.7507  0.2368  0.6168
              Bcc     0.0006     0.321     0.115     0.107 -0.5628  0.7182  0.4092
 
              Baa    -0.0010    -0.521    -0.186    -0.174 -0.1362 -0.0611  0.9888
    30 H(1)   Bbb    -0.0005    -0.264    -0.094    -0.088  0.6373  0.7587  0.1347
              Bcc     0.0015     0.784     0.280     0.262  0.7585 -0.6485  0.0644
 
              Baa    -0.0005    -0.286    -0.102    -0.095 -0.1298  0.0856  0.9878
    31 H(1)   Bbb    -0.0001    -0.080    -0.029    -0.027  0.8357  0.5456  0.0625
              Bcc     0.0007     0.366     0.131     0.122 -0.5336  0.8337 -0.1423
 
              Baa    -0.0008    -0.106    -0.038    -0.035  0.2553  0.9358  0.2429
    32 C(13)  Bbb    -0.0000    -0.002    -0.001    -0.001  0.2541 -0.3074  0.9170
              Bcc     0.0008     0.107     0.038     0.036  0.9329 -0.1724 -0.3163
 
              Baa    -0.0004    -0.220    -0.078    -0.073 -0.1479 -0.6285  0.7636
    33 H(1)   Bbb    -0.0002    -0.130    -0.047    -0.043  0.4910  0.6236  0.6083
              Bcc     0.0007     0.350     0.125     0.117  0.8585 -0.4649 -0.2164
 
              Baa    -0.0004    -0.200    -0.071    -0.067  0.0279  0.6246  0.7805
    34 H(1)   Bbb    -0.0003    -0.168    -0.060    -0.056  0.5995  0.6143 -0.5130
              Bcc     0.0007     0.368     0.131     0.123  0.7999 -0.4822  0.3573
 
              Baa    -0.0004    -0.224    -0.080    -0.075 -0.0782 -0.3526  0.9325
    35 H(1)   Bbb    -0.0002    -0.081    -0.029    -0.027  0.0294  0.9341  0.3557
              Bcc     0.0006     0.305     0.109     0.102  0.9965 -0.0553  0.0627
 
              Baa    -0.0004    -0.060    -0.021    -0.020  0.4048  0.1482  0.9023
    36 C(13)  Bbb    -0.0002    -0.032    -0.011    -0.011 -0.3455  0.9384  0.0008
              Bcc     0.0007     0.092     0.033     0.031  0.8466  0.3121 -0.4311
 
              Baa    -0.0006    -0.324    -0.115    -0.108 -0.1479 -0.6822  0.7161
    37 H(1)   Bbb     0.0000     0.002     0.001     0.001  0.6267 -0.6248 -0.4658
              Bcc     0.0006     0.322     0.115     0.107  0.7651  0.3799  0.5199
 
              Baa    -0.0008    -0.444    -0.159    -0.148 -0.0976 -0.3125  0.9449
    38 H(1)   Bbb    -0.0004    -0.222    -0.079    -0.074 -0.1985  0.9365  0.2892
              Bcc     0.0012     0.667     0.238     0.222  0.9752  0.1594  0.1534
 
              Baa    -0.0005    -0.280    -0.100    -0.094 -0.0989  0.1234  0.9874
    39 H(1)   Bbb    -0.0001    -0.047    -0.017    -0.016 -0.6118  0.7751 -0.1581
              Bcc     0.0006     0.327     0.117     0.109  0.7848  0.6197  0.0012
 
              Baa    -0.0008    -0.109    -0.039    -0.036  0.0170  0.9901  0.1390
    40 C(13)  Bbb     0.0001     0.020     0.007     0.007 -0.6185 -0.0988  0.7795
              Bcc     0.0007     0.089     0.032     0.030  0.7856 -0.0992  0.6107
 
              Baa    -0.0004    -0.233    -0.083    -0.078 -0.2732 -0.6279  0.7287
    41 H(1)   Bbb    -0.0002    -0.123    -0.044    -0.041 -0.4470  0.7537  0.4819
              Bcc     0.0007     0.356     0.127     0.119  0.8518  0.1940  0.4866
 
              Baa    -0.0004    -0.207    -0.074    -0.069 -0.0217  0.5257  0.8504
    42 H(1)   Bbb    -0.0003    -0.172    -0.061    -0.057 -0.1859  0.8337 -0.5200
              Bcc     0.0007     0.379     0.135     0.126  0.9823  0.1694 -0.0796
 
              Baa    -0.0004    -0.224    -0.080    -0.075 -0.3323 -0.3174  0.8882
    43 H(1)   Bbb    -0.0002    -0.088    -0.031    -0.029  0.1889  0.9002  0.3924
              Bcc     0.0006     0.311     0.111     0.104  0.9241 -0.2982  0.2391
 
              Baa    -0.0038    -0.511    -0.182    -0.170  0.2372  0.9038 -0.3561
    44 C(13)  Bbb    -0.0019    -0.261    -0.093    -0.087  0.9669 -0.1842  0.1766
              Bcc     0.0058     0.772     0.276     0.258 -0.0940  0.3862  0.9176
 
              Baa    -0.0032    -0.429    -0.153    -0.143 -0.3579  0.4181  0.8349
    45 C(13)  Bbb     0.0007     0.099     0.035     0.033 -0.2204  0.8310 -0.5107
              Bcc     0.0025     0.330     0.118     0.110  0.9073  0.3668  0.2053
 
              Baa    -0.0045    -0.601    -0.215    -0.201  0.1388  0.3203  0.9371
    46 C(13)  Bbb     0.0016     0.211     0.075     0.070  0.4589  0.8177 -0.3475
              Bcc     0.0029     0.391     0.139     0.130  0.8776 -0.4783  0.0335
 
              Baa    -0.0044    -0.171    -0.061    -0.057 -0.1376  0.9335 -0.3312
    47 N(14)  Bbb    -0.0030    -0.116    -0.041    -0.039  0.9900  0.1397 -0.0174
              Bcc     0.0074     0.287     0.102     0.096 -0.0300  0.3303  0.9434
 
              Baa    -0.0062    -0.241    -0.086    -0.080  0.1639  0.9516 -0.2601
    48 N(14)  Bbb    -0.0048    -0.185    -0.066    -0.062  0.9719 -0.1105  0.2081
              Bcc     0.0110     0.426     0.152     0.142 -0.1692  0.2869  0.9429
 
              Baa    -0.0009    -0.118    -0.042    -0.039  0.4027 -0.5117  0.7589
    49 C(13)  Bbb    -0.0004    -0.055    -0.020    -0.018 -0.0218  0.8235  0.5669
              Bcc     0.0013     0.173     0.062     0.058  0.9151  0.2448 -0.3205
 
              Baa    -0.0005    -0.253    -0.090    -0.084 -0.3586  0.8110  0.4622
    50 H(1)   Bbb    -0.0003    -0.175    -0.062    -0.058  0.4457 -0.2862  0.8482
              Bcc     0.0008     0.427     0.152     0.142  0.8202  0.5102 -0.2588
 
              Baa    -0.0011    -0.586    -0.209    -0.196 -0.0161 -0.0478  0.9987
    51 H(1)   Bbb    -0.0011    -0.569    -0.203    -0.190 -0.5440  0.8385  0.0313
              Bcc     0.0022     1.155     0.412     0.385  0.8389  0.5429  0.0395
 
              Baa    -0.0004    -0.218    -0.078    -0.073 -0.0610 -0.0426  0.9972
    52 H(1)   Bbb    -0.0004    -0.202    -0.072    -0.068 -0.5798  0.8147 -0.0007
              Bcc     0.0008     0.421     0.150     0.140  0.8125  0.5782  0.0744
 
              Baa    -0.0004    -0.052    -0.019    -0.017 -0.1329  0.9157 -0.3792
    53 C(13)  Bbb    -0.0000    -0.005    -0.002    -0.002  0.0418  0.3875  0.9209
              Bcc     0.0004     0.057     0.021     0.019  0.9902  0.1065 -0.0898
 
              Baa    -0.0003    -0.140    -0.050    -0.047 -0.0102  0.5654  0.8247
    54 H(1)   Bbb    -0.0002    -0.114    -0.041    -0.038 -0.3177  0.7802 -0.5388
              Bcc     0.0005     0.254     0.091     0.085  0.9481  0.2675 -0.1717
 
              Baa    -0.0003    -0.136    -0.049    -0.046 -0.2541  0.9557 -0.1484
    55 H(1)   Bbb    -0.0002    -0.114    -0.041    -0.038 -0.1995  0.0983  0.9749
              Bcc     0.0005     0.251     0.089     0.084  0.9464  0.2773  0.1657
 
              Baa    -0.0003    -0.152    -0.054    -0.051  0.0172  0.4105  0.9117
    56 H(1)   Bbb    -0.0002    -0.098    -0.035    -0.033 -0.0456  0.9112 -0.4094
              Bcc     0.0005     0.250     0.089     0.083  0.9988  0.0345 -0.0344
 
              Baa    -0.0007    -0.094    -0.033    -0.031  0.4047  0.5546  0.7271
    57 C(13)  Bbb    -0.0006    -0.080    -0.029    -0.027  0.2625  0.6912 -0.6733
              Bcc     0.0013     0.174     0.062     0.058  0.8760 -0.4633 -0.1341
 
              Baa    -0.0006    -0.343    -0.122    -0.114  0.1076  0.6682  0.7361
    58 H(1)   Bbb    -0.0004    -0.217    -0.078    -0.072 -0.5031 -0.6021  0.6201
              Bcc     0.0010     0.560     0.200     0.187  0.8575 -0.4370  0.2714
 
              Baa    -0.0011    -0.599    -0.214    -0.200  0.1940  0.4088  0.8918
    59 H(1)   Bbb    -0.0009    -0.461    -0.165    -0.154  0.4070  0.7936 -0.4523
              Bcc     0.0020     1.060     0.378     0.354  0.8926 -0.4507  0.0125
 
              Baa    -0.0005    -0.261    -0.093    -0.087 -0.0348 -0.1411  0.9894
    60 H(1)   Bbb    -0.0003    -0.181    -0.065    -0.060  0.5418  0.8292  0.1373
              Bcc     0.0008     0.442     0.158     0.147  0.8398 -0.5409 -0.0476
 
              Baa    -0.0005    -0.064    -0.023    -0.021  0.1825  0.9770 -0.1105
    61 C(13)  Bbb     0.0000     0.003     0.001     0.001 -0.0384  0.1194  0.9921
              Bcc     0.0005     0.061     0.022     0.020  0.9825 -0.1768  0.0593
 
              Baa    -0.0003    -0.174    -0.062    -0.058  0.0025  0.6751  0.7377
    62 H(1)   Bbb    -0.0002    -0.116    -0.041    -0.039  0.4004  0.6753 -0.6194
              Bcc     0.0005     0.290     0.103     0.097  0.9163 -0.2970  0.2687
 
              Baa    -0.0003    -0.150    -0.053    -0.050 -0.1368 -0.6444  0.7524
    63 H(1)   Bbb    -0.0003    -0.134    -0.048    -0.045  0.2716  0.7060  0.6541
              Bcc     0.0005     0.284     0.101     0.095  0.9526 -0.2938 -0.0784
 
              Baa    -0.0003    -0.161    -0.058    -0.054 -0.1010  0.4211  0.9014
    64 H(1)   Bbb    -0.0002    -0.117    -0.042    -0.039  0.0596  0.9070 -0.4170
              Bcc     0.0005     0.278     0.099     0.093  0.9931 -0.0116  0.1167
 

 ---------------------------------------------------------------------------------

 No NMR shielding tensors so no spin-rotation constants.
 Leave Link  601 at Wed Jan 27 08:25:29 2021, MaxMem=  4026531840 cpu:              10.4 elap:               1.4
 (Enter /opt/ohpc/pub/libs/gaussian/g16-A.03/sandybridge/g16/l9999.exe)

 Test job not archived.
 1\1\GINC-CNODE145\SP\ULC-wHPBE\TZVP\C26H32N4S2(3+,2)\RDU230\27-Jan-202
 1\0\\#P LC-wHPBE/TZVP iop(3/107=0191400000, 3/108=0191400000) scf=(con
 ver=6,fermi,ndamp=35,noincfock,novaracc,vshift=500,xqc)\\H32 C26 S2 N4
 \\3,2\C,0,-2.928949,-0.209586,-0.466429\C,0,-1.563914,-0.061175,-0.303
 79\S,0,-0.549634,-0.92994,-1.465043\C,0,-1.080492,0.744795,0.70659\C,0
 ,1.720975,-1.178026,0.124019\C,0,1.104728,-0.556786,-0.961278\C,0,-3.8
 04439,0.453059,0.37376\C,0,-1.957571,1.39872,1.546095\H,0,-0.017059,0.
 867388,0.843825\C,0,3.05531,-0.905897,0.375396\C,0,1.834379,0.303673,-
 1.763498\C,0,3.157322,0.57014,-1.506853\C,0,3.772824,-0.043708,-0.4294
 35\H,0,3.535939,-1.385849,1.215765\H,0,1.346414,0.763075,-2.610001\H,0
 ,3.71103,1.227115,-2.160412\C,0,-3.316329,1.26263,1.386512\H,0,-3.3099
 64,-0.825983,-1.268943\H,0,-0.12139,-2.546838,0.437504\H,0,-1.570409,2
 .020933,2.339064\H,0,-3.993957,1.766527,2.059405\S,0,0.923466,-2.27951
 2,1.229412\C,0,5.179371,0.186625,-0.15991\C,0,6.258258,1.013194,-0.194
 238\C,0,6.373984,-0.291545,0.281001\N,0,6.778879,2.1722,-0.466391\N,0,
 7.085837,-1.264246,0.765069\C,0,5.943792,3.274283,-0.907684\H,0,6.1879
 51,3.5455,-1.931936\H,0,4.898805,2.994168,-0.846509\H,0,6.108951,4.134
 804,-0.264794\C,0,8.194976,2.451187,-0.318309\H,0,8.537142,3.011091,-1
 .183702\H,0,8.380874,3.039067,0.577705\H,0,8.758216,1.527533,-0.273817
 \C,0,6.515968,-2.589608,0.931428\H,0,6.460524,-2.846499,1.986434\H,0,5
 .524243,-2.624805,0.496396\H,0,7.140387,-3.318442,0.421721\C,0,8.48492
 9,-1.112006,1.118438\H,0,8.667734,-1.621246,2.059984\H,0,9.125917,-1.5
 45202,0.353886\H,0,8.728287,-0.065327,1.25212\C,0,-5.234909,0.301436,0
 .192555\C,0,-6.482207,0.837696,0.274291\C,0,-6.296202,-0.469144,-0.166
 373\N,0,-7.258316,1.842942,0.55157\N,0,-6.771609,-1.601745,-0.593499\C
 ,0,-6.699705,3.135271,0.904858\H,0,-6.943427,3.382636,1.935256\H,0,-5.
 623434,3.119821,0.780416\H,0,-7.111169,3.899344,0.250646\C,0,-8.704916
 ,1.757804,0.486526\H,0,-9.127537,2.25749,1.353238\H,0,-9.080352,2.2381
 57,-0.414316\H,0,-9.022841,0.722915,0.509579\C,0,-5.902929,-2.750782,-
 0.768792\H,0,-5.850729,-3.027562,-1.819029\H,0,-4.908582,-2.521281,-0.
 40444\H,0,-6.292204,-3.59128,-0.200176\C,0,-8.181475,-1.806186,-0.8668
 23\H,0,-8.283723,-2.375263,-1.7861\H,0,-8.657299,-2.356258,-0.057912\H
 ,0,-8.67988,-0.85495,-1.00634\\Version=EM64L-G16RevA.03\State=2-A\HF=-
 2023.3205667\S2=0.759831\S2-1=0.\S2A=0.750079\RMSD=4.381e-07\Dipole=0.
 0465848,0.8121804,0.0910243\Quadrupole=256.2511173,-109.0814017,-147.1
 697156,4.6533401,2.8298785,1.1180523\PG=C01 [X(C26H32N4S2)]\\@


 JUST WHEN YOU THINK YOU'VE GOT THE WORLD ON A STRING,
 YOU FIND OUT IT'S YOUR LEASH.
 Job cpu time:       0 days  9 hours 38 minutes 35.4 seconds.
 Elapsed time:       0 days  1 hours 13 minutes 19.9 seconds.
 File lengths (MBytes):  RWF=    364 Int=      0 D2E=      0 Chk=     52 Scr=      8
 Normal termination of Gaussian 16 at Wed Jan 27 08:25:29 2021.
