 Entering Gaussian System, Link 0=g16
 Input=mol_ta_cp_whol_tune_n2.gjf
 Output=mol_ta_cp_whol_tune_n2.log
 Initial command:
 /opt/ohpc/pub/libs/gaussian/g16-A.03/sandybridge/g16/l1.exe "/mnt/gpfs2_4m/scratch/rdu230/ondemand/projects/init_structures/gaussian/wtuning/mol_ta_cp_whol/tuning_mol_ta_cp_whol_ocycle0/Gau-129097.inp" -scrdir="/mnt/gpfs2_4m/scratch/rdu230/ondemand/projects/init_structures/gaussian/wtuning/mol_ta_cp_whol/tuning_mol_ta_cp_whol_ocycle0/"
 Entering Link 1 = /opt/ohpc/pub/libs/gaussian/g16-A.03/sandybridge/g16/l1.exe PID=    129098.
  
 Copyright (c) 1988,1990,1992,1993,1995,1998,2003,2009,2016,
            Gaussian, Inc.  All Rights Reserved.
  
 This is part of the Gaussian(R) 16 program.  It is based on
 the Gaussian(R) 09 system (copyright 2009, Gaussian, Inc.),
 the Gaussian(R) 03 system (copyright 2003, Gaussian, Inc.),
 the Gaussian(R) 98 system (copyright 1998, Gaussian, Inc.),
 the Gaussian(R) 94 system (copyright 1995, Gaussian, Inc.),
 the Gaussian 92(TM) system (copyright 1992, Gaussian, Inc.),
 the Gaussian 90(TM) system (copyright 1990, Gaussian, Inc.),
 the Gaussian 88(TM) system (copyright 1988, Gaussian, Inc.),
 the Gaussian 86(TM) system (copyright 1986, Carnegie Mellon
 University), and the Gaussian 82(TM) system (copyright 1983,
 Carnegie Mellon University). Gaussian is a federally registered
 trademark of Gaussian, Inc.
  
 This software contains proprietary and confidential information,
 including trade secrets, belonging to Gaussian, Inc.
  
 This software is provided under written license and may be
 used, copied, transmitted, or stored only in accord with that
 written license.
  
 The following legend is applicable only to US Government
 contracts under FAR:
  
                    RESTRICTED RIGHTS LEGEND
  
 Use, reproduction and disclosure by the US Government is
 subject to restrictions as set forth in subparagraphs (a)
 and (c) of the Commercial Computer Software - Restricted
 Rights clause in FAR 52.227-19.
  
 Gaussian, Inc.
 340 Quinnipiac St., Bldg. 40, Wallingford CT 06492
  
  
 ---------------------------------------------------------------
 Warning -- This program may not be used in any manner that
 competes with the business of Gaussian, Inc. or will provide
 assistance to any competitor of Gaussian, Inc.  The licensee
 of this program is prohibited from giving any competitor of
 Gaussian, Inc. access to this program.  By using this program,
 the user acknowledges that Gaussian, Inc. is engaged in the
 business of creating and licensing software in the field of
 computational chemistry and represents and warrants to the
 licensee that it is not a competitor of Gaussian, Inc. and that
 it will not use this program in any manner prohibited above.
 ---------------------------------------------------------------
  

 Cite this work as:
 Gaussian 16, Revision A.03,
 M. J. Frisch, G. W. Trucks, H. B. Schlegel, G. E. Scuseria, 
 M. A. Robb, J. R. Cheeseman, G. Scalmani, V. Barone, 
 G. A. Petersson, H. Nakatsuji, X. Li, M. Caricato, A. V. Marenich, 
 J. Bloino, B. G. Janesko, R. Gomperts, B. Mennucci, H. P. Hratchian, 
 J. V. Ortiz, A. F. Izmaylov, J. L. Sonnenberg, D. Williams-Young, 
 F. Ding, F. Lipparini, F. Egidi, J. Goings, B. Peng, A. Petrone, 
 T. Henderson, D. Ranasinghe, V. G. Zakrzewski, J. Gao, N. Rega, 
 G. Zheng, W. Liang, M. Hada, M. Ehara, K. Toyota, R. Fukuda, 
 J. Hasegawa, M. Ishida, T. Nakajima, Y. Honda, O. Kitao, H. Nakai, 
 T. Vreven, K. Throssell, J. A. Montgomery, Jr., J. E. Peralta, 
 F. Ogliaro, M. J. Bearpark, J. J. Heyd, E. N. Brothers, K. N. Kudin, 
 V. N. Staroverov, T. A. Keith, R. Kobayashi, J. Normand, 
 K. Raghavachari, A. P. Rendell, J. C. Burant, S. S. Iyengar, 
 J. Tomasi, M. Cossi, J. M. Millam, M. Klene, C. Adamo, R. Cammi, 
 J. W. Ochterski, R. L. Martin, K. Morokuma, O. Farkas, 
 J. B. Foresman, and D. J. Fox, Gaussian, Inc., Wallingford CT, 2016.
 
 ******************************************
 Gaussian 16:  EM64L-G16RevA.03 25-Dec-2016
                27-Jan-2021 
 ******************************************
 %mem=30GB
 %nproc=8
 Will use up to    8 processors via shared memory.
 ----------------------------------------------------------------------
 #P LC-wHPBE/TZVP iop(3/107=0156200000, 3/108=0156200000) scf=(conver=6
 ,fermi,ndamp=35,noincfock,novaracc,vshift=500,xqc)
 ----------------------------------------------------------------------
 1/38=1,172=1/1;
 2/12=2,17=6,18=5,40=1/2;
 3/5=19,7=101,11=2,25=1,30=1,74=-71,107=156200000,108=156200000/1,2,3;
 4//1;
 5/5=100002,6=6,8=3,10=500,13=1,18=-1,22=13,38=1,93=35/2,8;
 6/7=2,8=2,9=2,10=2,28=1/1;
 99/5=1,9=1/99;
 Leave Link    1 at Wed Jan 27 03:23:40 2021, MaxMem=  4026531840 cpu:               1.1 elap:               0.2
 (Enter /opt/ohpc/pub/libs/gaussian/g16-A.03/sandybridge/g16/l101.exe)
 -------------
 H32 C26 S2 N4
 -------------
 Symbolic Z-matrix:
 Charge =  2 Multiplicity = 1
 C                    -2.92895  -0.20959  -0.46643 
 C                    -1.56391  -0.06118  -0.30379 
 S                    -0.54963  -0.92994  -1.46504 
 C                    -1.08049   0.7448    0.70659 
 C                     1.72098  -1.17803   0.12402 
 C                     1.10473  -0.55679  -0.96128 
 C                    -3.80444   0.45306   0.37376 
 C                    -1.95757   1.39872   1.5461 
 H                    -0.01706   0.86739   0.84383 
 C                     3.05531  -0.9059    0.3754 
 C                     1.83438   0.30367  -1.7635 
 C                     3.15732   0.57014  -1.50685 
 C                     3.77282  -0.04371  -0.42944 
 H                     3.53594  -1.38585   1.21576 
 H                     1.34641   0.76308  -2.61 
 H                     3.71103   1.22712  -2.16041 
 C                    -3.31633   1.26263   1.38651 
 H                    -3.30996  -0.82598  -1.26894 
 H                    -0.12139  -2.54684   0.4375 
 H                    -1.57041   2.02093   2.33906 
 H                    -3.99396   1.76653   2.0594 
 S                     0.92347  -2.27951   1.22941 
 C                     5.17937   0.18663  -0.15991 
 C                     6.25826   1.01319  -0.19424 
 C                     6.37398  -0.29155   0.281 
 N                     6.77888   2.1722   -0.46639 
 N                     7.08584  -1.26425   0.76507 
 C                     5.94379   3.27428  -0.90768 
 H                     6.18795   3.5455   -1.93194 
 H                     4.89881   2.99417  -0.84651 
 H                     6.10895   4.1348   -0.26479 
 C                     8.19498   2.45119  -0.31831 
 H                     8.53714   3.01109  -1.1837 
 H                     8.38087   3.03907   0.57771 
 H                     8.75822   1.52753  -0.27382 
 C                     6.51597  -2.58961   0.93143 
 H                     6.46052  -2.8465    1.98643 
 H                     5.52424  -2.62481   0.4964 
 H                     7.14039  -3.31844   0.42172 
 C                     8.48493  -1.11201   1.11844 
 H                     8.66773  -1.62125   2.05998 
 H                     9.12592  -1.5452    0.35389 
 H                     8.72829  -0.06533   1.25212 
 C                    -5.23491   0.30144   0.19256 
 C                    -6.48221   0.8377    0.27429 
 C                    -6.2962   -0.46914  -0.16637 
 N                    -7.25832   1.84294   0.55157 
 N                    -6.77161  -1.60175  -0.5935 
 C                    -6.6997    3.13527   0.90486 
 H                    -6.94343   3.38264   1.93526 
 H                    -5.62343   3.11982   0.78042 
 H                    -7.11117   3.89934   0.25065 
 C                    -8.70492   1.7578    0.48653 
 H                    -9.12754   2.25749   1.35324 
 H                    -9.08035   2.23816  -0.41432 
 H                    -9.02284   0.72292   0.50958 
 C                    -5.90293  -2.75078  -0.76879 
 H                    -5.85073  -3.02756  -1.81903 
 H                    -4.90858  -2.52128  -0.40444 
 H                    -6.2922   -3.59128  -0.20018 
 C                    -8.18148  -1.80619  -0.86682 
 H                    -8.28372  -2.37526  -1.7861 
 H                    -8.6573   -2.35626  -0.05791 
 H                    -8.67988  -0.85495  -1.00634 
 
 ITRead=  0  0  0  0  0  0  0  0  0  0  0  0  0  0  0  0  0  0  0  0
 ITRead=  0  0  0  0  0  0  0  0  0  0  0  0  0  0  0  0  0  0  0  0
 ITRead=  0  0  0  0  0  0  0  0  0  0  0  0  0  0  0  0  0  0  0  0
 ITRead=  0  0  0  0
 MicOpt= -1 -1 -1 -1 -1 -1 -1 -1 -1 -1 -1 -1 -1 -1 -1 -1 -1 -1 -1 -1
 MicOpt= -1 -1 -1 -1 -1 -1 -1 -1 -1 -1 -1 -1 -1 -1 -1 -1 -1 -1 -1 -1
 MicOpt= -1 -1 -1 -1 -1 -1 -1 -1 -1 -1 -1 -1 -1 -1 -1 -1 -1 -1 -1 -1
 MicOpt= -1 -1 -1 -1
 NAtoms=     64 NQM=       64 NQMF=       0 NMMI=      0 NMMIF=      0
                NMic=       0 NMicF=      0.
                    Isotopes and Nuclear Properties:
 (Nuclear quadrupole moments (NQMom) in fm**2, nuclear magnetic moments (NMagM)
  in nuclear magnetons)

  Atom         1           2           3           4           5           6           7           8           9          10
 IAtWgt=          12          12          32          12          12          12          12          12           1          12
 AtmWgt=  12.0000000  12.0000000  31.9720718  12.0000000  12.0000000  12.0000000  12.0000000  12.0000000   1.0078250  12.0000000
 NucSpn=           0           0           0           0           0           0           0           0           1           0
 AtZEff=  -0.0000000  -0.0000000  -0.0000000  -0.0000000  -0.0000000  -0.0000000  -0.0000000  -0.0000000  -0.0000000  -0.0000000
 NQMom=    0.0000000   0.0000000   0.0000000   0.0000000   0.0000000   0.0000000   0.0000000   0.0000000   0.0000000   0.0000000
 NMagM=    0.0000000   0.0000000   0.0000000   0.0000000   0.0000000   0.0000000   0.0000000   0.0000000   2.7928460   0.0000000
 AtZNuc=   6.0000000   6.0000000  16.0000000   6.0000000   6.0000000   6.0000000   6.0000000   6.0000000   1.0000000   6.0000000

  Atom        11          12          13          14          15          16          17          18          19          20
 IAtWgt=          12          12          12           1           1           1          12           1           1           1
 AtmWgt=  12.0000000  12.0000000  12.0000000   1.0078250   1.0078250   1.0078250  12.0000000   1.0078250   1.0078250   1.0078250
 NucSpn=           0           0           0           1           1           1           0           1           1           1
 AtZEff=  -0.0000000  -0.0000000  -0.0000000  -0.0000000  -0.0000000  -0.0000000  -0.0000000  -0.0000000  -0.0000000  -0.0000000
 NQMom=    0.0000000   0.0000000   0.0000000   0.0000000   0.0000000   0.0000000   0.0000000   0.0000000   0.0000000   0.0000000
 NMagM=    0.0000000   0.0000000   0.0000000   2.7928460   2.7928460   2.7928460   0.0000000   2.7928460   2.7928460   2.7928460
 AtZNuc=   6.0000000   6.0000000   6.0000000   1.0000000   1.0000000   1.0000000   6.0000000   1.0000000   1.0000000   1.0000000

  Atom        21          22          23          24          25          26          27          28          29          30
 IAtWgt=           1          32          12          12          12          14          14          12           1           1
 AtmWgt=   1.0078250  31.9720718  12.0000000  12.0000000  12.0000000  14.0030740  14.0030740  12.0000000   1.0078250   1.0078250
 NucSpn=           1           0           0           0           0           2           2           0           1           1
 AtZEff=  -0.0000000  -0.0000000  -0.0000000  -0.0000000  -0.0000000  -0.0000000  -0.0000000  -0.0000000  -0.0000000  -0.0000000
 NQMom=    0.0000000   0.0000000   0.0000000   0.0000000   0.0000000   2.0440000   2.0440000   0.0000000   0.0000000   0.0000000
 NMagM=    2.7928460   0.0000000   0.0000000   0.0000000   0.0000000   0.4037610   0.4037610   0.0000000   2.7928460   2.7928460
 AtZNuc=   1.0000000  16.0000000   6.0000000   6.0000000   6.0000000   7.0000000   7.0000000   6.0000000   1.0000000   1.0000000

  Atom        31          32          33          34          35          36          37          38          39          40
 IAtWgt=           1          12           1           1           1          12           1           1           1          12
 AtmWgt=   1.0078250  12.0000000   1.0078250   1.0078250   1.0078250  12.0000000   1.0078250   1.0078250   1.0078250  12.0000000
 NucSpn=           1           0           1           1           1           0           1           1           1           0
 AtZEff=  -0.0000000  -0.0000000  -0.0000000  -0.0000000  -0.0000000  -0.0000000  -0.0000000  -0.0000000  -0.0000000  -0.0000000
 NQMom=    0.0000000   0.0000000   0.0000000   0.0000000   0.0000000   0.0000000   0.0000000   0.0000000   0.0000000   0.0000000
 NMagM=    2.7928460   0.0000000   2.7928460   2.7928460   2.7928460   0.0000000   2.7928460   2.7928460   2.7928460   0.0000000
 AtZNuc=   1.0000000   6.0000000   1.0000000   1.0000000   1.0000000   6.0000000   1.0000000   1.0000000   1.0000000   6.0000000

  Atom        41          42          43          44          45          46          47          48          49          50
 IAtWgt=           1           1           1          12          12          12          14          14          12           1
 AtmWgt=   1.0078250   1.0078250   1.0078250  12.0000000  12.0000000  12.0000000  14.0030740  14.0030740  12.0000000   1.0078250
 NucSpn=           1           1           1           0           0           0           2           2           0           1
 AtZEff=  -0.0000000  -0.0000000  -0.0000000  -0.0000000  -0.0000000  -0.0000000  -0.0000000  -0.0000000  -0.0000000  -0.0000000
 NQMom=    0.0000000   0.0000000   0.0000000   0.0000000   0.0000000   0.0000000   2.0440000   2.0440000   0.0000000   0.0000000
 NMagM=    2.7928460   2.7928460   2.7928460   0.0000000   0.0000000   0.0000000   0.4037610   0.4037610   0.0000000   2.7928460
 AtZNuc=   1.0000000   1.0000000   1.0000000   6.0000000   6.0000000   6.0000000   7.0000000   7.0000000   6.0000000   1.0000000

  Atom        51          52          53          54          55          56          57          58          59          60
 IAtWgt=           1           1          12           1           1           1          12           1           1           1
 AtmWgt=   1.0078250   1.0078250  12.0000000   1.0078250   1.0078250   1.0078250  12.0000000   1.0078250   1.0078250   1.0078250
 NucSpn=           1           1           0           1           1           1           0           1           1           1
 AtZEff=  -0.0000000  -0.0000000  -0.0000000  -0.0000000  -0.0000000  -0.0000000  -0.0000000  -0.0000000  -0.0000000  -0.0000000
 NQMom=    0.0000000   0.0000000   0.0000000   0.0000000   0.0000000   0.0000000   0.0000000   0.0000000   0.0000000   0.0000000
 NMagM=    2.7928460   2.7928460   0.0000000   2.7928460   2.7928460   2.7928460   0.0000000   2.7928460   2.7928460   2.7928460
 AtZNuc=   1.0000000   1.0000000   6.0000000   1.0000000   1.0000000   1.0000000   6.0000000   1.0000000   1.0000000   1.0000000

  Atom        61          62          63          64
 IAtWgt=          12           1           1           1
 AtmWgt=  12.0000000   1.0078250   1.0078250   1.0078250
 NucSpn=           0           1           1           1
 AtZEff=  -0.0000000  -0.0000000  -0.0000000  -0.0000000
 NQMom=    0.0000000   0.0000000   0.0000000   0.0000000
 NMagM=    0.0000000   2.7928460   2.7928460   2.7928460
 AtZNuc=   6.0000000   1.0000000   1.0000000   1.0000000
 Leave Link  101 at Wed Jan 27 03:23:40 2021, MaxMem=  4026531840 cpu:               0.9 elap:               0.1
 (Enter /opt/ohpc/pub/libs/gaussian/g16-A.03/sandybridge/g16/l202.exe)
 Stoichiometry    C26H32N4S2(2+)
 Framework group  C1[X(C26H32N4S2)]
 Deg. of freedom   186
 Full point group                 C1      NOp   1
 Largest Abelian subgroup         C1      NOp   1
 Largest concise Abelian subgroup C1      NOp   1
                         Standard orientation:                         
 ---------------------------------------------------------------------
 Center     Atomic      Atomic             Coordinates (Angstroms)
 Number     Number       Type             X           Y           Z
 ---------------------------------------------------------------------
      1          6           0        2.928949   -0.209586    0.466429
      2          6           0        1.563914   -0.061175    0.303790
      3         16           0        0.549634   -0.929940    1.465043
      4          6           0        1.080492    0.744795   -0.706590
      5          6           0       -1.720975   -1.178026   -0.124019
      6          6           0       -1.104728   -0.556786    0.961278
      7          6           0        3.804439    0.453059   -0.373760
      8          6           0        1.957571    1.398720   -1.546095
      9          1           0        0.017059    0.867388   -0.843825
     10          6           0       -3.055310   -0.905897   -0.375396
     11          6           0       -1.834379    0.303673    1.763498
     12          6           0       -3.157322    0.570140    1.506853
     13          6           0       -3.772824   -0.043708    0.429435
     14          1           0       -3.535939   -1.385849   -1.215765
     15          1           0       -1.346414    0.763075    2.610001
     16          1           0       -3.711030    1.227115    2.160412
     17          6           0        3.316329    1.262630   -1.386512
     18          1           0        3.309964   -0.825983    1.268943
     19          1           0        0.121390   -2.546838   -0.437504
     20          1           0        1.570409    2.020933   -2.339064
     21          1           0        3.993957    1.766527   -2.059405
     22         16           0       -0.923466   -2.279512   -1.229412
     23          6           0       -5.179371    0.186625    0.159910
     24          6           0       -6.258258    1.013194    0.194238
     25          6           0       -6.373984   -0.291545   -0.281001
     26          7           0       -6.778879    2.172200    0.466391
     27          7           0       -7.085837   -1.264246   -0.765069
     28          6           0       -5.943792    3.274283    0.907684
     29          1           0       -6.187951    3.545500    1.931936
     30          1           0       -4.898805    2.994168    0.846509
     31          1           0       -6.108951    4.134804    0.264794
     32          6           0       -8.194976    2.451187    0.318309
     33          1           0       -8.537142    3.011091    1.183702
     34          1           0       -8.380874    3.039067   -0.577705
     35          1           0       -8.758216    1.527533    0.273817
     36          6           0       -6.515968   -2.589608   -0.931428
     37          1           0       -6.460524   -2.846499   -1.986434
     38          1           0       -5.524243   -2.624805   -0.496396
     39          1           0       -7.140387   -3.318442   -0.421721
     40          6           0       -8.484929   -1.112006   -1.118438
     41          1           0       -8.667734   -1.621246   -2.059984
     42          1           0       -9.125917   -1.545202   -0.353886
     43          1           0       -8.728287   -0.065327   -1.252120
     44          6           0        5.234909    0.301436   -0.192555
     45          6           0        6.482207    0.837696   -0.274291
     46          6           0        6.296202   -0.469144    0.166373
     47          7           0        7.258316    1.842942   -0.551570
     48          7           0        6.771609   -1.601745    0.593499
     49          6           0        6.699705    3.135271   -0.904858
     50          1           0        6.943427    3.382636   -1.935256
     51          1           0        5.623434    3.119821   -0.780416
     52          1           0        7.111169    3.899344   -0.250646
     53          6           0        8.704916    1.757804   -0.486526
     54          1           0        9.127537    2.257490   -1.353238
     55          1           0        9.080352    2.238157    0.414316
     56          1           0        9.022841    0.722915   -0.509579
     57          6           0        5.902929   -2.750782    0.768792
     58          1           0        5.850729   -3.027562    1.819029
     59          1           0        4.908582   -2.521281    0.404440
     60          1           0        6.292204   -3.591280    0.200176
     61          6           0        8.181475   -1.806186    0.866823
     62          1           0        8.283723   -2.375263    1.786100
     63          1           0        8.657299   -2.356258    0.057912
     64          1           0        8.679880   -0.854950    1.006340
 ---------------------------------------------------------------------
 Rotational constants (GHZ):           0.3037259           0.0375439           0.0353071
 Leave Link  202 at Wed Jan 27 03:23:40 2021, MaxMem=  4026531840 cpu:               0.2 elap:               0.1
 (Enter /opt/ohpc/pub/libs/gaussian/g16-A.03/sandybridge/g16/l301.exe)
 Standard basis: TZVP (5D, 7F)
 Ernie: Thresh=  0.10000D-02 Tol=  0.10000D-05 Strict=F.
 There are   838 symmetry adapted cartesian basis functions of A   symmetry.
 There are   806 symmetry adapted basis functions of A   symmetry.
   806 basis functions,  1400 primitive gaussians,   838 cartesian basis functions
   123 alpha electrons      123 beta electrons
       nuclear repulsion energy      3278.9471045421 Hartrees.
 IExCor=33909 DFT=T Ex+Corr=LC-wHPBE ExCW=0 ScaHFX=  1.000000
 ScaDFX=  1.000000  1.000000  1.000000  1.000000 ScalE2=  1.000000  1.000000
 IRadAn=      5 IRanWt=     -1 IRanGd=            0 ICorTp=0 IEmpDi=  4
 HFx  wShort=  0.000000 wLong=  0.156200 cFull=  0.000000 cShort=  0.000000 cLong=  1.000000
 DFx  wShort=  0.000000 wLong=  0.156200 cFull=  0.000000 cShort=  1.000000 cLong=  0.000000
 NAtoms=   64 NActive=   64 NUniq=   64 SFac= 1.00D+00 NAtFMM=   60 NAOKFM=T Big=T
 Integral buffers will be    131072 words long.
 Raffenetti 2 integral format.
 Two-electron integral symmetry is turned on.
 Leave Link  301 at Wed Jan 27 03:23:40 2021, MaxMem=  4026531840 cpu:               0.5 elap:               0.1
 (Enter /opt/ohpc/pub/libs/gaussian/g16-A.03/sandybridge/g16/l302.exe)
 NPDir=0 NMtPBC=     1 NCelOv=     1 NCel=       1 NClECP=     1 NCelD=      1
         NCelK=      1 NCelE2=     1 NClLst=     1 CellRange=     0.0.
 One-electron integrals computed using PRISM.
 One-electron integral symmetry used in STVInt
 NBasis=   806 RedAO= T EigKep=  6.39D-06  NBF=   806
 NBsUse=   806 1.00D-06 EigRej= -1.00D+00 NBFU=   806
 Precomputing XC quadrature grid using
 IXCGrd= 4 IRadAn=           5 IRanWt=          -1 IRanGd=           0 AccXCQ= 0.00D+00.
 Generated NRdTot=       0 NPtTot=           0 NUsed=           0 NTot=          32
 NSgBfM=   770   766   769   770   770 MxSgAt=    64 MxSgA2=    64.
 Leave Link  302 at Wed Jan 27 03:23:43 2021, MaxMem=  4026531840 cpu:              18.7 elap:               2.4
 (Enter /opt/ohpc/pub/libs/gaussian/g16-A.03/sandybridge/g16/l303.exe)
 DipDrv:  MaxL=1.
 Leave Link  303 at Wed Jan 27 03:23:43 2021, MaxMem=  4026531840 cpu:               1.4 elap:               0.2
 (Enter /opt/ohpc/pub/libs/gaussian/g16-A.03/sandybridge/g16/l401.exe)
 ExpMin= 9.52D-02 ExpMax= 6.07D+04 ExpMxC= 2.07D+03 IAcc=3 IRadAn=         5 AccDes= 0.00D+00
 Harris functional with IExCor=33909 and IRadAn=       5 diagonalized for initial guess.
 HarFok:  IExCor=33909 AccDes= 0.00D+00 IRadAn=         5 IDoV= 1 UseB2=F ITyADJ=14
 ICtDFT=  3500011 ScaDFX=  1.000000  1.000000  1.000000  1.000000
 FoFCou: FMM=F IPFlag=           0 FMFlag=      100000 FMFlg1=        2001
         NFxFlg=           0 DoJE=T BraDBF=F KetDBF=T FulRan=T
         wScrn=  0.000000 ICntrl=       500 IOpCl=  0 I1Cent=   200000004 NGrid=           0
         NMat0=    1 NMatS0=      1 NMatT0=    0 NMatD0=    1 NMtDS0=    0 NMtDT0=    0
 Petite list used in FoFCou.
 Harris En= -2003.00868161423    
 JPrj=0 DoOrth=F DoCkMO=F.
 Leave Link  401 at Wed Jan 27 03:23:54 2021, MaxMem=  4026531840 cpu:              88.4 elap:              11.1
 (Enter /opt/ohpc/pub/libs/gaussian/g16-A.03/sandybridge/g16/l502.exe)
 Integral symmetry usage will be decided dynamically.
 Closed shell SCF:
 Using DIIS extrapolation, IDIIS=    10.
 NGot=  4026531840 LenX=  4025112240 LenY=  4024409158
 Requested convergence on RMS density matrix=1.00D-06 within  32 cycles.
 Requested convergence on MAX density matrix=1.00D-04.
 Requested convergence on             energy=1.00D-04.
 Virtual orbitals will be shifted by   0.500 hartree.
 No special actions if energy rises.
 Dynamic level shift is on during FON iterations.

 Cycle   1  Pass 1  IDiag  1:
 FoFJK:  IHMeth= 1 ICntrl=       0 DoSepK=T KAlg= 0 I1Cent=           0 FoldK=F
 IRaf=         1 NMat=       1 IRICut=       1 DoRegI=T DoRafI=F ISym2E= 0 IDoP0=0 IntGTp=1.
 FoFCou: FMM=T IPFlag=           0 FMFlag=      100000 FMFlg1=        2001
         NFxFlg=           0 DoJE=T BraDBF=F KetDBF=F FulRan=T
         wScrn=  0.000000 ICntrl=       500 IOpCl=  0 I1Cent=           0 NGrid=           0
         NMat0=    1 NMatS0=      1 NMatT0=    0 NMatD0=    1 NMtDS0=    0 NMtDT0=    0
 Symmetry not used in FoFCou.
 FMM levels:  10  Number of levels for PrismC:   9
 E= -2023.13515449447    
 DIIS: error= 3.02D-02 at cycle   1 NSaved=   1.
 NSaved= 1 IEnMin= 1 EnMin= -2023.13515449447     IErMin= 1 ErrMin= 3.02D-02
 ErrMax= 3.02D-02  0.00D+00 EMaxC= 1.00D+00 BMatC= 5.91D-01 BMatP= 5.91D-01
 IDIUse=1 WtCom= 1.00D+00 WtEn= 0.00D+00
 Coeff-Com:  0.100D+01
 Coeff:      0.100D+01
 Gap=     0.360 Goal=   None    Shift=    0.500
 T= 1501. Gap= 0.703 NK=0 IS=  124 IE=  806 IFin=  123
          NO(<0.9)=   0  NV(>0.1)=   0    123.00e < EF      0.00e >EF  Err=0.0D+00
 GapD=    0.360 DampG=1.000 DampE=0.500 DampFc=0.5000 IDamp=-1.
 Damping current iteration by 5.00D-01
 RMSDP=3.25D-03 MaxDP=3.30D-01              OVMax= 1.00D-01

 Cycle   2  Pass 1  IDiag  1:
 E= -2023.48948300565     Delta-E=       -0.354328511186 Rises=F Damp=T
 DIIS: error= 1.20D-02 at cycle   2 NSaved=   2.
 NSaved= 2 IEnMin= 2 EnMin= -2023.48948300565     IErMin= 2 ErrMin= 1.20D-02
 ErrMax= 1.20D-02  0.00D+00 EMaxC= 1.00D+00 BMatC= 8.78D-02 BMatP= 5.91D-01
 IDIUse=1 WtCom= 1.00D+00 WtEn= 0.00D+00
 Coeff-Com: -0.510D+00 0.151D+01
 Coeff:     -0.510D+00 0.151D+01
 Gap=     0.302 Goal=   None    Shift=    0.500
 T= 1366. Gap= 0.737 NK=0 IS=  124 IE=  806 IFin=  123
          NO(<0.9)=   0  NV(>0.1)=   0    123.00e < EF      0.00e >EF  Err=0.0D+00
 GapD=    0.302 DampG=1.000 DampE=0.500 DampFc=0.5000 IDamp=-1.
 Damping current iteration by 5.00D-01
 RMSDP=1.48D-03 MaxDP=1.87D-01 DE=-3.54D-01 OVMax= 1.72D-02

 Cycle   3  Pass 1  IDiag  1:
 E= -2023.60250246470     Delta-E=       -0.113019459051 Rises=F Damp=T
 DIIS: error= 4.66D-03 at cycle   3 NSaved=   3.
 NSaved= 3 IEnMin= 3 EnMin= -2023.60250246470     IErMin= 3 ErrMin= 4.66D-03
 ErrMax= 4.66D-03  0.00D+00 EMaxC= 1.00D+00 BMatC= 1.55D-02 BMatP= 8.78D-02
 IDIUse=1 WtCom= 1.00D+00 WtEn= 0.00D+00
 Coeff-Com:  0.123D+00-0.108D+01 0.196D+01
 Coeff:      0.123D+00-0.108D+01 0.196D+01
 Gap=     0.240 Goal=   None    Shift=    0.500
 T= 1105. Gap= 0.739 NK=0 IS=  124 IE=  806 IFin=  123
          NO(<0.9)=   0  NV(>0.1)=   0    123.00e < EF      0.00e >EF  Err=0.0D+00
 GapD=    0.240 DampG=1.000 DampE=1.000 DampFc=1.0000 IDamp=-1.
 RMSDP=8.12D-04 MaxDP=9.56D-02 DE=-1.13D-01 OVMax= 1.08D-02

 Cycle   4  Pass 1  IDiag  1:
 E= -2023.69569663898     Delta-E=       -0.093194174273 Rises=F Damp=F
 DIIS: error= 1.02D-03 at cycle   4 NSaved=   4.
 NSaved= 4 IEnMin= 4 EnMin= -2023.69569663898     IErMin= 4 ErrMin= 1.02D-03
 ErrMax= 1.02D-03  0.00D+00 EMaxC= 1.00D+00 BMatC= 8.78D-04 BMatP= 1.55D-02
 IDIUse=1 WtCom= 1.00D+00 WtEn= 0.00D+00
 Coeff-Com:  0.722D-01-0.174D+00 0.127D+00 0.976D+00
 Coeff:      0.722D-01-0.174D+00 0.127D+00 0.976D+00
 Gap=     0.241 Goal=   None    Shift=    0.500
 T=  520. Gap= 0.742 NK=0 IS=  124 IE=  806 IFin=  123
          NO(<0.9)=   0  NV(>0.1)=   0    123.00e < EF      0.00e >EF  Err=0.0D+00
 GapD=    0.241 DampG=1.000 DampE=1.000 DampFc=1.0000 IDamp=-1.
 RMSDP=2.13D-04 MaxDP=2.00D-02 DE=-9.32D-02 OVMax= 8.45D-03

 Cycle   5  Pass 1  IDiag  1:
 E= -2023.69693419159     Delta-E=       -0.001237552611 Rises=F Damp=F
 DIIS: error= 8.99D-04 at cycle   5 NSaved=   5.
 NSaved= 5 IEnMin= 5 EnMin= -2023.69693419159     IErMin= 5 ErrMin= 8.99D-04
 ErrMax= 8.99D-04  0.00D+00 EMaxC= 1.00D+00 BMatC= 1.53D-04 BMatP= 8.78D-04
 IDIUse=1 WtCom= 1.00D+00 WtEn= 0.00D+00
 Coeff-Com: -0.329D-02 0.139D+00-0.283D+00 0.837D-02 0.114D+01
 Coeff:     -0.329D-02 0.139D+00-0.283D+00 0.837D-02 0.114D+01
 Gap=     0.243 Goal=   None    Shift=    0.500
 RMSDP=1.32D-04 MaxDP=1.17D-02 DE=-1.24D-03 OVMax= 7.03D-03

 Cycle   6  Pass 1  IDiag  1:
 E= -2023.69736331300     Delta-E=       -0.000429121410 Rises=F Damp=F
 DIIS: error= 6.80D-04 at cycle   6 NSaved=   6.
 NSaved= 6 IEnMin= 6 EnMin= -2023.69736331300     IErMin= 6 ErrMin= 6.80D-04
 ErrMax= 6.80D-04  0.00D+00 EMaxC= 1.00D+00 BMatC= 5.06D-05 BMatP= 1.53D-04
 IDIUse=1 WtCom= 1.00D+00 WtEn= 0.00D+00
 Coeff-Com: -0.202D-01 0.551D-01-0.529D-01-0.316D+00-0.207D+00 0.154D+01
 Coeff:     -0.202D-01 0.551D-01-0.529D-01-0.316D+00-0.207D+00 0.154D+01
 Gap=     0.243 Goal=   None    Shift=    0.500
 RMSDP=8.72D-05 MaxDP=7.77D-03 DE=-4.29D-04 OVMax= 6.04D-03

 Cycle   7  Pass 1  IDiag  1:
 E= -2023.69758470559     Delta-E=       -0.000221392593 Rises=F Damp=F
 DIIS: error= 5.03D-04 at cycle   7 NSaved=   7.
 NSaved= 7 IEnMin= 7 EnMin= -2023.69758470559     IErMin= 7 ErrMin= 5.03D-04
 ErrMax= 5.03D-04  0.00D+00 EMaxC= 1.00D+00 BMatC= 2.24D-05 BMatP= 5.06D-05
 IDIUse=1 WtCom= 1.00D+00 WtEn= 0.00D+00
 Coeff-Com: -0.371D-02-0.389D-01 0.848D-01-0.113D+00-0.455D+00-0.125D+00
 Coeff-Com:  0.165D+01
 Coeff:     -0.371D-02-0.389D-01 0.848D-01-0.113D+00-0.455D+00-0.125D+00
 Coeff:      0.165D+01
 Gap=     0.243 Goal=   None    Shift=    0.500
 RMSDP=5.81D-05 MaxDP=6.05D-03 DE=-2.21D-04 OVMax= 4.80D-03

 Cycle   8  Pass 1  IDiag  1:
 E= -2023.69769970123     Delta-E=       -0.000114995640 Rises=F Damp=F
 DIIS: error= 3.51D-04 at cycle   8 NSaved=   8.
 NSaved= 8 IEnMin= 8 EnMin= -2023.69769970123     IErMin= 8 ErrMin= 3.51D-04
 ErrMax= 3.51D-04  0.00D+00 EMaxC= 1.00D+00 BMatC= 9.99D-06 BMatP= 2.24D-05
 IDIUse=1 WtCom= 1.00D+00 WtEn= 0.00D+00
 Coeff-Com:  0.488D-02-0.334D-01 0.509D-01 0.107D+00-0.159D+00-0.783D+00
 Coeff-Com: -0.158D-01 0.183D+01
 Coeff:      0.488D-02-0.334D-01 0.509D-01 0.107D+00-0.159D+00-0.783D+00
 Coeff:     -0.158D-01 0.183D+01
 Gap=     0.243 Goal=   None    Shift=    0.500
 RMSDP=3.96D-05 MaxDP=3.86D-03 DE=-1.15D-04 OVMax= 3.61D-03

 Cycle   9  Pass 1  IDiag  1:
 E= -2023.69775677349     Delta-E=       -0.000057072257 Rises=F Damp=F
 DIIS: error= 2.43D-04 at cycle   9 NSaved=   9.
 NSaved= 9 IEnMin= 9 EnMin= -2023.69775677349     IErMin= 9 ErrMin= 2.43D-04
 ErrMax= 2.43D-04  0.00D+00 EMaxC= 1.00D+00 BMatC= 4.78D-06 BMatP= 9.99D-06
 IDIUse=1 WtCom= 1.00D+00 WtEn= 0.00D+00
 Coeff-Com:  0.272D-02-0.218D-02-0.281D-02 0.118D+00 0.376D-01-0.520D+00
 Coeff-Com: -0.533D+00 0.554D+00 0.135D+01
 Coeff:      0.272D-02-0.218D-02-0.281D-02 0.118D+00 0.376D-01-0.520D+00
 Coeff:     -0.533D+00 0.554D+00 0.135D+01
 Gap=     0.243 Goal=   None    Shift=    0.500
 RMSDP=2.38D-05 MaxDP=2.42D-03 DE=-5.71D-05 OVMax= 2.54D-03

 Cycle  10  Pass 1  IDiag  1:
 E= -2023.69778305642     Delta-E=       -0.000026282930 Rises=F Damp=F
 DIIS: error= 1.61D-04 at cycle  10 NSaved=  10.
 NSaved=10 IEnMin=10 EnMin= -2023.69778305642     IErMin=10 ErrMin= 1.61D-04
 ErrMax= 1.61D-04  0.00D+00 EMaxC= 1.00D+00 BMatC= 2.05D-06 BMatP= 4.78D-06
 IDIUse=1 WtCom= 1.00D+00 WtEn= 0.00D+00
 Coeff-Com: -0.166D-02 0.121D-01-0.186D-01-0.327D-02 0.521D-01 0.125D+00
 Coeff-Com: -0.109D+00-0.654D+00-0.828D+00 0.242D+01
 Coeff:     -0.166D-02 0.121D-01-0.186D-01-0.327D-02 0.521D-01 0.125D+00
 Coeff:     -0.109D+00-0.654D+00-0.828D+00 0.242D+01
 Gap=     0.243 Goal=   None    Shift=    0.500
 RMSDP=1.60D-05 MaxDP=1.64D-03 DE=-2.63D-05 OVMax= 1.76D-03

 Cycle  11  Pass 1  IDiag  1:
 E= -2023.69779464672     Delta-E=       -0.000011590306 Rises=F Damp=F
 DIIS: error= 1.08D-04 at cycle  11 NSaved=  11.
 NSaved=11 IEnMin=11 EnMin= -2023.69779464672     IErMin=11 ErrMin= 1.08D-04
 ErrMax= 1.08D-04  0.00D+00 EMaxC= 1.00D+00 BMatC= 1.05D-06 BMatP= 2.05D-06
 IDIUse=1 WtCom= 1.00D+00 WtEn= 0.00D+00
 Coeff-Com: -0.176D-02 0.649D-02-0.740D-02-0.284D-01 0.114D-01 0.197D+00
 Coeff-Com:  0.113D+00-0.568D+00-0.110D+01 0.112D+01 0.125D+01
 Coeff:     -0.176D-02 0.649D-02-0.740D-02-0.284D-01 0.114D-01 0.197D+00
 Coeff:      0.113D+00-0.568D+00-0.110D+01 0.112D+01 0.125D+01
 Gap=     0.243 Goal=   None    Shift=    0.500
 RMSDP=9.74D-06 MaxDP=9.77D-04 DE=-1.16D-05 OVMax= 1.17D-03

 Cycle  12  Pass 1  IDiag  1:
 E= -2023.69779972439     Delta-E=       -0.000005077665 Rises=F Damp=F
 DIIS: error= 7.33D-05 at cycle  12 NSaved=  12.
 NSaved=12 IEnMin=12 EnMin= -2023.69779972439     IErMin=12 ErrMin= 7.33D-05
 ErrMax= 7.33D-05  0.00D+00 EMaxC= 1.00D+00 BMatC= 4.66D-07 BMatP= 1.05D-06
 IDIUse=1 WtCom= 1.00D+00 WtEn= 0.00D+00
 Coeff-Com: -0.251D-03-0.179D-02 0.430D-02-0.679D-02-0.200D-01 0.218D-01
 Coeff-Com:  0.123D+00 0.255D-01-0.363D+00-0.320D+00-0.694D+00 0.223D+01
 Coeff:     -0.251D-03-0.179D-02 0.430D-02-0.679D-02-0.200D-01 0.218D-01
 Coeff:      0.123D+00 0.255D-01-0.363D+00-0.320D+00-0.694D+00 0.223D+01
 Gap=     0.243 Goal=   None    Shift=    0.500
 RMSDP=6.25D-06 MaxDP=6.18D-04 DE=-5.08D-06 OVMax= 7.75D-04

 Cycle  13  Pass 1  IDiag  1:
 E= -2023.69780187878     Delta-E=       -0.000002154391 Rises=F Damp=F
 DIIS: error= 5.16D-05 at cycle  13 NSaved=  13.
 NSaved=13 IEnMin=13 EnMin= -2023.69780187878     IErMin=13 ErrMin= 5.16D-05
 ErrMax= 5.16D-05  0.00D+00 EMaxC= 1.00D+00 BMatC= 2.55D-07 BMatP= 4.66D-07
 IDIUse=1 WtCom= 1.00D+00 WtEn= 0.00D+00
 Coeff-Com:  0.314D-03-0.189D-02 0.276D-02 0.105D-01-0.148D-01-0.643D-01
 Coeff-Com:  0.356D-01 0.245D+00 0.146D+00-0.589D+00-0.138D+01 0.119D+01
 Coeff-Com:  0.142D+01
 Coeff:      0.314D-03-0.189D-02 0.276D-02 0.105D-01-0.148D-01-0.643D-01
 Coeff:      0.356D-01 0.245D+00 0.146D+00-0.589D+00-0.138D+01 0.119D+01
 Coeff:      0.142D+01
 Gap=     0.243 Goal=   None    Shift=    0.500
 RMSDP=3.86D-06 MaxDP=3.55D-04 DE=-2.15D-06 OVMax= 5.25D-04

 Cycle  14  Pass 1  IDiag  1:
 E= -2023.69780284617     Delta-E=       -0.000000967389 Rises=F Damp=F
 DIIS: error= 3.51D-05 at cycle  14 NSaved=  14.
 NSaved=14 IEnMin=14 EnMin= -2023.69780284617     IErMin=14 ErrMin= 3.51D-05
 ErrMax= 3.51D-05  0.00D+00 EMaxC= 1.00D+00 BMatC= 1.24D-07 BMatP= 2.55D-07
 IDIUse=1 WtCom= 1.00D+00 WtEn= 0.00D+00
 Coeff-Com:  0.157D-03-0.276D-03 0.841D-04 0.824D-02-0.533D-02-0.361D-01
 Coeff-Com: -0.434D-02 0.121D+00 0.152D+00-0.157D+00-0.784D+00 0.234D+00
 Coeff-Com: -0.527D+00 0.200D+01
 Coeff:      0.157D-03-0.276D-03 0.841D-04 0.824D-02-0.533D-02-0.361D-01
 Coeff:     -0.434D-02 0.121D+00 0.152D+00-0.157D+00-0.784D+00 0.234D+00
 Coeff:     -0.527D+00 0.200D+01
 Gap=     0.243 Goal=   None    Shift=    0.500
 RMSDP=2.36D-06 MaxDP=2.02D-04 DE=-9.67D-07 OVMax= 3.50D-04

 Cycle  15  Pass 1  IDiag  1:
 E= -2023.69780327132     Delta-E=       -0.000000425155 Rises=F Damp=F
 DIIS: error= 2.38D-05 at cycle  15 NSaved=  15.
 NSaved=15 IEnMin=15 EnMin= -2023.69780327132     IErMin=15 ErrMin= 2.38D-05
 ErrMax= 2.38D-05  0.00D+00 EMaxC= 1.00D+00 BMatC= 5.79D-08 BMatP= 1.24D-07
 IDIUse=1 WtCom= 1.00D+00 WtEn= 0.00D+00
 Coeff-Com: -0.548D-04 0.594D-03-0.985D-03 0.111D-02 0.867D-03 0.644D-02
 Coeff-Com: -0.933D-02-0.270D-01 0.186D-01 0.180D+00-0.324D-01-0.215D+00
 Coeff-Com: -0.136D+01 0.811D+00 0.163D+01
 Coeff:     -0.548D-04 0.594D-03-0.985D-03 0.111D-02 0.867D-03 0.644D-02
 Coeff:     -0.933D-02-0.270D-01 0.186D-01 0.180D+00-0.324D-01-0.215D+00
 Coeff:     -0.136D+01 0.811D+00 0.163D+01
 Gap=     0.243 Goal=   None    Shift=    0.500
 RMSDP=1.41D-06 MaxDP=9.49D-05 DE=-4.25D-07 OVMax= 2.32D-04

 Cycle  16  Pass 1  IDiag  1:
 E= -2023.69780345711     Delta-E=       -0.000000185785 Rises=F Damp=F
 DIIS: error= 1.62D-05 at cycle  16 NSaved=  16.
 NSaved=16 IEnMin=16 EnMin= -2023.69780345711     IErMin=16 ErrMin= 1.62D-05
 ErrMax= 1.62D-05  0.00D+00 EMaxC= 1.00D+00 BMatC= 2.63D-08 BMatP= 5.79D-08
 IDIUse=1 WtCom= 1.00D+00 WtEn= 0.00D+00
 Coeff-Com: -0.608D-04 0.429D-03-0.667D-03-0.111D-02 0.179D-02 0.126D-01
 Coeff-Com: -0.387D-02-0.426D-01-0.181D-01 0.140D+00 0.157D+00-0.180D+00
 Coeff-Com: -0.814D+00-0.849D-01 0.396D+00 0.144D+01
 Coeff:     -0.608D-04 0.429D-03-0.667D-03-0.111D-02 0.179D-02 0.126D-01
 Coeff:     -0.387D-02-0.426D-01-0.181D-01 0.140D+00 0.157D+00-0.180D+00
 Coeff:     -0.814D+00-0.849D-01 0.396D+00 0.144D+01
 Gap=     0.243 Goal=   None    Shift=    0.500
 RMSDP=8.53D-07 MaxDP=5.66D-05 DE=-1.86D-07 OVMax= 1.55D-04

 SCF Done:  E(RLC-wHPBE) =  -2023.69780346     A.U. after   16 cycles
            NFock= 16  Conv=0.85D-06     -V/T= 2.0033
 KE= 2.017039989878D+03 PE=-1.125391998816D+04 EE= 3.934235090283D+03
 Leave Link  502 at Wed Jan 27 03:42:26 2021, MaxMem=  4026531840 cpu:            8763.0 elap:            1112.0
 (Enter /opt/ohpc/pub/libs/gaussian/g16-A.03/sandybridge/g16/l508.exe)
 QCSCF skips out because SCF is already converged.
 Leave Link  508 at Wed Jan 27 03:42:26 2021, MaxMem=  4026531840 cpu:               0.1 elap:               0.0
 (Enter /opt/ohpc/pub/libs/gaussian/g16-A.03/sandybridge/g16/l601.exe)
 Copying SCF densities to generalized density rwf, IOpCl= 0 IROHF=0.

 **********************************************************************

            Population analysis using the SCF density.

 **********************************************************************

 Orbital symmetries:
       Occupied  (A) (A) (A) (A) (A) (A) (A) (A) (A) (A) (A) (A)
                 (A) (A) (A) (A) (A) (A) (A) (A) (A) (A) (A) (A)
                 (A) (A) (A) (A) (A) (A) (A) (A) (A) (A) (A) (A)
                 (A) (A) (A) (A) (A) (A) (A) (A) (A) (A) (A) (A)
                 (A) (A) (A) (A) (A) (A) (A) (A) (A) (A) (A) (A)
                 (A) (A) (A) (A) (A) (A) (A) (A) (A) (A) (A) (A)
                 (A) (A) (A) (A) (A) (A) (A) (A) (A) (A) (A) (A)
                 (A) (A) (A) (A) (A) (A) (A) (A) (A) (A) (A) (A)
                 (A) (A) (A) (A) (A) (A) (A) (A) (A) (A) (A) (A)
                 (A) (A) (A) (A) (A) (A) (A) (A) (A) (A) (A) (A)
                 (A) (A) (A)
       Virtual   (A) (A) (A) (A) (A) (A) (A) (A) (A) (A) (A) (A)
                 (A) (A) (A) (A) (A) (A) (A) (A) (A) (A) (A) (A)
                 (A) (A) (A) (A) (A) (A) (A) (A) (A) (A) (A) (A)
                 (A) (A) (A) (A) (A) (A) (A) (A) (A) (A) (A) (A)
                 (A) (A) (A) (A) (A) (A) (A) (A) (A) (A) (A) (A)
                 (A) (A) (A) (A) (A) (A) (A) (A) (A) (A) (A) (A)
                 (A) (A) (A) (A) (A) (A) (A) (A) (A) (A) (A) (A)
                 (A) (A) (A) (A) (A) (A) (A) (A) (A) (A) (A) (A)
                 (A) (A) (A) (A) (A) (A) (A) (A) (A) (A) (A) (A)
                 (A) (A) (A) (A) (A) (A) (A) (A) (A) (A) (A) (A)
                 (A) (A) (A) (A) (A) (A) (A) (A) (A) (A) (A) (A)
                 (A) (A) (A) (A) (A) (A) (A) (A) (A) (A) (A) (A)
                 (A) (A) (A) (A) (A) (A) (A) (A) (A) (A) (A) (A)
                 (A) (A) (A) (A) (A) (A) (A) (A) (A) (A) (A) (A)
                 (A) (A) (A) (A) (A) (A) (A) (A) (A) (A) (A) (A)
                 (A) (A) (A) (A) (A) (A) (A) (A) (A) (A) (A) (A)
                 (A) (A) (A) (A) (A) (A) (A) (A) (A) (A) (A) (A)
                 (A) (A) (A) (A) (A) (A) (A) (A) (A) (A) (A) (A)
                 (A) (A) (A) (A) (A) (A) (A) (A) (A) (A) (A) (A)
                 (A) (A) (A) (A) (A) (A) (A) (A) (A) (A) (A) (A)
                 (A) (A) (A) (A) (A) (A) (A) (A) (A) (A) (A) (A)
                 (A) (A) (A) (A) (A) (A) (A) (A) (A) (A) (A) (A)
                 (A) (A) (A) (A) (A) (A) (A) (A) (A) (A) (A) (A)
                 (A) (A) (A) (A) (A) (A) (A) (A) (A) (A) (A) (A)
                 (A) (A) (A) (A) (A) (A) (A) (A) (A) (A) (A) (A)
                 (A) (A) (A) (A) (A) (A) (A) (A) (A) (A) (A) (A)
                 (A) (A) (A) (A) (A) (A) (A) (A) (A) (A) (A) (A)
                 (A) (A) (A) (A) (A) (A) (A) (A) (A) (A) (A) (A)
                 (A) (A) (A) (A) (A) (A) (A) (A) (A) (A) (A) (A)
                 (A) (A) (A) (A) (A) (A) (A) (A) (A) (A) (A) (A)
                 (A) (A) (A) (A) (A) (A) (A) (A) (A) (A) (A) (A)
                 (A) (A) (A) (A) (A) (A) (A) (A) (A) (A) (A) (A)
                 (A) (A) (A) (A) (A) (A) (A) (A) (A) (A) (A) (A)
                 (A) (A) (A) (A) (A) (A) (A) (A) (A) (A) (A) (A)
                 (A) (A) (A) (A) (A) (A) (A) (A) (A) (A) (A) (A)
                 (A) (A) (A) (A) (A) (A) (A) (A) (A) (A) (A) (A)
                 (A) (A) (A) (A) (A) (A) (A) (A) (A) (A) (A) (A)
                 (A) (A) (A) (A) (A) (A) (A) (A) (A) (A) (A) (A)
                 (A) (A) (A) (A) (A) (A) (A) (A) (A) (A) (A) (A)
                 (A) (A) (A) (A) (A) (A) (A) (A) (A) (A) (A) (A)
                 (A) (A) (A) (A) (A) (A) (A) (A) (A) (A) (A) (A)
                 (A) (A) (A) (A) (A) (A) (A) (A) (A) (A) (A) (A)
                 (A) (A) (A) (A) (A) (A) (A) (A) (A) (A) (A) (A)
                 (A) (A) (A) (A) (A) (A) (A) (A) (A) (A) (A) (A)
                 (A) (A) (A) (A) (A) (A) (A) (A) (A) (A) (A) (A)
                 (A) (A) (A) (A) (A) (A) (A) (A) (A) (A) (A) (A)
                 (A) (A) (A) (A) (A) (A) (A) (A) (A) (A) (A) (A)
                 (A) (A) (A) (A) (A) (A) (A) (A) (A) (A) (A) (A)
                 (A) (A) (A) (A) (A) (A) (A) (A) (A) (A) (A) (A)
                 (A) (A) (A) (A) (A) (A) (A) (A) (A) (A) (A) (A)
                 (A) (A) (A) (A) (A) (A) (A) (A) (A) (A) (A) (A)
                 (A) (A) (A) (A) (A) (A) (A) (A) (A) (A) (A) (A)
                 (A) (A) (A) (A) (A) (A) (A) (A) (A) (A) (A) (A)
                 (A) (A) (A) (A) (A) (A) (A) (A) (A) (A) (A) (A)
                 (A) (A) (A) (A) (A) (A) (A) (A) (A) (A) (A) (A)
                 (A) (A) (A) (A) (A) (A) (A) (A) (A) (A) (A) (A)
                 (A) (A) (A) (A) (A) (A) (A) (A) (A) (A) (A)
 The electronic state is 1-A.
 Alpha  occ. eigenvalues --  -88.35748 -88.34414 -14.32727 -14.32672 -14.32284
 Alpha  occ. eigenvalues --  -14.32227 -10.25011 -10.24957 -10.24528 -10.24476
 Alpha  occ. eigenvalues --  -10.21246 -10.20796 -10.19706 -10.18959 -10.18734
 Alpha  occ. eigenvalues --  -10.18681 -10.18679 -10.18674 -10.18639 -10.18492
 Alpha  occ. eigenvalues --  -10.18415 -10.18366 -10.18343 -10.18163 -10.17880
 Alpha  occ. eigenvalues --  -10.16427 -10.15915 -10.15899 -10.15846 -10.15105
 Alpha  occ. eigenvalues --  -10.14961 -10.14764  -7.94918  -7.93743  -5.97178
 Alpha  occ. eigenvalues --   -5.96667  -5.95958  -5.95941  -5.95480  -5.94787
 Alpha  occ. eigenvalues --   -1.20993  -1.20560  -1.18275  -1.17854  -1.13125
 Alpha  occ. eigenvalues --   -1.12696  -1.08490  -1.06889  -1.01590  -0.99300
 Alpha  occ. eigenvalues --   -0.97270  -0.96329  -0.94881  -0.94570  -0.94503
 Alpha  occ. eigenvalues --   -0.94220  -0.93469  -0.93083  -0.92582  -0.92049
 Alpha  occ. eigenvalues --   -0.91782  -0.90634  -0.85252  -0.83921  -0.82130
 Alpha  occ. eigenvalues --   -0.80788  -0.77730  -0.77628  -0.77359  -0.77095
 Alpha  occ. eigenvalues --   -0.76522  -0.76024  -0.73103  -0.72723  -0.72654
 Alpha  occ. eigenvalues --   -0.72292  -0.72055  -0.71551  -0.70512  -0.70387
 Alpha  occ. eigenvalues --   -0.70101  -0.70004  -0.69014  -0.67992  -0.65736
 Alpha  occ. eigenvalues --   -0.65474  -0.65025  -0.64959  -0.64883  -0.64604
 Alpha  occ. eigenvalues --   -0.64378  -0.64223  -0.64122  -0.63511  -0.63134
 Alpha  occ. eigenvalues --   -0.62931  -0.62823  -0.62613  -0.62318  -0.62158
 Alpha  occ. eigenvalues --   -0.62104  -0.61797  -0.60979  -0.60825  -0.60522
 Alpha  occ. eigenvalues --   -0.60404  -0.59852  -0.58954  -0.58861  -0.57013
 Alpha  occ. eigenvalues --   -0.56520  -0.55497  -0.54956  -0.53469  -0.53274
 Alpha  occ. eigenvalues --   -0.53050  -0.52511  -0.50500  -0.50143  -0.46149
 Alpha  occ. eigenvalues --   -0.45669  -0.44233  -0.43838
 Alpha virt. eigenvalues --   -0.19512  -0.18288  -0.15476  -0.14502  -0.11924
 Alpha virt. eigenvalues --   -0.11683  -0.11315  -0.10911  -0.10194  -0.10000
 Alpha virt. eigenvalues --   -0.09737  -0.08219  -0.07239  -0.06878  -0.06042
 Alpha virt. eigenvalues --   -0.05620  -0.05518  -0.05290  -0.05017  -0.04646
 Alpha virt. eigenvalues --   -0.04366  -0.04113  -0.03693  -0.03486  -0.03133
 Alpha virt. eigenvalues --   -0.02780  -0.02600  -0.02362  -0.02180  -0.02024
 Alpha virt. eigenvalues --   -0.01800  -0.01414  -0.01348  -0.01179  -0.01150
 Alpha virt. eigenvalues --   -0.00858  -0.00681  -0.00376  -0.00157  -0.00004
 Alpha virt. eigenvalues --    0.00095   0.00367   0.00562   0.00882   0.00948
 Alpha virt. eigenvalues --    0.01207   0.01564   0.01792   0.02323   0.02885
 Alpha virt. eigenvalues --    0.03212   0.03621   0.03691   0.03780   0.04203
 Alpha virt. eigenvalues --    0.04511   0.05010   0.05828   0.06295   0.06648
 Alpha virt. eigenvalues --    0.06894   0.07107   0.07204   0.07387   0.07498
 Alpha virt. eigenvalues --    0.07915   0.07989   0.08379   0.08539   0.08986
 Alpha virt. eigenvalues --    0.09360   0.09449   0.09873   0.10331   0.10896
 Alpha virt. eigenvalues --    0.11008   0.11788   0.12197   0.12357   0.12520
 Alpha virt. eigenvalues --    0.12987   0.13454   0.13779   0.14379   0.14673
 Alpha virt. eigenvalues --    0.14819   0.15002   0.15254   0.15613   0.16000
 Alpha virt. eigenvalues --    0.16168   0.16506   0.16807   0.16984   0.17210
 Alpha virt. eigenvalues --    0.17416   0.17483   0.17884   0.17944   0.18323
 Alpha virt. eigenvalues --    0.18582   0.19036   0.19154   0.19334   0.20222
 Alpha virt. eigenvalues --    0.20274   0.20413   0.21059   0.21389   0.21834
 Alpha virt. eigenvalues --    0.22164   0.22329   0.22564   0.23261   0.23584
 Alpha virt. eigenvalues --    0.23919   0.24289   0.24610   0.24941   0.25227
 Alpha virt. eigenvalues --    0.25481   0.26071   0.26442   0.26552   0.26681
 Alpha virt. eigenvalues --    0.27065   0.27186   0.27526   0.28081   0.28424
 Alpha virt. eigenvalues --    0.28722   0.29295   0.29581   0.30224   0.30513
 Alpha virt. eigenvalues --    0.30570   0.30744   0.30992   0.31158   0.31217
 Alpha virt. eigenvalues --    0.31613   0.31634   0.31792   0.32087   0.32228
 Alpha virt. eigenvalues --    0.32381   0.32809   0.32918   0.33304   0.33621
 Alpha virt. eigenvalues --    0.33756   0.33894   0.34106   0.34250   0.34347
 Alpha virt. eigenvalues --    0.34735   0.35118   0.35466   0.35586   0.35884
 Alpha virt. eigenvalues --    0.35976   0.36445   0.36946   0.37203   0.37287
 Alpha virt. eigenvalues --    0.37863   0.38272   0.38471   0.39044   0.39155
 Alpha virt. eigenvalues --    0.39402   0.39604   0.39980   0.40267   0.40427
 Alpha virt. eigenvalues --    0.40905   0.41205   0.41555   0.42048   0.42910
 Alpha virt. eigenvalues --    0.43045   0.43096   0.43251   0.44296   0.44588
 Alpha virt. eigenvalues --    0.44934   0.45288   0.45442   0.45640   0.46234
 Alpha virt. eigenvalues --    0.46479   0.47319   0.48040   0.49079   0.49501
 Alpha virt. eigenvalues --    0.50017   0.50234   0.50660   0.50939   0.51322
 Alpha virt. eigenvalues --    0.51546   0.52073   0.52280   0.52712   0.53306
 Alpha virt. eigenvalues --    0.53581   0.54031   0.54567   0.55032   0.55285
 Alpha virt. eigenvalues --    0.56091   0.57080   0.58091   0.58282   0.58524
 Alpha virt. eigenvalues --    0.59183   0.59743   0.60468   0.61048   0.61210
 Alpha virt. eigenvalues --    0.61795   0.62247   0.62476   0.63016   0.63975
 Alpha virt. eigenvalues --    0.64042   0.65224   0.65822   0.67398   0.68216
 Alpha virt. eigenvalues --    0.69053   0.70249   0.70756   0.71819   0.72906
 Alpha virt. eigenvalues --    0.74678   0.75380   0.75611   0.76583   0.77321
 Alpha virt. eigenvalues --    0.79386   0.80016   0.83075   0.84569   0.86880
 Alpha virt. eigenvalues --    0.90452   0.97840   0.98131   0.98265   0.98386
 Alpha virt. eigenvalues --    0.99157   1.03284   1.04900   1.05361   1.05768
 Alpha virt. eigenvalues --    1.07195   1.07398   1.07514   1.07803   1.08509
 Alpha virt. eigenvalues --    1.08700   1.08837   1.09899   1.10460   1.10616
 Alpha virt. eigenvalues --    1.11079   1.11335   1.11829   1.12011   1.12461
 Alpha virt. eigenvalues --    1.12936   1.13428   1.14163   1.14776   1.15308
 Alpha virt. eigenvalues --    1.15797   1.16621   1.16853   1.17162   1.17299
 Alpha virt. eigenvalues --    1.18109   1.18442   1.18686   1.18936   1.19349
 Alpha virt. eigenvalues --    1.19526   1.19720   1.19819   1.20118   1.20332
 Alpha virt. eigenvalues --    1.21154   1.21515   1.21609   1.21949   1.22507
 Alpha virt. eigenvalues --    1.22692   1.22737   1.23151   1.24166   1.24480
 Alpha virt. eigenvalues --    1.24824   1.25404   1.25555   1.26476   1.27165
 Alpha virt. eigenvalues --    1.27718   1.27901   1.28466   1.28752   1.29093
 Alpha virt. eigenvalues --    1.29272   1.29544   1.29752   1.30055   1.30552
 Alpha virt. eigenvalues --    1.30728   1.31028   1.31313   1.31709   1.32064
 Alpha virt. eigenvalues --    1.32221   1.32522   1.32829   1.33121   1.33332
 Alpha virt. eigenvalues --    1.33421   1.34320   1.34617   1.35020   1.35488
 Alpha virt. eigenvalues --    1.36164   1.37072   1.37277   1.37398   1.37582
 Alpha virt. eigenvalues --    1.37779   1.38176   1.38620   1.38792   1.38883
 Alpha virt. eigenvalues --    1.39362   1.39511   1.40228   1.40383   1.40500
 Alpha virt. eigenvalues --    1.40784   1.40855   1.41302   1.41518   1.41596
 Alpha virt. eigenvalues --    1.41907   1.42627   1.43351   1.44204   1.44474
 Alpha virt. eigenvalues --    1.44965   1.45691   1.46569   1.46918   1.47365
 Alpha virt. eigenvalues --    1.48116   1.48546   1.48987   1.49194   1.49482
 Alpha virt. eigenvalues --    1.49529   1.49765   1.50066   1.50582   1.52048
 Alpha virt. eigenvalues --    1.52289   1.52819   1.53162   1.53361   1.53621
 Alpha virt. eigenvalues --    1.54572   1.55838   1.56281   1.56397   1.56509
 Alpha virt. eigenvalues --    1.56760   1.57877   1.58690   1.58933   1.59198
 Alpha virt. eigenvalues --    1.59504   1.59864   1.60602   1.61414   1.61493
 Alpha virt. eigenvalues --    1.61661   1.61746   1.61827   1.61882   1.62227
 Alpha virt. eigenvalues --    1.62670   1.63001   1.63226   1.63338   1.63421
 Alpha virt. eigenvalues --    1.63536   1.63840   1.64018   1.64371   1.64465
 Alpha virt. eigenvalues --    1.64951   1.65385   1.65529   1.65709   1.66186
 Alpha virt. eigenvalues --    1.66983   1.67109   1.67484   1.67694   1.69215
 Alpha virt. eigenvalues --    1.69797   1.70589   1.70834   1.71071   1.72511
 Alpha virt. eigenvalues --    1.73040   1.73120   1.73500   1.74003   1.74338
 Alpha virt. eigenvalues --    1.75105   1.75736   1.76390   1.76981   1.77841
 Alpha virt. eigenvalues --    1.78190   1.79518   1.81183   1.81819   1.82588
 Alpha virt. eigenvalues --    1.82670   1.84386   1.84510   1.85629   1.86610
 Alpha virt. eigenvalues --    1.86949   1.87282   1.87391   1.87573   1.89229
 Alpha virt. eigenvalues --    1.89667   1.90156   1.90729   1.91539   1.92019
 Alpha virt. eigenvalues --    1.93831   1.94213   1.94706   1.95181   1.95378
 Alpha virt. eigenvalues --    1.96300   1.96664   1.97635   1.99284   1.99533
 Alpha virt. eigenvalues --    1.99932   2.00226   2.00703   2.01570   2.02627
 Alpha virt. eigenvalues --    2.03404   2.03819   2.04116   2.04937   2.05336
 Alpha virt. eigenvalues --    2.06558   2.08340   2.08691   2.11497   2.11723
 Alpha virt. eigenvalues --    2.11891   2.12429   2.12979   2.13268   2.13310
 Alpha virt. eigenvalues --    2.13848   2.14047   2.14344   2.14362   2.14876
 Alpha virt. eigenvalues --    2.15120   2.15901   2.16267   2.16595   2.16957
 Alpha virt. eigenvalues --    2.17171   2.17437   2.17829   2.18054   2.18514
 Alpha virt. eigenvalues --    2.18592   2.18777   2.19174   2.19322   2.19826
 Alpha virt. eigenvalues --    2.20027   2.20565   2.21029   2.21456   2.21595
 Alpha virt. eigenvalues --    2.22023   2.22551   2.22823   2.24901   2.28209
 Alpha virt. eigenvalues --    2.28341   2.28655   2.28700   2.29573   2.30790
 Alpha virt. eigenvalues --    2.30984   2.32105   2.33234   2.33593   2.34654
 Alpha virt. eigenvalues --    2.35504   2.36125   2.36447   2.36920   2.37209
 Alpha virt. eigenvalues --    2.37388   2.37878   2.37978   2.38831   2.39226
 Alpha virt. eigenvalues --    2.39469   2.40241   2.40642   2.41185   2.41760
 Alpha virt. eigenvalues --    2.42193   2.42311   2.42581   2.42880   2.43080
 Alpha virt. eigenvalues --    2.43642   2.43822   2.45032   2.46221   2.48047
 Alpha virt. eigenvalues --    2.48053   2.48403   2.48714   2.49186   2.49385
 Alpha virt. eigenvalues --    2.49516   2.50674   2.50872   2.51151   2.51425
 Alpha virt. eigenvalues --    2.51977   2.53324   2.54312   2.54802   2.55217
 Alpha virt. eigenvalues --    2.56049   2.57418   2.57853   2.58396   2.58537
 Alpha virt. eigenvalues --    2.59168   2.59337   2.59893   2.60031   2.60577
 Alpha virt. eigenvalues --    2.61520   2.61989   2.63591   2.63935   2.65153
 Alpha virt. eigenvalues --    2.66117   2.66835   2.69704   2.69910   2.71162
 Alpha virt. eigenvalues --    2.71473   2.71869   2.72571   2.73285   2.79250
 Alpha virt. eigenvalues --    2.79706   2.84330   2.84514   2.85387   2.86928
 Alpha virt. eigenvalues --    2.89361   2.92150   2.93018   2.93349   2.94065
 Alpha virt. eigenvalues --    2.94790   2.94855   2.95708   2.96468   2.96654
 Alpha virt. eigenvalues --    2.96998   2.97585   2.97814   2.98835   3.00620
 Alpha virt. eigenvalues --    3.00778   3.02940   3.03540   3.05188   3.05811
 Alpha virt. eigenvalues --    3.05998   3.07350   3.07907   3.09266   3.11186
 Alpha virt. eigenvalues --    3.13204   3.13522   3.13837   3.14021   3.14182
 Alpha virt. eigenvalues --    3.14660   3.14952   3.15247   3.16466   3.16679
 Alpha virt. eigenvalues --    3.18693   3.19542   3.19793   3.21031   3.22042
 Alpha virt. eigenvalues --    3.22771   3.23180   3.23950   3.26985   3.27459
 Alpha virt. eigenvalues --    3.27713   3.28128   3.29021   3.29419   3.42387
 Alpha virt. eigenvalues --    3.42871   3.44756   3.50914   3.55117   3.55535
 Alpha virt. eigenvalues --    3.64099   3.65143   3.65505   3.66721   3.81507
 Alpha virt. eigenvalues --    3.81937  18.66485  18.86166  21.06949  21.09679
 Alpha virt. eigenvalues --   21.33203  21.33620  21.46078  21.47159  21.50917
 Alpha virt. eigenvalues --   21.53639  21.60959  21.61273  21.62645  21.63867
 Alpha virt. eigenvalues --   21.73436  21.74419  21.77504  21.77987  21.78346
 Alpha virt. eigenvalues --   21.80367  21.81627  21.81860  21.91522  21.94790
 Alpha virt. eigenvalues --   22.01533  22.02463  22.04929  22.05360  31.46533
 Alpha virt. eigenvalues --   31.46996  31.61281  31.61596
          Condensed to atoms (all electrons):
 Mulliken charges:
               1
     1  C   -0.119831
     2  C   -0.248626
     3  S    0.084174
     4  C    0.062226
     5  C   -0.077646
     6  C   -0.142430
     7  C    0.100888
     8  C   -0.129308
     9  H    0.174253
    10  C   -0.076777
    11  C   -0.047895
    12  C   -0.091675
    13  C    0.135422
    14  H    0.174405
    15  H    0.139218
    16  H    0.154407
    17  C   -0.105124
    18  H    0.183969
    19  H    0.127097
    20  H    0.128686
    21  H    0.152848
    22  S    0.010551
    23  C   -0.511677
    24  C    0.088302
    25  C    0.072608
    26  N    0.025755
    27  N    0.022767
    28  C   -0.262365
    29  H    0.181107
    30  H    0.153446
    31  H    0.174685
    32  C   -0.260924
    33  H    0.175644
    34  H    0.185797
    35  H    0.148257
    36  C   -0.267080
    37  H    0.180818
    38  H    0.160503
    39  H    0.177017
    40  C   -0.265595
    41  H    0.176054
    42  H    0.187735
    43  H    0.148553
    44  C   -0.470806
    45  C    0.087358
    46  C    0.079424
    47  N    0.022578
    48  N    0.021365
    49  C   -0.263473
    50  H    0.179614
    51  H    0.156850
    52  H    0.174332
    53  C   -0.263606
    54  H    0.175006
    55  H    0.185315
    56  H    0.148137
    57  C   -0.264007
    58  H    0.178581
    59  H    0.153947
    60  H    0.174940
    61  C   -0.265626
    62  H    0.174151
    63  H    0.185894
    64  H    0.149786
 Sum of Mulliken charges =   2.00000
 Mulliken charges with hydrogens summed into heavy atoms:
               1
     1  C    0.064138
     2  C   -0.248626
     3  S    0.084174
     4  C    0.236479
     5  C   -0.077646
     6  C   -0.142430
     7  C    0.100888
     8  C   -0.000622
    10  C    0.097628
    11  C    0.091323
    12  C    0.062732
    13  C    0.135422
    17  C    0.047723
    22  S    0.137647
    23  C   -0.511677
    24  C    0.088302
    25  C    0.072608
    26  N    0.025755
    27  N    0.022767
    28  C    0.246873
    32  C    0.248773
    36  C    0.251258
    40  C    0.246748
    44  C   -0.470806
    45  C    0.087358
    46  C    0.079424
    47  N    0.022578
    48  N    0.021365
    49  C    0.247323
    53  C    0.244852
    57  C    0.243461
    61  C    0.244205
 Electronic spatial extent (au):  <R**2>=          29306.5009
 Charge=              2.0000 electrons
 Dipole moment (field-independent basis, Debye):
    X=             -0.3935    Y=              3.2032    Z=             -0.5900  Tot=              3.2808
 Quadrupole moment (field-independent basis, Debye-Ang):
   XX=            269.9557   YY=           -142.9931   ZZ=           -187.1913
   XY=             -8.5005   XZ=              5.4322   YZ=             -1.2090
 Traceless Quadrupole moment (field-independent basis, Debye-Ang):
   XX=            290.0319   YY=           -122.9169   ZZ=           -167.1151
   XY=             -8.5005   XZ=              5.4322   YZ=             -1.2090
 Octapole moment (field-independent basis, Debye-Ang**2):
  XXX=             36.2841  YYY=             47.7698  ZZZ=             -0.9752  XYY=              1.4186
  XXY=            161.4509  XXZ=            -67.1692  XZZ=             -8.2864  YZZ=             14.1941
  YYZ=             -5.3327  XYZ=           -129.1968
 Hexadecapole moment (field-independent basis, Debye-Ang**3):
 XXXX=          -5675.2106 YYYY=          -3078.0251 ZZZZ=          -1250.2341 XXXY=            -65.0730
 XXXZ=            668.0736 YYYX=           -190.3098 YYYZ=              1.1568 ZZZX=             25.5567
 ZZZY=              0.3526 XXYY=          -3567.3719 XXZZ=          -5414.1776 YYZZ=           -720.5104
 XXYZ=            -16.5483 YYXZ=            -49.2347 ZZXY=              3.5879
 N-N= 3.278947104542D+03 E-N=-1.125391958705D+04  KE= 2.017039989878D+03
 No NMR shielding tensors so no spin-rotation constants.
 Leave Link  601 at Wed Jan 27 03:42:27 2021, MaxMem=  4026531840 cpu:               5.8 elap:               0.8
 (Enter /opt/ohpc/pub/libs/gaussian/g16-A.03/sandybridge/g16/l9999.exe)

 Test job not archived.
 1\1\GINC-CNODE145\SP\RLC-wHPBE\TZVP\C26H32N4S2(2+)\RDU230\27-Jan-2021\
 0\\#P LC-wHPBE/TZVP iop(3/107=0156200000, 3/108=0156200000) scf=(conve
 r=6,fermi,ndamp=35,noincfock,novaracc,vshift=500,xqc)\\H32 C26 S2 N4\\
 2,1\C,0,-2.928949,-0.209586,-0.466429\C,0,-1.563914,-0.061175,-0.30379
 \S,0,-0.549634,-0.92994,-1.465043\C,0,-1.080492,0.744795,0.70659\C,0,1
 .720975,-1.178026,0.124019\C,0,1.104728,-0.556786,-0.961278\C,0,-3.804
 439,0.453059,0.37376\C,0,-1.957571,1.39872,1.546095\H,0,-0.017059,0.86
 7388,0.843825\C,0,3.05531,-0.905897,0.375396\C,0,1.834379,0.303673,-1.
 763498\C,0,3.157322,0.57014,-1.506853\C,0,3.772824,-0.043708,-0.429435
 \H,0,3.535939,-1.385849,1.215765\H,0,1.346414,0.763075,-2.610001\H,0,3
 .71103,1.227115,-2.160412\C,0,-3.316329,1.26263,1.386512\H,0,-3.309964
 ,-0.825983,-1.268943\H,0,-0.12139,-2.546838,0.437504\H,0,-1.570409,2.0
 20933,2.339064\H,0,-3.993957,1.766527,2.059405\S,0,0.923466,-2.279512,
 1.229412\C,0,5.179371,0.186625,-0.15991\C,0,6.258258,1.013194,-0.19423
 8\C,0,6.373984,-0.291545,0.281001\N,0,6.778879,2.1722,-0.466391\N,0,7.
 085837,-1.264246,0.765069\C,0,5.943792,3.274283,-0.907684\H,0,6.187951
 ,3.5455,-1.931936\H,0,4.898805,2.994168,-0.846509\H,0,6.108951,4.13480
 4,-0.264794\C,0,8.194976,2.451187,-0.318309\H,0,8.537142,3.011091,-1.1
 83702\H,0,8.380874,3.039067,0.577705\H,0,8.758216,1.527533,-0.273817\C
 ,0,6.515968,-2.589608,0.931428\H,0,6.460524,-2.846499,1.986434\H,0,5.5
 24243,-2.624805,0.496396\H,0,7.140387,-3.318442,0.421721\C,0,8.484929,
 -1.112006,1.118438\H,0,8.667734,-1.621246,2.059984\H,0,9.125917,-1.545
 202,0.353886\H,0,8.728287,-0.065327,1.25212\C,0,-5.234909,0.301436,0.1
 92555\C,0,-6.482207,0.837696,0.274291\C,0,-6.296202,-0.469144,-0.16637
 3\N,0,-7.258316,1.842942,0.55157\N,0,-6.771609,-1.601745,-0.593499\C,0
 ,-6.699705,3.135271,0.904858\H,0,-6.943427,3.382636,1.935256\H,0,-5.62
 3434,3.119821,0.780416\H,0,-7.111169,3.899344,0.250646\C,0,-8.704916,1
 .757804,0.486526\H,0,-9.127537,2.25749,1.353238\H,0,-9.080352,2.238157
 ,-0.414316\H,0,-9.022841,0.722915,0.509579\C,0,-5.902929,-2.750782,-0.
 768792\H,0,-5.850729,-3.027562,-1.819029\H,0,-4.908582,-2.521281,-0.40
 444\H,0,-6.292204,-3.59128,-0.200176\C,0,-8.181475,-1.806186,-0.866823
 \H,0,-8.283723,-2.375263,-1.7861\H,0,-8.657299,-2.356258,-0.057912\H,0
 ,-8.67988,-0.85495,-1.00634\\Version=EM64L-G16RevA.03\State=1-A\HF=-20
 23.6978035\RMSD=8.531e-07\Dipole=0.1548078,1.2602521,0.2321339\Quadrup
 ole=215.6316258,-91.3856723,-124.2459535,6.3198918,4.0386887,0.898857\
 PG=C01 [X(C26H32N4S2)]\\@


 A SCIENTIST IS SOMEONE WHOSE CURIOSITY SURVIVES
 EDUCATION'S ASSAULTS ON IT.
                          - SIR HERMANN BONDI
 Job cpu time:       0 days  2 hours 28 minutes  0.8 seconds.
 Elapsed time:       0 days  0 hours 18 minutes 47.1 seconds.
 File lengths (MBytes):  RWF=    248 Int=      0 D2E=      0 Chk=     44 Scr=      8
 Normal termination of Gaussian 16 at Wed Jan 27 03:42:27 2021.
