 Entering Gaussian System, Link 0=g16
 Input=mol_ta_cp_whol_tune_c5.gjf
 Output=mol_ta_cp_whol_tune_c5.log
 Initial command:
 /opt/ohpc/pub/libs/gaussian/g16-A.03/sandybridge/g16/l1.exe "/mnt/gpfs2_4m/scratch/rdu230/ondemand/projects/init_structures/gaussian/wtuning/mol_ta_cp_whol/tuning_mol_ta_cp_whol_ocycle0/Gau-16430.inp" -scrdir="/mnt/gpfs2_4m/scratch/rdu230/ondemand/projects/init_structures/gaussian/wtuning/mol_ta_cp_whol/tuning_mol_ta_cp_whol_ocycle0/"
 Entering Link 1 = /opt/ohpc/pub/libs/gaussian/g16-A.03/sandybridge/g16/l1.exe PID=     16431.
  
 Copyright (c) 1988,1990,1992,1993,1995,1998,2003,2009,2016,
            Gaussian, Inc.  All Rights Reserved.
  
 This is part of the Gaussian(R) 16 program.  It is based on
 the Gaussian(R) 09 system (copyright 2009, Gaussian, Inc.),
 the Gaussian(R) 03 system (copyright 2003, Gaussian, Inc.),
 the Gaussian(R) 98 system (copyright 1998, Gaussian, Inc.),
 the Gaussian(R) 94 system (copyright 1995, Gaussian, Inc.),
 the Gaussian 92(TM) system (copyright 1992, Gaussian, Inc.),
 the Gaussian 90(TM) system (copyright 1990, Gaussian, Inc.),
 the Gaussian 88(TM) system (copyright 1988, Gaussian, Inc.),
 the Gaussian 86(TM) system (copyright 1986, Carnegie Mellon
 University), and the Gaussian 82(TM) system (copyright 1983,
 Carnegie Mellon University). Gaussian is a federally registered
 trademark of Gaussian, Inc.
  
 This software contains proprietary and confidential information,
 including trade secrets, belonging to Gaussian, Inc.
  
 This software is provided under written license and may be
 used, copied, transmitted, or stored only in accord with that
 written license.
  
 The following legend is applicable only to US Government
 contracts under FAR:
  
                    RESTRICTED RIGHTS LEGEND
  
 Use, reproduction and disclosure by the US Government is
 subject to restrictions as set forth in subparagraphs (a)
 and (c) of the Commercial Computer Software - Restricted
 Rights clause in FAR 52.227-19.
  
 Gaussian, Inc.
 340 Quinnipiac St., Bldg. 40, Wallingford CT 06492
  
  
 ---------------------------------------------------------------
 Warning -- This program may not be used in any manner that
 competes with the business of Gaussian, Inc. or will provide
 assistance to any competitor of Gaussian, Inc.  The licensee
 of this program is prohibited from giving any competitor of
 Gaussian, Inc. access to this program.  By using this program,
 the user acknowledges that Gaussian, Inc. is engaged in the
 business of creating and licensing software in the field of
 computational chemistry and represents and warrants to the
 licensee that it is not a competitor of Gaussian, Inc. and that
 it will not use this program in any manner prohibited above.
 ---------------------------------------------------------------
  

 Cite this work as:
 Gaussian 16, Revision A.03,
 M. J. Frisch, G. W. Trucks, H. B. Schlegel, G. E. Scuseria, 
 M. A. Robb, J. R. Cheeseman, G. Scalmani, V. Barone, 
 G. A. Petersson, H. Nakatsuji, X. Li, M. Caricato, A. V. Marenich, 
 J. Bloino, B. G. Janesko, R. Gomperts, B. Mennucci, H. P. Hratchian, 
 J. V. Ortiz, A. F. Izmaylov, J. L. Sonnenberg, D. Williams-Young, 
 F. Ding, F. Lipparini, F. Egidi, J. Goings, B. Peng, A. Petrone, 
 T. Henderson, D. Ranasinghe, V. G. Zakrzewski, J. Gao, N. Rega, 
 G. Zheng, W. Liang, M. Hada, M. Ehara, K. Toyota, R. Fukuda, 
 J. Hasegawa, M. Ishida, T. Nakajima, Y. Honda, O. Kitao, H. Nakai, 
 T. Vreven, K. Throssell, J. A. Montgomery, Jr., J. E. Peralta, 
 F. Ogliaro, M. J. Bearpark, J. J. Heyd, E. N. Brothers, K. N. Kudin, 
 V. N. Staroverov, T. A. Keith, R. Kobayashi, J. Normand, 
 K. Raghavachari, A. P. Rendell, J. C. Burant, S. S. Iyengar, 
 J. Tomasi, M. Cossi, J. M. Millam, M. Klene, C. Adamo, R. Cammi, 
 J. W. Ochterski, R. L. Martin, K. Morokuma, O. Farkas, 
 J. B. Foresman, and D. J. Fox, Gaussian, Inc., Wallingford CT, 2016.
 
 ******************************************
 Gaussian 16:  EM64L-G16RevA.03 25-Dec-2016
                27-Jan-2021 
 ******************************************
 %mem=30GB
 %nproc=8
 Will use up to    8 processors via shared memory.
 ----------------------------------------------------------------------
 #P LC-wHPBE/TZVP iop(3/107=0178000000, 3/108=0178000000) scf=(conver=6
 ,fermi,ndamp=35,noincfock,novaracc,vshift=500,xqc)
 ----------------------------------------------------------------------
 1/38=1,172=1/1;
 2/12=2,17=6,18=5,40=1/2;
 3/5=19,7=101,11=2,25=1,30=1,74=-71,107=178000000,108=178000000/1,2,3;
 4//1;
 5/5=100002,6=6,8=3,10=500,13=1,18=-1,22=13,38=1,93=35/2,8;
 6/7=2,8=2,9=2,10=2,28=1/1;
 99/5=1,9=1/99;
 Leave Link    1 at Wed Jan 27 08:44:23 2021, MaxMem=  4026531840 cpu:               1.3 elap:               0.2
 (Enter /opt/ohpc/pub/libs/gaussian/g16-A.03/sandybridge/g16/l101.exe)
 -------------
 H32 C26 S2 N4
 -------------
 Symbolic Z-matrix:
 Charge =  3 Multiplicity = 2
 C                    -2.92895  -0.20959  -0.46643 
 C                    -1.56391  -0.06118  -0.30379 
 S                    -0.54963  -0.92994  -1.46504 
 C                    -1.08049   0.7448    0.70659 
 C                     1.72098  -1.17803   0.12402 
 C                     1.10473  -0.55679  -0.96128 
 C                    -3.80444   0.45306   0.37376 
 C                    -1.95757   1.39872   1.5461 
 H                    -0.01706   0.86739   0.84383 
 C                     3.05531  -0.9059    0.3754 
 C                     1.83438   0.30367  -1.7635 
 C                     3.15732   0.57014  -1.50685 
 C                     3.77282  -0.04371  -0.42944 
 H                     3.53594  -1.38585   1.21576 
 H                     1.34641   0.76308  -2.61 
 H                     3.71103   1.22712  -2.16041 
 C                    -3.31633   1.26263   1.38651 
 H                    -3.30996  -0.82598  -1.26894 
 H                    -0.12139  -2.54684   0.4375 
 H                    -1.57041   2.02093   2.33906 
 H                    -3.99396   1.76653   2.0594 
 S                     0.92347  -2.27951   1.22941 
 C                     5.17937   0.18663  -0.15991 
 C                     6.25826   1.01319  -0.19424 
 C                     6.37398  -0.29155   0.281 
 N                     6.77888   2.1722   -0.46639 
 N                     7.08584  -1.26425   0.76507 
 C                     5.94379   3.27428  -0.90768 
 H                     6.18795   3.5455   -1.93194 
 H                     4.89881   2.99417  -0.84651 
 H                     6.10895   4.1348   -0.26479 
 C                     8.19498   2.45119  -0.31831 
 H                     8.53714   3.01109  -1.1837 
 H                     8.38087   3.03907   0.57771 
 H                     8.75822   1.52753  -0.27382 
 C                     6.51597  -2.58961   0.93143 
 H                     6.46052  -2.8465    1.98643 
 H                     5.52424  -2.62481   0.4964 
 H                     7.14039  -3.31844   0.42172 
 C                     8.48493  -1.11201   1.11844 
 H                     8.66773  -1.62125   2.05998 
 H                     9.12592  -1.5452    0.35389 
 H                     8.72829  -0.06533   1.25212 
 C                    -5.23491   0.30144   0.19256 
 C                    -6.48221   0.8377    0.27429 
 C                    -6.2962   -0.46914  -0.16637 
 N                    -7.25832   1.84294   0.55157 
 N                    -6.77161  -1.60175  -0.5935 
 C                    -6.6997    3.13527   0.90486 
 H                    -6.94343   3.38264   1.93526 
 H                    -5.62343   3.11982   0.78042 
 H                    -7.11117   3.89934   0.25065 
 C                    -8.70492   1.7578    0.48653 
 H                    -9.12754   2.25749   1.35324 
 H                    -9.08035   2.23816  -0.41432 
 H                    -9.02284   0.72292   0.50958 
 C                    -5.90293  -2.75078  -0.76879 
 H                    -5.85073  -3.02756  -1.81903 
 H                    -4.90858  -2.52128  -0.40444 
 H                    -6.2922   -3.59128  -0.20018 
 C                    -8.18148  -1.80619  -0.86682 
 H                    -8.28372  -2.37526  -1.7861 
 H                    -8.6573   -2.35626  -0.05791 
 H                    -8.67988  -0.85495  -1.00634 
 
 ITRead=  0  0  0  0  0  0  0  0  0  0  0  0  0  0  0  0  0  0  0  0
 ITRead=  0  0  0  0  0  0  0  0  0  0  0  0  0  0  0  0  0  0  0  0
 ITRead=  0  0  0  0  0  0  0  0  0  0  0  0  0  0  0  0  0  0  0  0
 ITRead=  0  0  0  0
 MicOpt= -1 -1 -1 -1 -1 -1 -1 -1 -1 -1 -1 -1 -1 -1 -1 -1 -1 -1 -1 -1
 MicOpt= -1 -1 -1 -1 -1 -1 -1 -1 -1 -1 -1 -1 -1 -1 -1 -1 -1 -1 -1 -1
 MicOpt= -1 -1 -1 -1 -1 -1 -1 -1 -1 -1 -1 -1 -1 -1 -1 -1 -1 -1 -1 -1
 MicOpt= -1 -1 -1 -1
 NAtoms=     64 NQM=       64 NQMF=       0 NMMI=      0 NMMIF=      0
                NMic=       0 NMicF=      0.
                    Isotopes and Nuclear Properties:
 (Nuclear quadrupole moments (NQMom) in fm**2, nuclear magnetic moments (NMagM)
  in nuclear magnetons)

  Atom         1           2           3           4           5           6           7           8           9          10
 IAtWgt=          12          12          32          12          12          12          12          12           1          12
 AtmWgt=  12.0000000  12.0000000  31.9720718  12.0000000  12.0000000  12.0000000  12.0000000  12.0000000   1.0078250  12.0000000
 NucSpn=           0           0           0           0           0           0           0           0           1           0
 AtZEff=  -0.0000000  -0.0000000  -0.0000000  -0.0000000  -0.0000000  -0.0000000  -0.0000000  -0.0000000  -0.0000000  -0.0000000
 NQMom=    0.0000000   0.0000000   0.0000000   0.0000000   0.0000000   0.0000000   0.0000000   0.0000000   0.0000000   0.0000000
 NMagM=    0.0000000   0.0000000   0.0000000   0.0000000   0.0000000   0.0000000   0.0000000   0.0000000   2.7928460   0.0000000
 AtZNuc=   6.0000000   6.0000000  16.0000000   6.0000000   6.0000000   6.0000000   6.0000000   6.0000000   1.0000000   6.0000000

  Atom        11          12          13          14          15          16          17          18          19          20
 IAtWgt=          12          12          12           1           1           1          12           1           1           1
 AtmWgt=  12.0000000  12.0000000  12.0000000   1.0078250   1.0078250   1.0078250  12.0000000   1.0078250   1.0078250   1.0078250
 NucSpn=           0           0           0           1           1           1           0           1           1           1
 AtZEff=  -0.0000000  -0.0000000  -0.0000000  -0.0000000  -0.0000000  -0.0000000  -0.0000000  -0.0000000  -0.0000000  -0.0000000
 NQMom=    0.0000000   0.0000000   0.0000000   0.0000000   0.0000000   0.0000000   0.0000000   0.0000000   0.0000000   0.0000000
 NMagM=    0.0000000   0.0000000   0.0000000   2.7928460   2.7928460   2.7928460   0.0000000   2.7928460   2.7928460   2.7928460
 AtZNuc=   6.0000000   6.0000000   6.0000000   1.0000000   1.0000000   1.0000000   6.0000000   1.0000000   1.0000000   1.0000000

  Atom        21          22          23          24          25          26          27          28          29          30
 IAtWgt=           1          32          12          12          12          14          14          12           1           1
 AtmWgt=   1.0078250  31.9720718  12.0000000  12.0000000  12.0000000  14.0030740  14.0030740  12.0000000   1.0078250   1.0078250
 NucSpn=           1           0           0           0           0           2           2           0           1           1
 AtZEff=  -0.0000000  -0.0000000  -0.0000000  -0.0000000  -0.0000000  -0.0000000  -0.0000000  -0.0000000  -0.0000000  -0.0000000
 NQMom=    0.0000000   0.0000000   0.0000000   0.0000000   0.0000000   2.0440000   2.0440000   0.0000000   0.0000000   0.0000000
 NMagM=    2.7928460   0.0000000   0.0000000   0.0000000   0.0000000   0.4037610   0.4037610   0.0000000   2.7928460   2.7928460
 AtZNuc=   1.0000000  16.0000000   6.0000000   6.0000000   6.0000000   7.0000000   7.0000000   6.0000000   1.0000000   1.0000000

  Atom        31          32          33          34          35          36          37          38          39          40
 IAtWgt=           1          12           1           1           1          12           1           1           1          12
 AtmWgt=   1.0078250  12.0000000   1.0078250   1.0078250   1.0078250  12.0000000   1.0078250   1.0078250   1.0078250  12.0000000
 NucSpn=           1           0           1           1           1           0           1           1           1           0
 AtZEff=  -0.0000000  -0.0000000  -0.0000000  -0.0000000  -0.0000000  -0.0000000  -0.0000000  -0.0000000  -0.0000000  -0.0000000
 NQMom=    0.0000000   0.0000000   0.0000000   0.0000000   0.0000000   0.0000000   0.0000000   0.0000000   0.0000000   0.0000000
 NMagM=    2.7928460   0.0000000   2.7928460   2.7928460   2.7928460   0.0000000   2.7928460   2.7928460   2.7928460   0.0000000
 AtZNuc=   1.0000000   6.0000000   1.0000000   1.0000000   1.0000000   6.0000000   1.0000000   1.0000000   1.0000000   6.0000000

  Atom        41          42          43          44          45          46          47          48          49          50
 IAtWgt=           1           1           1          12          12          12          14          14          12           1
 AtmWgt=   1.0078250   1.0078250   1.0078250  12.0000000  12.0000000  12.0000000  14.0030740  14.0030740  12.0000000   1.0078250
 NucSpn=           1           1           1           0           0           0           2           2           0           1
 AtZEff=  -0.0000000  -0.0000000  -0.0000000  -0.0000000  -0.0000000  -0.0000000  -0.0000000  -0.0000000  -0.0000000  -0.0000000
 NQMom=    0.0000000   0.0000000   0.0000000   0.0000000   0.0000000   0.0000000   2.0440000   2.0440000   0.0000000   0.0000000
 NMagM=    2.7928460   2.7928460   2.7928460   0.0000000   0.0000000   0.0000000   0.4037610   0.4037610   0.0000000   2.7928460
 AtZNuc=   1.0000000   1.0000000   1.0000000   6.0000000   6.0000000   6.0000000   7.0000000   7.0000000   6.0000000   1.0000000

  Atom        51          52          53          54          55          56          57          58          59          60
 IAtWgt=           1           1          12           1           1           1          12           1           1           1
 AtmWgt=   1.0078250   1.0078250  12.0000000   1.0078250   1.0078250   1.0078250  12.0000000   1.0078250   1.0078250   1.0078250
 NucSpn=           1           1           0           1           1           1           0           1           1           1
 AtZEff=  -0.0000000  -0.0000000  -0.0000000  -0.0000000  -0.0000000  -0.0000000  -0.0000000  -0.0000000  -0.0000000  -0.0000000
 NQMom=    0.0000000   0.0000000   0.0000000   0.0000000   0.0000000   0.0000000   0.0000000   0.0000000   0.0000000   0.0000000
 NMagM=    2.7928460   2.7928460   0.0000000   2.7928460   2.7928460   2.7928460   0.0000000   2.7928460   2.7928460   2.7928460
 AtZNuc=   1.0000000   1.0000000   6.0000000   1.0000000   1.0000000   1.0000000   6.0000000   1.0000000   1.0000000   1.0000000

  Atom        61          62          63          64
 IAtWgt=          12           1           1           1
 AtmWgt=  12.0000000   1.0078250   1.0078250   1.0078250
 NucSpn=           0           1           1           1
 AtZEff=  -0.0000000  -0.0000000  -0.0000000  -0.0000000
 NQMom=    0.0000000   0.0000000   0.0000000   0.0000000
 NMagM=    0.0000000   2.7928460   2.7928460   2.7928460
 AtZNuc=   6.0000000   1.0000000   1.0000000   1.0000000
 Leave Link  101 at Wed Jan 27 08:44:23 2021, MaxMem=  4026531840 cpu:               0.9 elap:               0.1
 (Enter /opt/ohpc/pub/libs/gaussian/g16-A.03/sandybridge/g16/l202.exe)
 Stoichiometry    C26H32N4S2(3+,2)
 Framework group  C1[X(C26H32N4S2)]
 Deg. of freedom   186
 Full point group                 C1      NOp   1
 Largest Abelian subgroup         C1      NOp   1
 Largest concise Abelian subgroup C1      NOp   1
                         Standard orientation:                         
 ---------------------------------------------------------------------
 Center     Atomic      Atomic             Coordinates (Angstroms)
 Number     Number       Type             X           Y           Z
 ---------------------------------------------------------------------
      1          6           0        2.928949   -0.209586    0.466429
      2          6           0        1.563914   -0.061175    0.303790
      3         16           0        0.549634   -0.929940    1.465043
      4          6           0        1.080492    0.744795   -0.706590
      5          6           0       -1.720975   -1.178026   -0.124019
      6          6           0       -1.104728   -0.556786    0.961278
      7          6           0        3.804439    0.453059   -0.373760
      8          6           0        1.957571    1.398720   -1.546095
      9          1           0        0.017059    0.867388   -0.843825
     10          6           0       -3.055310   -0.905897   -0.375396
     11          6           0       -1.834379    0.303673    1.763498
     12          6           0       -3.157322    0.570140    1.506853
     13          6           0       -3.772824   -0.043708    0.429435
     14          1           0       -3.535939   -1.385849   -1.215765
     15          1           0       -1.346414    0.763075    2.610001
     16          1           0       -3.711030    1.227115    2.160412
     17          6           0        3.316329    1.262630   -1.386512
     18          1           0        3.309964   -0.825983    1.268943
     19          1           0        0.121390   -2.546838   -0.437504
     20          1           0        1.570409    2.020933   -2.339064
     21          1           0        3.993957    1.766527   -2.059405
     22         16           0       -0.923466   -2.279512   -1.229412
     23          6           0       -5.179371    0.186625    0.159910
     24          6           0       -6.258258    1.013194    0.194238
     25          6           0       -6.373984   -0.291545   -0.281001
     26          7           0       -6.778879    2.172200    0.466391
     27          7           0       -7.085837   -1.264246   -0.765069
     28          6           0       -5.943792    3.274283    0.907684
     29          1           0       -6.187951    3.545500    1.931936
     30          1           0       -4.898805    2.994168    0.846509
     31          1           0       -6.108951    4.134804    0.264794
     32          6           0       -8.194976    2.451187    0.318309
     33          1           0       -8.537142    3.011091    1.183702
     34          1           0       -8.380874    3.039067   -0.577705
     35          1           0       -8.758216    1.527533    0.273817
     36          6           0       -6.515968   -2.589608   -0.931428
     37          1           0       -6.460524   -2.846499   -1.986434
     38          1           0       -5.524243   -2.624805   -0.496396
     39          1           0       -7.140387   -3.318442   -0.421721
     40          6           0       -8.484929   -1.112006   -1.118438
     41          1           0       -8.667734   -1.621246   -2.059984
     42          1           0       -9.125917   -1.545202   -0.353886
     43          1           0       -8.728287   -0.065327   -1.252120
     44          6           0        5.234909    0.301436   -0.192555
     45          6           0        6.482207    0.837696   -0.274291
     46          6           0        6.296202   -0.469144    0.166373
     47          7           0        7.258316    1.842942   -0.551570
     48          7           0        6.771609   -1.601745    0.593499
     49          6           0        6.699705    3.135271   -0.904858
     50          1           0        6.943427    3.382636   -1.935256
     51          1           0        5.623434    3.119821   -0.780416
     52          1           0        7.111169    3.899344   -0.250646
     53          6           0        8.704916    1.757804   -0.486526
     54          1           0        9.127537    2.257490   -1.353238
     55          1           0        9.080352    2.238157    0.414316
     56          1           0        9.022841    0.722915   -0.509579
     57          6           0        5.902929   -2.750782    0.768792
     58          1           0        5.850729   -3.027562    1.819029
     59          1           0        4.908582   -2.521281    0.404440
     60          1           0        6.292204   -3.591280    0.200176
     61          6           0        8.181475   -1.806186    0.866823
     62          1           0        8.283723   -2.375263    1.786100
     63          1           0        8.657299   -2.356258    0.057912
     64          1           0        8.679880   -0.854950    1.006340
 ---------------------------------------------------------------------
 Rotational constants (GHZ):           0.3037259           0.0375439           0.0353071
 Leave Link  202 at Wed Jan 27 08:44:23 2021, MaxMem=  4026531840 cpu:               0.3 elap:               0.1
 (Enter /opt/ohpc/pub/libs/gaussian/g16-A.03/sandybridge/g16/l301.exe)
 Standard basis: TZVP (5D, 7F)
 Ernie: Thresh=  0.10000D-02 Tol=  0.10000D-05 Strict=F.
 There are   838 symmetry adapted cartesian basis functions of A   symmetry.
 There are   806 symmetry adapted basis functions of A   symmetry.
   806 basis functions,  1400 primitive gaussians,   838 cartesian basis functions
   123 alpha electrons      122 beta electrons
       nuclear repulsion energy      3278.9471045421 Hartrees.
 IExCor=33909 DFT=T Ex+Corr=LC-wHPBE ExCW=0 ScaHFX=  1.000000
 ScaDFX=  1.000000  1.000000  1.000000  1.000000 ScalE2=  1.000000  1.000000
 IRadAn=      5 IRanWt=     -1 IRanGd=            0 ICorTp=0 IEmpDi=  4
 HFx  wShort=  0.000000 wLong=  0.178000 cFull=  0.000000 cShort=  0.000000 cLong=  1.000000
 DFx  wShort=  0.000000 wLong=  0.178000 cFull=  0.000000 cShort=  1.000000 cLong=  0.000000
 NAtoms=   64 NActive=   64 NUniq=   64 SFac= 1.00D+00 NAtFMM=   60 NAOKFM=T Big=T
 Integral buffers will be    131072 words long.
 Raffenetti 2 integral format.
 Two-electron integral symmetry is turned on.
 Leave Link  301 at Wed Jan 27 08:44:23 2021, MaxMem=  4026531840 cpu:               0.4 elap:               0.1
 (Enter /opt/ohpc/pub/libs/gaussian/g16-A.03/sandybridge/g16/l302.exe)
 NPDir=0 NMtPBC=     1 NCelOv=     1 NCel=       1 NClECP=     1 NCelD=      1
         NCelK=      1 NCelE2=     1 NClLst=     1 CellRange=     0.0.
 One-electron integrals computed using PRISM.
 One-electron integral symmetry used in STVInt
 NBasis=   806 RedAO= T EigKep=  6.39D-06  NBF=   806
 NBsUse=   806 1.00D-06 EigRej= -1.00D+00 NBFU=   806
 Precomputing XC quadrature grid using
 IXCGrd= 4 IRadAn=           5 IRanWt=          -1 IRanGd=           0 AccXCQ= 0.00D+00.
 Generated NRdTot=       0 NPtTot=           0 NUsed=           0 NTot=          32
 NSgBfM=   770   766   769   770   770 MxSgAt=    64 MxSgA2=    64.
 Leave Link  302 at Wed Jan 27 08:44:26 2021, MaxMem=  4026531840 cpu:              18.3 elap:               2.3
 (Enter /opt/ohpc/pub/libs/gaussian/g16-A.03/sandybridge/g16/l303.exe)
 DipDrv:  MaxL=1.
 Leave Link  303 at Wed Jan 27 08:44:26 2021, MaxMem=  4026531840 cpu:               1.6 elap:               0.2
 (Enter /opt/ohpc/pub/libs/gaussian/g16-A.03/sandybridge/g16/l401.exe)
 ExpMin= 9.52D-02 ExpMax= 6.07D+04 ExpMxC= 2.07D+03 IAcc=3 IRadAn=         5 AccDes= 0.00D+00
 Harris functional with IExCor=33909 and IRadAn=       5 diagonalized for initial guess.
 HarFok:  IExCor=33909 AccDes= 0.00D+00 IRadAn=         5 IDoV= 1 UseB2=F ITyADJ=14
 ICtDFT=  3500011 ScaDFX=  1.000000  1.000000  1.000000  1.000000
 FoFCou: FMM=F IPFlag=           0 FMFlag=      100000 FMFlg1=        2001
         NFxFlg=           0 DoJE=T BraDBF=F KetDBF=T FulRan=T
         wScrn=  0.000000 ICntrl=       500 IOpCl=  0 I1Cent=   200000004 NGrid=           0
         NMat0=    1 NMatS0=      1 NMatT0=    0 NMatD0=    1 NMtDS0=    0 NMtDT0=    0
 Petite list used in FoFCou.
 Harris En= -2000.09506691025    
 JPrj=0 DoOrth=F DoCkMO=F.
 Initial guess <Sx>= 0.0000 <Sy>= 0.0000 <Sz>= 0.5000 <S**2>= 0.7500 S= 0.5000
 Leave Link  401 at Wed Jan 27 08:44:37 2021, MaxMem=  4026531840 cpu:              90.2 elap:              11.4
 (Enter /opt/ohpc/pub/libs/gaussian/g16-A.03/sandybridge/g16/l502.exe)
 Integral symmetry usage will be decided dynamically.
 UHF open shell SCF:
 Using DIIS extrapolation, IDIIS=    10.
 NGot=  4026531840 LenX=  4025112240 LenY=  4024409158
 Requested convergence on RMS density matrix=1.00D-06 within  32 cycles.
 Requested convergence on MAX density matrix=1.00D-04.
 Requested convergence on             energy=1.00D-04.
 Virtual orbitals will be shifted by   0.500 hartree.
 No special actions if energy rises.
 Dynamic level shift is on during FON iterations.

 Cycle   1  Pass 1  IDiag  1:
 FoFJK:  IHMeth= 1 ICntrl=       0 DoSepK=T KAlg= 0 I1Cent=           0 FoldK=F
 IRaf=         1 NMat=       1 IRICut=       1 DoRegI=T DoRafI=F ISym2E= 0 IDoP0=0 IntGTp=1.
 FoFCou: FMM=T IPFlag=           0 FMFlag=      100000 FMFlg1=        2001
         NFxFlg=           0 DoJE=T BraDBF=F KetDBF=F FulRan=T
         wScrn=  0.000000 ICntrl=       500 IOpCl=  0 I1Cent=           0 NGrid=           0
         NMat0=    1 NMatS0=      1 NMatT0=    0 NMatD0=    1 NMtDS0=    0 NMtDT0=    0
 Symmetry not used in FoFCou.
 FMM levels:  10  Number of levels for PrismC:   9
 E= -2022.68434310036    
 DIIS: error= 2.91D-02 at cycle   1 NSaved=   1.
 NSaved= 1 IEnMin= 1 EnMin= -2022.68434310036     IErMin= 1 ErrMin= 2.91D-02
 ErrMax= 2.91D-02  0.00D+00 EMaxC= 1.00D+00 BMatC= 2.49D+00 BMatP= 2.49D+00
 IDIUse=1 WtCom= 1.00D+00 WtEn= 0.00D+00
 Coeff-Com:  0.100D+01
 Coeff:      0.100D+01
 Gap=     0.482 Goal=   None    Shift=    0.500
 T= 1479. Gap= 0.638 NK=0 IS=  124 IE=  806 IFin=  123
          NO(<0.9)=   0  NV(>0.1)=   0    123.00e < EF      0.00e >EF  Err=0.0D+00
 Gap=     0.099 Goal=   None    Shift=    0.500
 T= 1479. Gap= 0.426 NK=0 IS=  123 IE=  806 IFin=  122
          NO(<0.9)=   0  NV(>0.1)=   0    122.00e < EF      0.00e >EF  Err=0.0D+00
 GapD=    0.099 DampG=0.500 DampE=0.500 DampFc=0.2500 IDamp=-1.
 Damping current iteration by 2.50D-01
 RMSDP=3.99D-03 MaxDP=7.06D-01              OVMax= 1.09D-01

 Cycle   2  Pass 1  IDiag  1:
 E= -2022.90391835564     Delta-E=       -0.219575255283 Rises=F Damp=T
 DIIS: error= 2.03D-02 at cycle   2 NSaved=   2.
 NSaved= 2 IEnMin= 2 EnMin= -2022.90391835564     IErMin= 2 ErrMin= 2.03D-02
 ErrMax= 2.03D-02  0.00D+00 EMaxC= 1.00D+00 BMatC= 1.16D+00 BMatP= 2.49D+00
 IDIUse=1 WtCom= 1.00D+00 WtEn= 0.00D+00
 Coeff-Com: -0.200D+01 0.300D+01
 Coeff:     -0.200D+01 0.300D+01
 Gap=     0.301 Goal=   None    Shift=    0.500
 T= 1415. Gap= 0.720 NK=0 IS=  124 IE=  806 IFin=  123
          NO(<0.9)=   0  NV(>0.1)=   0    123.00e < EF      0.00e >EF  Err=0.0D+00
 Gap=     0.098 Goal=   None    Shift=    0.500
 T= 1415. Gap= 0.570 NK=0 IS=  123 IE=  806 IFin=  122
          NO(<0.9)=   0  NV(>0.1)=   0    122.00e < EF      0.00e >EF  Err=0.0D+00
 GapD=    0.098 DampG=0.500 DampE=0.500 DampFc=0.2500 IDamp=-1.
 Damping current iteration by 2.50D-01
 RMSDP=2.94D-03 MaxDP=3.64D-01 DE=-2.20D-01 OVMax= 2.15D-02

 Cycle   3  Pass 1  IDiag  1:
 E= -2023.02971398811     Delta-E=       -0.125795632466 Rises=F Damp=T
 DIIS: error= 1.45D-02 at cycle   3 NSaved=   3.
 NSaved= 3 IEnMin= 3 EnMin= -2023.02971398811     IErMin= 3 ErrMin= 1.45D-02
 ErrMax= 1.45D-02  0.00D+00 EMaxC= 1.00D+00 BMatC= 5.99D-01 BMatP= 1.16D+00
 IDIUse=1 WtCom= 1.00D+00 WtEn= 0.00D+00
 Coeff-Com:  0.271D+00-0.322D+01 0.395D+01
 Coeff:      0.271D+00-0.322D+01 0.395D+01
 Gap=     0.238 Goal=   None    Shift=    0.500
 T= 1291. Gap= 0.737 NK=0 IS=  124 IE=  806 IFin=  123
          NO(<0.9)=   0  NV(>0.1)=   0    123.00e < EF      0.00e >EF  Err=0.0D+00
 Gap=     0.097 Goal=   None    Shift=    0.500
 T= 1291. Gap= 0.596 NK=0 IS=  123 IE=  806 IFin=  122
          NO(<0.9)=   0  NV(>0.1)=   0    122.00e < EF      0.00e >EF  Err=0.0D+00
 GapD=    0.097 DampG=0.500 DampE=0.500 DampFc=0.2500 IDamp=-1.
 Damping current iteration by 2.50D-01
 RMSDP=2.32D-03 MaxDP=2.68D-01 DE=-1.26D-01 OVMax= 1.52D-02

 Cycle   4  Pass 1  IDiag  1:
 E= -2023.10852540960     Delta-E=       -0.078811421493 Rises=F Damp=T
 DIIS: error= 1.06D-02 at cycle   4 NSaved=   4.
 NSaved= 4 IEnMin= 4 EnMin= -2023.10852540960     IErMin= 4 ErrMin= 1.06D-02
 ErrMax= 1.06D-02  0.00D+00 EMaxC= 1.00D+00 BMatC= 3.25D-01 BMatP= 5.99D-01
 IDIUse=1 WtCom= 1.00D+00 WtEn= 0.00D+00
 Coeff-Com:  0.197D+00-0.210D+00-0.322D+01 0.423D+01
 Coeff:      0.197D+00-0.210D+00-0.322D+01 0.423D+01
 Gap=     0.237 Goal=   None    Shift=    0.500
 T= 1086. Gap= 0.737 NK=4 IS=  124 IE=  137 IFin=  123
          NO(<0.9)=   0  NV(>0.1)=   0    123.00e < EF      0.00e >EF  Err=0.0D+00
 Gap=     0.097 Goal=   None    Shift=    0.500
 T= 1086. Gap= 0.598 NK=4 IS=  123 IE=  136 IFin=  122
          NO(<0.9)=   0  NV(>0.1)=   0    122.00e < EF      0.00e >EF  Err=0.0D+00
 GapD=    0.097 DampG=0.500 DampE=0.500 DampFc=0.2500 IDamp=-1.
 Damping current iteration by 2.50D-01
 RMSDP=1.80D-03 MaxDP=2.15D-01 DE=-7.88D-02 OVMax= 1.48D-02

 Cycle   5  Pass 1  IDiag  1:
 E= -2023.16114615461     Delta-E=       -0.052620745008 Rises=F Damp=T
 DIIS: error= 8.46D-03 at cycle   5 NSaved=   5.
 NSaved= 5 IEnMin= 5 EnMin= -2023.16114615461     IErMin= 5 ErrMin= 8.46D-03
 ErrMax= 8.46D-03  0.00D+00 EMaxC= 1.00D+00 BMatC= 1.80D-01 BMatP= 3.25D-01
 IDIUse=1 WtCom= 1.00D+00 WtEn= 0.00D+00
 Coeff-Com:  0.291D-02 0.582D+00-0.110D+01-0.290D+01 0.441D+01
 Coeff:      0.291D-02 0.582D+00-0.110D+01-0.290D+01 0.441D+01
 Gap=     0.239 Goal=   None    Shift=    0.500
 T=  905. Gap= 0.740 NK=4 IS=  124 IE=  137 IFin=  123
          NO(<0.9)=   0  NV(>0.1)=   0    123.00e < EF      0.00e >EF  Err=0.0D+00
 Gap=     0.100 Goal=   None    Shift=    0.500
 T=  905. Gap= 0.600 NK=4 IS=  123 IE=  136 IFin=  122
          NO(<0.9)=   0  NV(>0.1)=   0    122.00e < EF      0.00e >EF  Err=0.0D+00
 GapD=    0.100 DampG=1.000 DampE=1.000 DampFc=1.0000 IDamp=-1.
 RMSDP=1.38D-03 MaxDP=1.65D-01 DE=-5.26D-02 OVMax= 1.39D-02

 Cycle   6  Pass 1  IDiag  1:
 E= -2023.29278524330     Delta-E=       -0.131639088684 Rises=F Damp=F
 DIIS: error= 1.54D-03 at cycle   6 NSaved=   6.
 NSaved= 6 IEnMin= 6 EnMin= -2023.29278524330     IErMin= 6 ErrMin= 1.54D-03
 ErrMax= 1.54D-03  0.00D+00 EMaxC= 1.00D+00 BMatC= 4.29D-04 BMatP= 1.80D-01
 IDIUse=1 WtCom= 1.00D+00 WtEn= 0.00D+00
 Coeff-Com: -0.313D-01 0.201D+00 0.380D+00-0.838D+00 0.478D-01 0.124D+01
 Coeff:     -0.313D-01 0.201D+00 0.380D+00-0.838D+00 0.478D-01 0.124D+01
 Gap=     0.240 Goal=   None    Shift=    0.500
 T=  613. Gap= 0.740 NK=4 IS=  124 IE=  137 IFin=  123
          NO(<0.9)=   0  NV(>0.1)=   0    123.00e < EF      0.00e >EF  Err=0.0D+00
 Gap=     0.102 Goal=   None    Shift=    0.500
 T=  613. Gap= 0.602 NK=4 IS=  123 IE=  136 IFin=  122
          NO(<0.9)=   0  NV(>0.1)=   0    122.00e < EF      0.00e >EF  Err=0.0D+00
 GapD=    0.102 DampG=1.000 DampE=1.000 DampFc=1.0000 IDamp=-1.
 RMSDP=1.04D-04 MaxDP=1.82D-02 DE=-1.32D-01 OVMax= 1.25D-02

 Cycle   7  Pass 1  IDiag  1:
 E= -2023.29327898256     Delta-E=       -0.000493739268 Rises=F Damp=F
 DIIS: error= 1.34D-03 at cycle   7 NSaved=   7.
 NSaved= 7 IEnMin= 7 EnMin= -2023.29327898256     IErMin= 7 ErrMin= 1.34D-03
 ErrMax= 1.34D-03  0.00D+00 EMaxC= 1.00D+00 BMatC= 2.32D-04 BMatP= 4.29D-04
 IDIUse=1 WtCom= 1.00D+00 WtEn= 0.00D+00
 Coeff-Com: -0.822D-02-0.171D+00 0.661D+00 0.289D+00-0.114D+01-0.103D+01
 Coeff-Com:  0.239D+01
 Coeff:     -0.822D-02-0.171D+00 0.661D+00 0.289D+00-0.114D+01-0.103D+01
 Coeff:      0.239D+01
 Gap=     0.241 Goal=   None    Shift=    0.500
 T=  253. Gap= 0.741 NK=4 IS=  124 IE=  137 IFin=  123
          NO(<0.9)=   0  NV(>0.1)=   0    123.00e < EF      0.00e >EF  Err=0.0D+00
 Gap=     0.103 Goal=   None    Shift=    0.500
 T=  253. Gap= 0.603 NK=4 IS=  123 IE=  136 IFin=  122
          NO(<0.9)=   0  NV(>0.1)=   0    122.00e < EF      0.00e >EF  Err=0.0D+00
 GapD=    0.103 DampG=1.000 DampE=1.000 DampFc=1.0000 IDamp=-1.
 RMSDP=9.41D-05 MaxDP=1.51D-02 DE=-4.94D-04 OVMax= 1.35D-02

 Cycle   8  Pass 1  IDiag  1:
 E= -2023.29365082919     Delta-E=       -0.000371846631 Rises=F Damp=F
 DIIS: error= 1.12D-03 at cycle   8 NSaved=   8.
 NSaved= 8 IEnMin= 8 EnMin= -2023.29365082919     IErMin= 8 ErrMin= 1.12D-03
 ErrMax= 1.12D-03  0.00D+00 EMaxC= 1.00D+00 BMatC= 1.35D-04 BMatP= 2.32D-04
 IDIUse=1 WtCom= 1.00D+00 WtEn= 0.00D+00
 Coeff-Com: -0.743D-02-0.118D+00 0.372D+00 0.304D+00-0.768D+00-0.743D+00
 Coeff-Com:  0.846D+00 0.111D+01
 Coeff:     -0.743D-02-0.118D+00 0.372D+00 0.304D+00-0.768D+00-0.743D+00
 Coeff:      0.846D+00 0.111D+01
 Gap=     0.241 Goal=   None    Shift=    0.500
 Gap=     0.103 Goal=   None    Shift=    0.500
 GapD=    0.103 DampG=1.000 DampE=1.000 DampFc=1.0000 IDamp=-1.
 RMSDP=5.56D-05 MaxDP=7.48D-03 DE=-3.72D-04 OVMax= 1.08D-02

 Cycle   9  Pass 1  IDiag  1:
 E= -2023.29386992839     Delta-E=       -0.000219099198 Rises=F Damp=F
 DIIS: error= 9.02D-04 at cycle   9 NSaved=   9.
 NSaved= 9 IEnMin= 9 EnMin= -2023.29386992839     IErMin= 9 ErrMin= 9.02D-04
 ErrMax= 9.02D-04  0.00D+00 EMaxC= 1.00D+00 BMatC= 8.33D-05 BMatP= 1.35D-04
 IDIUse=1 WtCom= 1.00D+00 WtEn= 0.00D+00
 Coeff-Com:  0.154D-02-0.927D-02-0.590D-01 0.537D+00-0.595D+00 0.601D+00
 Coeff-Com: -0.987D+00-0.140D+01 0.291D+01
 Coeff:      0.154D-02-0.927D-02-0.590D-01 0.537D+00-0.595D+00 0.601D+00
 Coeff:     -0.987D+00-0.140D+01 0.291D+01
 Gap=     0.241 Goal=   None    Shift=    0.500
 Gap=     0.104 Goal=   None    Shift=    0.500
 RMSDP=5.19D-05 MaxDP=7.23D-03 DE=-2.19D-04 OVMax= 1.04D-02

 Cycle  10  Pass 1  IDiag  1:
 E= -2023.29403396558     Delta-E=       -0.000164037192 Rises=F Damp=F
 DIIS: error= 7.87D-04 at cycle  10 NSaved=  10.
 NSaved=10 IEnMin=10 EnMin= -2023.29403396558     IErMin=10 ErrMin= 7.87D-04
 ErrMax= 7.87D-04  0.00D+00 EMaxC= 1.00D+00 BMatC= 6.75D-05 BMatP= 8.33D-05
 IDIUse=1 WtCom= 1.00D+00 WtEn= 0.00D+00
 Coeff-Com: -0.159D-02 0.276D-01-0.390D-01 0.330D+00-0.433D+00 0.115D+01
 Coeff-Com: -0.124D+01-0.222D+01 0.219D+01 0.125D+01
 Coeff:     -0.159D-02 0.276D-01-0.390D-01 0.330D+00-0.433D+00 0.115D+01
 Coeff:     -0.124D+01-0.222D+01 0.219D+01 0.125D+01
 Gap=     0.241 Goal=   None    Shift=    0.500
 Gap=     0.104 Goal=   None    Shift=    0.500
 RMSDP=3.59D-05 MaxDP=4.84D-03 DE=-1.64D-04 OVMax= 8.99D-03

 Cycle  11  Pass 1  IDiag  1:
 E= -2023.29415126924     Delta-E=       -0.000117303661 Rises=F Damp=F
 DIIS: error= 7.48D-04 at cycle  11 NSaved=  11.
 NSaved=11 IEnMin=11 EnMin= -2023.29415126924     IErMin=11 ErrMin= 7.48D-04
 ErrMax= 7.48D-04  0.00D+00 EMaxC= 1.00D+00 BMatC= 4.96D-05 BMatP= 6.75D-05
 IDIUse=1 WtCom= 1.00D+00 WtEn= 0.00D+00
 Coeff-Com: -0.764D-02-0.216D-01 0.251D+00-0.188D+00-0.122D+00 0.519D+00
 Coeff-Com: -0.693D-01-0.122D+01 0.458D+00-0.126D+01 0.266D+01
 Coeff:     -0.764D-02-0.216D-01 0.251D+00-0.188D+00-0.122D+00 0.519D+00
 Coeff:     -0.693D-01-0.122D+01 0.458D+00-0.126D+01 0.266D+01
 Gap=     0.241 Goal=   None    Shift=    0.500
 Gap=     0.104 Goal=   None    Shift=    0.500
 RMSDP=2.89D-05 MaxDP=3.99D-03 DE=-1.17D-04 OVMax= 7.87D-03

 Cycle  12  Pass 1  IDiag  1:
 E= -2023.29424052796     Delta-E=       -0.000089258711 Rises=F Damp=F
 DIIS: error= 7.07D-04 at cycle  12 NSaved=  12.
 NSaved=12 IEnMin=12 EnMin= -2023.29424052796     IErMin=12 ErrMin= 7.07D-04
 ErrMax= 7.07D-04  0.00D+00 EMaxC= 1.00D+00 BMatC= 3.85D-05 BMatP= 4.96D-05
 IDIUse=1 WtCom= 1.00D+00 WtEn= 0.00D+00
 Coeff-Com: -0.771D-02-0.229D-01 0.217D+00-0.184D+00-0.644D-01 0.629D-01
 Coeff-Com:  0.375D+00-0.384D+00 0.698D-01-0.160D+01 0.636D+00 0.190D+01
 Coeff:     -0.771D-02-0.229D-01 0.217D+00-0.184D+00-0.644D-01 0.629D-01
 Coeff:      0.375D+00-0.384D+00 0.698D-01-0.160D+01 0.636D+00 0.190D+01
 Gap=     0.241 Goal=   None    Shift=    0.500
 Gap=     0.104 Goal=   None    Shift=    0.500
 RMSDP=2.17D-05 MaxDP=2.93D-03 DE=-8.93D-05 OVMax= 6.35D-03

 Cycle  13  Pass 1  IDiag  1:
 E= -2023.29430659281     Delta-E=       -0.000066064857 Rises=F Damp=F
 DIIS: error= 6.67D-04 at cycle  13 NSaved=  13.
 NSaved=13 IEnMin=13 EnMin= -2023.29430659281     IErMin=13 ErrMin= 6.67D-04
 ErrMax= 6.67D-04  0.00D+00 EMaxC= 1.00D+00 BMatC= 2.88D-05 BMatP= 3.85D-05
 IDIUse=1 WtCom= 1.00D+00 WtEn= 0.00D+00
 Coeff-Com:  0.488D-03 0.972D-03-0.517D-01 0.239D+00-0.231D+00-0.116D+00
 Coeff-Com:  0.151D+00 0.143D+00 0.464D+00-0.200D+00-0.203D+01-0.284D+00
 Coeff-Com:  0.292D+01
 Coeff:      0.488D-03 0.972D-03-0.517D-01 0.239D+00-0.231D+00-0.116D+00
 Coeff:      0.151D+00 0.143D+00 0.464D+00-0.200D+00-0.203D+01-0.284D+00
 Coeff:      0.292D+01
 Gap=     0.241 Goal=   None    Shift=    0.500
 Gap=     0.104 Goal=   None    Shift=    0.500
 RMSDP=2.13D-05 MaxDP=2.66D-03 DE=-6.61D-05 OVMax= 5.48D-03

 Cycle  14  Pass 1  IDiag  1:
 E= -2023.29436026939     Delta-E=       -0.000053676578 Rises=F Damp=F
 DIIS: error= 6.37D-04 at cycle  14 NSaved=  14.
 NSaved=14 IEnMin=14 EnMin= -2023.29436026939     IErMin=14 ErrMin= 6.37D-04
 ErrMax= 6.37D-04  0.00D+00 EMaxC= 1.00D+00 BMatC= 2.60D-05 BMatP= 2.88D-05
 IDIUse=1 WtCom= 1.00D+00 WtEn= 0.00D+00
 Coeff-Com:  0.410D-02 0.166D-01-0.167D+00 0.394D+00-0.280D+00 0.208D+00
 Coeff-Com: -0.529D+00-0.144D+00 0.115D+01 0.772D+00-0.160D+01-0.281D+01
 Coeff-Com:  0.211D+01 0.187D+01
 Coeff:      0.410D-02 0.166D-01-0.167D+00 0.394D+00-0.280D+00 0.208D+00
 Coeff:     -0.529D+00-0.144D+00 0.115D+01 0.772D+00-0.160D+01-0.281D+01
 Coeff:      0.211D+01 0.187D+01
 Gap=     0.241 Goal=   None    Shift=    0.500
 Gap=     0.104 Goal=   None    Shift=    0.500
 RMSDP=1.75D-05 MaxDP=2.11D-03 DE=-5.37D-05 OVMax= 4.83D-03

 Cycle  15  Pass 1  IDiag  1:
 E= -2023.29440354595     Delta-E=       -0.000043276563 Rises=F Damp=F
 DIIS: error= 6.00D-04 at cycle  15 NSaved=  15.
 NSaved=15 IEnMin=15 EnMin= -2023.29440354595     IErMin=15 ErrMin= 6.00D-04
 ErrMax= 6.00D-04  0.00D+00 EMaxC= 1.00D+00 BMatC= 2.22D-05 BMatP= 2.60D-05
 IDIUse=1 WtCom= 1.00D+00 WtEn= 0.00D+00
 Coeff-Com:  0.360D-02 0.723D-02-0.109D+00 0.256D+00-0.176D+00 0.407D+00
 Coeff-Com: -0.774D+00-0.446D+00 0.128D+01 0.728D+00-0.102D+00-0.319D+01
 Coeff-Com:  0.770D+00 0.200D+00 0.215D+01
 Coeff:      0.360D-02 0.723D-02-0.109D+00 0.256D+00-0.176D+00 0.407D+00
 Coeff:     -0.774D+00-0.446D+00 0.128D+01 0.728D+00-0.102D+00-0.319D+01
 Coeff:      0.770D+00 0.200D+00 0.215D+01
 Gap=     0.241 Goal=   None    Shift=    0.500
 Gap=     0.104 Goal=   None    Shift=    0.500
 RMSDP=1.51D-05 MaxDP=1.70D-03 DE=-4.33D-05 OVMax= 4.76D-03

 Cycle  16  Pass 1  IDiag  1:
 E= -2023.29444060265     Delta-E=       -0.000037056693 Rises=F Damp=F
 DIIS: error= 5.73D-04 at cycle  16 NSaved=  16.
 NSaved=16 IEnMin=16 EnMin= -2023.29444060265     IErMin=16 ErrMin= 5.73D-04
 ErrMax= 5.73D-04  0.00D+00 EMaxC= 1.00D+00 BMatC= 1.83D-05 BMatP= 2.22D-05
 IDIUse=1 WtCom= 1.00D+00 WtEn= 0.00D+00
 Coeff-Com:  0.719D-03-0.840D-02 0.237D-01 0.146D-01-0.445D-01 0.224D+00
 Coeff-Com: -0.274D+00-0.452D+00 0.672D+00-0.108D+00 0.584D+00-0.596D+00
 Coeff-Com:  0.207D+00-0.173D+01-0.576D+00 0.306D+01
 Coeff:      0.719D-03-0.840D-02 0.237D-01 0.146D-01-0.445D-01 0.224D+00
 Coeff:     -0.274D+00-0.452D+00 0.672D+00-0.108D+00 0.584D+00-0.596D+00
 Coeff:      0.207D+00-0.173D+01-0.576D+00 0.306D+01
 Gap=     0.242 Goal=   None    Shift=    0.500
 Gap=     0.104 Goal=   None    Shift=    0.500
 RMSDP=1.33D-05 MaxDP=1.39D-03 DE=-3.71D-05 OVMax= 4.64D-03

 Cycle  17  Pass 1  IDiag  1:
 E= -2023.29447249819     Delta-E=       -0.000031895543 Rises=F Damp=F
 DIIS: error= 5.49D-04 at cycle  17 NSaved=  17.
 NSaved=17 IEnMin=17 EnMin= -2023.29447249819     IErMin=17 ErrMin= 5.49D-04
 ErrMax= 5.49D-04  0.00D+00 EMaxC= 1.00D+00 BMatC= 1.52D-05 BMatP= 1.83D-05
 IDIUse=1 WtCom= 1.00D+00 WtEn= 0.00D+00
 Coeff-Com: -0.195D-02-0.728D-02 0.797D-01-0.123D+00 0.443D-01-0.697D-01
 Coeff-Com:  0.275D+00-0.146D+00-0.202D-01-0.716D+00 0.566D-01 0.190D+01
 Coeff-Com:  0.349D+00-0.177D+01-0.310D+01 0.202D+01 0.224D+01
 Coeff:     -0.195D-02-0.728D-02 0.797D-01-0.123D+00 0.443D-01-0.697D-01
 Coeff:      0.275D+00-0.146D+00-0.202D-01-0.716D+00 0.566D-01 0.190D+01
 Coeff:      0.349D+00-0.177D+01-0.310D+01 0.202D+01 0.224D+01
 Gap=     0.242 Goal=   None    Shift=    0.500
 Gap=     0.104 Goal=   None    Shift=    0.500
 RMSDP=1.23D-05 MaxDP=1.35D-03 DE=-3.19D-05 OVMax= 4.55D-03

 Cycle  18  Pass 1  IDiag  1:
 E= -2023.29450076496     Delta-E=       -0.000028266768 Rises=F Damp=F
 DIIS: error= 5.23D-04 at cycle  18 NSaved=  18.
 NSaved=18 IEnMin=18 EnMin= -2023.29450076496     IErMin=18 ErrMin= 5.23D-04
 ErrMax= 5.23D-04  0.00D+00 EMaxC= 1.00D+00 BMatC= 1.29D-05 BMatP= 1.52D-05
 IDIUse=1 WtCom= 1.00D+00 WtEn= 0.00D+00
 Coeff-Com: -0.139D-02 0.491D-02 0.134D-01-0.387D-01 0.197D-01-0.160D+00
 Coeff-Com:  0.282D+00 0.138D+00-0.647D-01-0.505D+00-0.841D+00 0.170D+01
 Coeff-Com:  0.716D+00-0.361D+00-0.233D+01-0.305D+00 0.804D-01 0.265D+01
 Coeff:     -0.139D-02 0.491D-02 0.134D-01-0.387D-01 0.197D-01-0.160D+00
 Coeff:      0.282D+00 0.138D+00-0.647D-01-0.505D+00-0.841D+00 0.170D+01
 Coeff:      0.716D+00-0.361D+00-0.233D+01-0.305D+00 0.804D-01 0.265D+01
 Gap=     0.242 Goal=   None    Shift=    0.500
 Gap=     0.104 Goal=   None    Shift=    0.500
 RMSDP=1.19D-05 MaxDP=1.25D-03 DE=-2.83D-05 OVMax= 4.56D-03

 Cycle  19  Pass 1  IDiag  1:
 E= -2023.29452679299     Delta-E=       -0.000026028029 Rises=F Damp=F
 DIIS: error= 4.99D-04 at cycle  19 NSaved=  19.
 NSaved=19 IEnMin=19 EnMin= -2023.29452679299     IErMin=19 ErrMin= 4.99D-04
 ErrMax= 4.99D-04  0.00D+00 EMaxC= 1.00D+00 BMatC= 1.15D-05 BMatP= 1.29D-05
 IDIUse=1 WtCom= 1.00D+00 WtEn= 0.00D+00
 Coeff-Com:  0.275D-02 0.611D-02-0.800D-01 0.169D+00-0.106D+00-0.248D-01
 Coeff-Com: -0.925D-01 0.946D-01 0.457D+00 0.871D-01-0.119D+01-0.340D+00
 Coeff-Com:  0.111D+01 0.905D+00 0.280D+00-0.184D+01-0.231D+01 0.141D+01
 Coeff-Com:  0.245D+01
 Coeff:      0.275D-02 0.611D-02-0.800D-01 0.169D+00-0.106D+00-0.248D-01
 Coeff:     -0.925D-01 0.946D-01 0.457D+00 0.871D-01-0.119D+01-0.340D+00
 Coeff:      0.111D+01 0.905D+00 0.280D+00-0.184D+01-0.231D+01 0.141D+01
 Coeff:      0.245D+01
 Gap=     0.242 Goal=   None    Shift=    0.500
 Gap=     0.104 Goal=   None    Shift=    0.500
 RMSDP=1.15D-05 MaxDP=1.19D-03 DE=-2.60D-05 OVMax= 4.54D-03

 Cycle  20  Pass 1  IDiag  1:
 E= -2023.29455077374     Delta-E=       -0.000023980755 Rises=F Damp=F
 DIIS: error= 4.75D-04 at cycle  20 NSaved=  20.
 NSaved=20 IEnMin=20 EnMin= -2023.29455077374     IErMin=20 ErrMin= 4.75D-04
 ErrMax= 4.75D-04  0.00D+00 EMaxC= 1.00D+00 BMatC= 1.04D-05 BMatP= 1.15D-05
 IDIUse=1 WtCom= 1.00D+00 WtEn= 0.00D+00
 Coeff-Com:  0.419D-02-0.265D-02-0.655D-01 0.166D+00-0.113D+00 0.115D+00
 Coeff-Com: -0.287D+00-0.142D+00 0.724D+00 0.175D+00-0.580D+00-0.117D+01
 Coeff-Com:  0.991D+00 0.347D+00 0.103D+01-0.623D+00-0.172D+01-0.798D+00
 Coeff-Com:  0.947D+00 0.200D+01
 Coeff:      0.419D-02-0.265D-02-0.655D-01 0.166D+00-0.113D+00 0.115D+00
 Coeff:     -0.287D+00-0.142D+00 0.724D+00 0.175D+00-0.580D+00-0.117D+01
 Coeff:      0.991D+00 0.347D+00 0.103D+01-0.623D+00-0.172D+01-0.798D+00
 Coeff:      0.947D+00 0.200D+01
 Gap=     0.242 Goal=   None    Shift=    0.500
 Gap=     0.104 Goal=   None    Shift=    0.500
 RMSDP=9.92D-06 MaxDP=9.53D-04 DE=-2.40D-05 OVMax= 4.14D-03

 Cycle  21  Pass 1  IDiag  1:
 E= -2023.29457122633     Delta-E=       -0.000020452590 Rises=F Damp=F
 DIIS: error= 4.51D-04 at cycle  21 NSaved=  20.
 NSaved=20 IEnMin=20 EnMin= -2023.29457122633     IErMin=20 ErrMin= 4.51D-04
 ErrMax= 4.51D-04  0.00D+00 EMaxC= 1.00D+00 BMatC= 8.95D-06 BMatP= 1.04D-05
 IDIUse=1 WtCom= 1.00D+00 WtEn= 0.00D+00
 Coeff-Com: -0.601D-02 0.389D-01-0.883D-01 0.621D-01 0.110D+00-0.125D+00
 Coeff-Com: -0.264D+00 0.320D+00-0.189D+00 0.530D+00-0.709D-01 0.157D-01
 Coeff-Com: -0.134D+01-0.365D+00 0.225D+01 0.113D+01-0.238D+01-0.199D+01
 Coeff-Com: -0.639D+00 0.400D+01
 Coeff:     -0.601D-02 0.389D-01-0.883D-01 0.621D-01 0.110D+00-0.125D+00
 Coeff:     -0.264D+00 0.320D+00-0.189D+00 0.530D+00-0.709D-01 0.157D-01
 Coeff:     -0.134D+01-0.365D+00 0.225D+01 0.113D+01-0.238D+01-0.199D+01
 Coeff:     -0.639D+00 0.400D+01
 Gap=     0.242 Goal=   None    Shift=    0.500
 Gap=     0.104 Goal=   None    Shift=    0.500
 RMSDP=1.32D-05 MaxDP=1.49D-03 DE=-2.05D-05 OVMax= 4.85D-03

 Cycle  22  Pass 1  IDiag  1:
 E= -2023.29459253256     Delta-E=       -0.000021306230 Rises=F Damp=F
 DIIS: error= 4.30D-04 at cycle  22 NSaved=  20.
 NSaved=20 IEnMin=20 EnMin= -2023.29459253256     IErMin=20 ErrMin= 4.30D-04
 ErrMax= 4.30D-04  0.00D+00 EMaxC= 1.00D+00 BMatC= 1.06D-05 BMatP= 8.95D-06
 IDIUse=1 WtCom= 1.00D+00 WtEn= 0.00D+00
 Coeff-Com:  0.196D-01-0.771D-01 0.671D-01 0.125D+00-0.164D+00-0.271D+00
 Coeff-Com:  0.364D+00-0.123D+00 0.415D+00-0.111D+00 0.588D-01-0.124D+01
 Coeff-Com: -0.370D+00 0.214D+01 0.107D+01-0.221D+01-0.193D+01-0.820D+00
 Coeff-Com:  0.398D+01 0.737D-01
 Coeff:      0.196D-01-0.771D-01 0.671D-01 0.125D+00-0.164D+00-0.271D+00
 Coeff:      0.364D+00-0.123D+00 0.415D+00-0.111D+00 0.588D-01-0.124D+01
 Coeff:     -0.370D+00 0.214D+01 0.107D+01-0.221D+01-0.193D+01-0.820D+00
 Coeff:      0.398D+01 0.737D-01
 Gap=     0.242 Goal=   None    Shift=    0.500
 Gap=     0.104 Goal=   None    Shift=    0.500
 RMSDP=9.26D-06 MaxDP=8.14D-04 DE=-2.13D-05 OVMax= 4.03D-03

 Cycle  23  Pass 1  IDiag  1:
 E= -2023.29460952852     Delta-E=       -0.000016995957 Rises=F Damp=F
 DIIS: error= 4.07D-04 at cycle  23 NSaved=  20.
 NSaved=20 IEnMin=20 EnMin= -2023.29460952852     IErMin=20 ErrMin= 4.07D-04
 ErrMax= 4.07D-04  0.00D+00 EMaxC= 1.00D+00 BMatC= 9.08D-06 BMatP= 8.95D-06
 IDIUse=1 WtCom= 1.00D+00 WtEn= 0.00D+00
 Coeff-Com: -0.321D-01 0.426D-01-0.755D-01 0.129D+00 0.713D-01-0.220D+00
 Coeff-Com: -0.132D+00 0.351D-01 0.720D+00-0.150D+00-0.171D+00-0.129D+01
 Coeff-Com:  0.609D+00 0.546D+00 0.586D+00-0.177D+00-0.260D+01 0.282D+01
 Coeff-Com: -0.597D+01 0.625D+01
 Coeff:     -0.321D-01 0.426D-01-0.755D-01 0.129D+00 0.713D-01-0.220D+00
 Coeff:     -0.132D+00 0.351D-01 0.720D+00-0.150D+00-0.171D+00-0.129D+01
 Coeff:      0.609D+00 0.546D+00 0.586D+00-0.177D+00-0.260D+01 0.282D+01
 Coeff:     -0.597D+01 0.625D+01
 Gap=     0.242 Goal=   None    Shift=    0.500
 Gap=     0.104 Goal=   None    Shift=    0.500
 RMSDP=1.41D-05 MaxDP=1.39D-03 DE=-1.70D-05 OVMax= 5.29D-03

 Cycle  24  Pass 1  IDiag  1:
 E= -2023.29462837147     Delta-E=       -0.000018842954 Rises=F Damp=F
 DIIS: error= 3.86D-04 at cycle  24 NSaved=  20.
 NSaved=20 IEnMin=20 EnMin= -2023.29462837147     IErMin=20 ErrMin= 3.86D-04
 ErrMax= 3.86D-04  0.00D+00 EMaxC= 1.00D+00 BMatC= 1.29D-05 BMatP= 8.95D-06
 IDIUse=1 WtCom= 1.00D+00 WtEn= 0.00D+00
 Coeff-Com: -0.165D-03-0.626D-01 0.953D-01 0.853D-01-0.138D+00-0.712D-01
 Coeff-Com: -0.206D+00 0.591D+00 0.482D-01 0.102D+00-0.907D+00 0.232D-01
 Coeff-Com: -0.125D+00 0.969D+00 0.410D+00-0.136D+01 0.210D+01-0.903D+01
 Coeff-Com:  0.745D+01 0.102D+01
 Coeff:     -0.165D-03-0.626D-01 0.953D-01 0.853D-01-0.138D+00-0.712D-01
 Coeff:     -0.206D+00 0.591D+00 0.482D-01 0.102D+00-0.907D+00 0.232D-01
 Coeff:     -0.125D+00 0.969D+00 0.410D+00-0.136D+01 0.210D+01-0.903D+01
 Coeff:      0.745D+01 0.102D+01
 Gap=     0.242 Goal=   None    Shift=    0.500
 Gap=     0.104 Goal=   None    Shift=    0.500
 RMSDP=1.18D-05 MaxDP=1.09D-03 DE=-1.88D-05 OVMax= 4.94D-03

 Cycle  25  Pass 1  IDiag  1:
 E= -2023.29464499746     Delta-E=       -0.000016625988 Rises=F Damp=F
 DIIS: error= 3.61D-04 at cycle  25 NSaved=  20.
 NSaved=20 IEnMin=20 EnMin= -2023.29464499746     IErMin=20 ErrMin= 3.61D-04
 ErrMax= 3.61D-04  0.00D+00 EMaxC= 1.00D+00 BMatC= 1.25D-05 BMatP= 8.95D-06
 IDIUse=1 WtCom= 1.00D+00 WtEn= 0.00D+00
 Coeff-Com: -0.228D-01 0.272D-01 0.313D-01-0.144D-01-0.219D-01-0.261D+00
 Coeff-Com:  0.410D+00 0.140D+00-0.133D-01-0.585D+00 0.116D+00-0.251D+00
 Coeff-Com:  0.635D+00 0.241D+00-0.689D+00 0.200D+01-0.832D+01 0.656D+01
 Coeff-Com: -0.184D+00 0.120D+01
 Coeff:     -0.228D-01 0.272D-01 0.313D-01-0.144D-01-0.219D-01-0.261D+00
 Coeff:      0.410D+00 0.140D+00-0.133D-01-0.585D+00 0.116D+00-0.251D+00
 Coeff:      0.635D+00 0.241D+00-0.689D+00 0.200D+01-0.832D+01 0.656D+01
 Coeff:     -0.184D+00 0.120D+01
 Gap=     0.242 Goal=   None    Shift=    0.500
 Gap=     0.104 Goal=   None    Shift=    0.500
 RMSDP=9.65D-06 MaxDP=8.69D-04 DE=-1.66D-05 OVMax= 4.36D-03

 Cycle  26  Pass 1  IDiag  1:
 E= -2023.29465873284     Delta-E=       -0.000013735380 Rises=F Damp=F
 DIIS: error= 3.35D-04 at cycle  26 NSaved=  20.
 NSaved=20 IEnMin=20 EnMin= -2023.29465873284     IErMin=20 ErrMin= 3.35D-04
 ErrMax= 3.35D-04  0.00D+00 EMaxC= 1.00D+00 BMatC= 1.04D-05 BMatP= 8.95D-06
 IDIUse=1 WtCom= 1.00D+00 WtEn= 0.00D+00
 Coeff-Com:  0.269D-01-0.855D-01 0.363D-01 0.120D-01 0.597D-01 0.257D-01
 Coeff-Com:  0.151D+00-0.270D+00-0.541D+00 0.519D+00 0.619D+00-0.598D+00
 Coeff-Com: -0.440D+00 0.201D+00 0.750D+00-0.159D+00 0.232D+00-0.489D+00
 Coeff-Com: -0.624D+01 0.720D+01
 Coeff:      0.269D-01-0.855D-01 0.363D-01 0.120D-01 0.597D-01 0.257D-01
 Coeff:      0.151D+00-0.270D+00-0.541D+00 0.519D+00 0.619D+00-0.598D+00
 Coeff:     -0.440D+00 0.201D+00 0.750D+00-0.159D+00 0.232D+00-0.489D+00
 Coeff:     -0.624D+01 0.720D+01
 Gap=     0.242 Goal=   None    Shift=    0.500
 Gap=     0.103 Goal=   None    Shift=    0.500
 RMSDP=1.16D-05 MaxDP=1.10D-03 DE=-1.37D-05 OVMax= 4.89D-03

 Cycle  27  Pass 1  IDiag  1:
 E= -2023.29467116322     Delta-E=       -0.000012430375 Rises=F Damp=F
 DIIS: error= 3.16D-04 at cycle  27 NSaved=  20.
 NSaved=20 IEnMin=20 EnMin= -2023.29467116322     IErMin=20 ErrMin= 3.16D-04
 ErrMax= 3.16D-04  0.00D+00 EMaxC= 1.00D+00 BMatC= 1.23D-05 BMatP= 8.95D-06
 IDIUse=1 WtCom= 1.00D+00 WtEn= 0.00D+00
 Coeff-Com: -0.461D-01 0.165D-01 0.751D-01 0.149D+00-0.208D+00-0.382D-01
 Coeff-Com: -0.674D-01-0.250D+00 0.415D+00 0.514D+00-0.471D+00-0.526D+00
 Coeff-Com: -0.615D+00 0.144D+01 0.642D+00-0.104D+00 0.613D+00-0.901D+01
 Coeff-Com:  0.704D+01 0.143D+01
 Coeff:     -0.461D-01 0.165D-01 0.751D-01 0.149D+00-0.208D+00-0.382D-01
 Coeff:     -0.674D-01-0.250D+00 0.415D+00 0.514D+00-0.471D+00-0.526D+00
 Coeff:     -0.615D+00 0.144D+01 0.642D+00-0.104D+00 0.613D+00-0.901D+01
 Coeff:      0.704D+01 0.143D+01
 Gap=     0.242 Goal=   None    Shift=    0.500
 Gap=     0.103 Goal=   None    Shift=    0.500
 RMSDP=9.65D-06 MaxDP=9.53D-04 DE=-1.24D-05 OVMax= 4.47D-03

 Cycle  28  Pass 1  IDiag  1:
 E= -2023.29468176102     Delta-E=       -0.000010597805 Rises=F Damp=F
 DIIS: error= 2.93D-04 at cycle  28 NSaved=  20.
 NSaved=20 IEnMin=20 EnMin= -2023.29468176102     IErMin=20 ErrMin= 2.93D-04
 ErrMax= 2.93D-04  0.00D+00 EMaxC= 1.00D+00 BMatC= 1.18D-05 BMatP= 8.95D-06
 IDIUse=1 WtCom= 1.00D+00 WtEn= 0.00D+00
 Coeff-Com: -0.779D-01 0.947D-01 0.756D-01 0.786D-01-0.251D+00 0.123D+00
 Coeff-Com: -0.379D+00 0.379D+00 0.169D+00 0.118D+00-0.346D+00-0.196D+01
 Coeff-Com:  0.245D+01-0.101D+01 0.172D+01 0.186D+01-0.836D+01 0.435D+01
 Coeff-Com: -0.419D+00 0.238D+01
 Coeff:     -0.779D-01 0.947D-01 0.756D-01 0.786D-01-0.251D+00 0.123D+00
 Coeff:     -0.379D+00 0.379D+00 0.169D+00 0.118D+00-0.346D+00-0.196D+01
 Coeff:      0.245D+01-0.101D+01 0.172D+01 0.186D+01-0.836D+01 0.435D+01
 Coeff:     -0.419D+00 0.238D+01
 Gap=     0.243 Goal=   None    Shift=    0.500
 Gap=     0.103 Goal=   None    Shift=    0.500
 RMSDP=8.11D-06 MaxDP=8.40D-04 DE=-1.06D-05 OVMax= 4.05D-03

 Cycle  29  Pass 1  IDiag  1:
 E= -2023.29469065225     Delta-E=       -0.000008891233 Rises=F Damp=F
 DIIS: error= 2.70D-04 at cycle  29 NSaved=  20.
 NSaved=20 IEnMin=20 EnMin= -2023.29469065225     IErMin=20 ErrMin= 2.70D-04
 ErrMax= 2.70D-04  0.00D+00 EMaxC= 1.00D+00 BMatC= 1.00D-05 BMatP= 8.95D-06
 IDIUse=1 WtCom= 1.00D+00 WtEn= 0.00D+00
 Coeff-Com:  0.441D-02-0.593D-01 0.225D+00-0.117D+00-0.110D+00-0.261D+00
 Coeff-Com:  0.532D+00-0.771D-01 0.240D-01-0.414D+00-0.132D+01 0.208D+01
 Coeff-Com: -0.119D+01 0.163D+01 0.848D+00-0.458D+01 0.258D+01-0.137D+01
 Coeff-Com:  0.557D+00 0.202D+01
 Coeff:      0.441D-02-0.593D-01 0.225D+00-0.117D+00-0.110D+00-0.261D+00
 Coeff:      0.532D+00-0.771D-01 0.240D-01-0.414D+00-0.132D+01 0.208D+01
 Coeff:     -0.119D+01 0.163D+01 0.848D+00-0.458D+01 0.258D+01-0.137D+01
 Coeff:      0.557D+00 0.202D+01
 Gap=     0.243 Goal=   None    Shift=    0.500
 Gap=     0.103 Goal=   None    Shift=    0.500
 RMSDP=6.91D-06 MaxDP=6.48D-04 DE=-8.89D-06 OVMax= 3.63D-03

 Cycle  30  Pass 1  IDiag  1:
 E= -2023.29469792808     Delta-E=       -0.000007275828 Rises=F Damp=F
 DIIS: error= 2.49D-04 at cycle  30 NSaved=  20.
 NSaved=20 IEnMin=20 EnMin= -2023.29469792808     IErMin=20 ErrMin= 2.49D-04
 ErrMax= 2.49D-04  0.00D+00 EMaxC= 1.00D+00 BMatC= 8.07D-06 BMatP= 8.95D-06
 IDIUse=1 WtCom= 1.00D+00 WtEn= 0.00D+00
 Coeff-Com:  0.442D-01-0.171D-01-0.270D-01-0.127D-01-0.217D+00 0.237D+00
 Coeff-Com:  0.168D+00 0.129D+00-0.392D+00-0.906D+00 0.903D+00-0.593D+00
 Coeff-Com:  0.106D+01 0.101D+00-0.117D+01 0.159D+01-0.805D+00-0.183D+01
 Coeff-Com: -0.981D+00 0.372D+01
 Coeff:      0.442D-01-0.171D-01-0.270D-01-0.127D-01-0.217D+00 0.237D+00
 Coeff:      0.168D+00 0.129D+00-0.392D+00-0.906D+00 0.903D+00-0.593D+00
 Coeff:      0.106D+01 0.101D+00-0.117D+01 0.159D+01-0.805D+00-0.183D+01
 Coeff:     -0.981D+00 0.372D+01
 Gap=     0.243 Goal=   None    Shift=    0.500
 Gap=     0.103 Goal=   None    Shift=    0.500
 RMSDP=6.89D-06 MaxDP=5.75D-04 DE=-7.28D-06 OVMax= 3.58D-03

 Cycle  31  Pass 1  IDiag  1:
 E= -2023.29470398787     Delta-E=       -0.000006059786 Rises=F Damp=F
 DIIS: error= 2.30D-04 at cycle  31 NSaved=  20.
 NSaved=20 IEnMin=20 EnMin= -2023.29470398787     IErMin=20 ErrMin= 2.30D-04
 ErrMax= 2.30D-04  0.00D+00 EMaxC= 1.00D+00 BMatC= 7.14D-06 BMatP= 8.07D-06
 IDIUse=1 WtCom= 1.00D+00 WtEn= 0.00D+00
 Coeff-Com: -0.925D-02 0.122D+00-0.797D-01-0.281D+00 0.145D+00 0.324D+00
 Coeff-Com: -0.760D-01-0.262D+00-0.146D+00-0.116D+00 0.759D+00-0.267D+00
 Coeff-Com: -0.506D+00-0.145D+01 0.331D+01 0.266D+00-0.214D+01-0.330D+01
 Coeff-Com:  0.267D+01 0.204D+01
 Coeff:     -0.925D-02 0.122D+00-0.797D-01-0.281D+00 0.145D+00 0.324D+00
 Coeff:     -0.760D-01-0.262D+00-0.146D+00-0.116D+00 0.759D+00-0.267D+00
 Coeff:     -0.506D+00-0.145D+01 0.331D+01 0.266D+00-0.214D+01-0.330D+01
 Coeff:      0.267D+01 0.204D+01
 Gap=     0.243 Goal=   None    Shift=    0.500
 Gap=     0.103 Goal=   None    Shift=    0.500
 RMSDP=5.67D-06 MaxDP=4.92D-04 DE=-6.06D-06 OVMax= 3.14D-03

 Cycle  32  Pass 1  IDiag  1:
 E= -2023.29470897219     Delta-E=       -0.000004984321 Rises=F Damp=F
 DIIS: error= 2.11D-04 at cycle  32 NSaved=  20.
 NSaved=20 IEnMin=20 EnMin= -2023.29470897219     IErMin=20 ErrMin= 2.11D-04
 ErrMax= 2.11D-04  0.00D+00 EMaxC= 1.00D+00 BMatC= 5.62D-06 BMatP= 7.14D-06
 IDIUse=1 WtCom= 1.00D+00 WtEn= 0.00D+00
 Coeff-Com:  0.787D-01-0.660D-01-0.251D+00 0.245D+00 0.234D+00-0.251D+00
 Coeff-Com: -0.173D+00 0.854D-01-0.417D+00 0.222D+01-0.159D+01-0.783D-01
 Coeff-Com: -0.405D+01 0.504D+01 0.803D+00-0.413D+00-0.342D+01 0.228D+00
 Coeff-Com: -0.148D+00 0.293D+01
 Coeff:      0.787D-01-0.660D-01-0.251D+00 0.245D+00 0.234D+00-0.251D+00
 Coeff:     -0.173D+00 0.854D-01-0.417D+00 0.222D+01-0.159D+01-0.783D-01
 Coeff:     -0.405D+01 0.504D+01 0.803D+00-0.413D+00-0.342D+01 0.228D+00
 Coeff:     -0.148D+00 0.293D+01
 Gap=     0.243 Goal=   None    Shift=    0.500
 Gap=     0.103 Goal=   None    Shift=    0.500
 RMSDP=5.63D-06 MaxDP=4.07D-04 DE=-4.98D-06 OVMax= 3.00D-03

 >>>>>>>>>> Convergence criterion not met.
 SCF Done:  E(ULC-wHPBE) =  -2023.29470897     A.U. after   33 cycles
            NFock= 32  Conv=0.56D-05     -V/T= 2.0033
 <Sx>= 0.0000 <Sy>= 0.0000 <Sz>= 0.5000 <S**2>= 0.7585 S= 0.5042
 <L.S>= 0.000000000000E+00
 KE= 2.016625041126D+03 PE=-1.122608924721D+04 EE= 3.907222392566D+03
 Annihilation of the first spin contaminant:
 S**2 before annihilation     0.7585,   after     0.7501
 Leave Link  502 at Wed Jan 27 09:31:39 2021, MaxMem=  4026531840 cpu:           22291.9 elap:            2821.8
 (Enter /opt/ohpc/pub/libs/gaussian/g16-A.03/sandybridge/g16/l508.exe)
 Integral symmetry usage will be decided dynamically.
 Tight linear equation convergence will be used.
 ULC-wHPBE wavefunction.
 Quadratic Convergence SCF Method.
 Line search only if initial step raises energy.
 FoFJK:  IHMeth= 1 ICntrl=       0 DoSepK=T KAlg= 0 I1Cent=           0 FoldK=F
 IRaf=         1 NMat=       1 IRICut=       1 DoRegI=T DoRafI=F ISym2E= 1 IDoP0=0 IntGTp=1.
 FoFCou: FMM=T IPFlag=           0 FMFlag=      100000 FMFlg1=        2001
         NFxFlg=           0 DoJE=T BraDBF=F KetDBF=F FulRan=T
         wScrn=  0.000000 ICntrl=       500 IOpCl=  0 I1Cent=           0 NGrid=           0
         NMat0=    1 NMatS0=      1 NMatT0=    0 NMatD0=    1 NMtDS0=    0 NMtDT0=    0
 Petite list used in FoFCou.
 FMM levels:  10  Number of levels for PrismC:   9
 Iteration   1 EE= -2023.29471307991                                    Grad=1.564D-03 Max rot=    0.0329 deg.
 QCNR:  CnvC1=1.56D-08 CnvC2=1.56D-07
 LinEq1:  Iter=  0 NonCon=     1 RMS=1.63D-05 Max=5.60D-03 NDo=     1
 AX will form     1 AO Fock derivatives at one time.
 LinEq1:  Iter=  1 NonCon=     1 RMS=9.62D-06 Max=1.46D-03 NDo=     1
 LinEq1:  Iter=  2 NonCon=     1 RMS=4.58D-06 Max=6.68D-04 NDo=     1
 LinEq1:  Iter=  3 NonCon=     1 RMS=4.34D-06 Max=8.48D-04 NDo=     1
 LinEq1:  Iter=  4 NonCon=     1 RMS=2.09D-06 Max=2.32D-04 NDo=     1
 LinEq1:  Iter=  5 NonCon=     1 RMS=1.42D-06 Max=1.48D-04 NDo=     1
 LinEq1:  Iter=  6 NonCon=     1 RMS=8.34D-07 Max=9.44D-05 NDo=     1
 LinEq1:  Iter=  7 NonCon=     1 RMS=5.92D-07 Max=9.27D-05 NDo=     1
 LinEq1:  Iter=  8 NonCon=     1 RMS=4.37D-07 Max=6.40D-05 NDo=     1
 LinEq1:  Iter=  9 NonCon=     1 RMS=3.25D-07 Max=4.72D-05 NDo=     1
 LinEq1:  Iter= 10 NonCon=     1 RMS=1.78D-07 Max=2.34D-05 NDo=     1
 LinEq1:  Iter= 11 NonCon=     1 RMS=1.12D-07 Max=1.56D-05 NDo=     1
 LinEq1:  Iter= 12 NonCon=     1 RMS=6.27D-08 Max=4.74D-06 NDo=     1
 LinEq1:  Iter= 13 NonCon=     1 RMS=4.04D-08 Max=4.01D-06 NDo=     1
 LinEq1:  Iter= 14 NonCon=     1 RMS=2.10D-08 Max=1.43D-06 NDo=     1
 LinEq1:  Iter= 15 NonCon=     1 RMS=1.40D-08 Max=1.07D-06 NDo=     1
 LinEq1:  Iter= 16 NonCon=     1 RMS=9.01D-09 Max=7.96D-07 NDo=     1
 LinEq1:  Iter= 17 NonCon=     1 RMS=6.16D-09 Max=5.13D-07 NDo=     1
 LinEq1:  Iter= 18 NonCon=     1 RMS=3.90D-09 Max=3.65D-07 NDo=     1
 LinEq1:  Iter= 19 NonCon=     1 RMS=2.70D-09 Max=2.79D-07 NDo=     1
 LinEq1:  Iter= 20 NonCon=     1 RMS=1.96D-09 Max=2.37D-07 NDo=     1
 LinEq1:  Iter= 21 NonCon=     1 RMS=1.10D-09 Max=1.61D-07 NDo=     1
 LinEq1:  Iter= 22 NonCon=     0 RMS=6.52D-10 Max=6.86D-08 NDo=     1
 Linear equations converged to 1.564D-08 1.564D-07 after    22 iterations.
 Angle between quadratic step and gradient=  68.89 degrees.
     ILin= 1 X=0.000D+00 Y=-2.023294713080D+03 DE= 0.00D+00 F= -4.33D-05
     ILin= 2 X=1.000D+00 Y=-2.023294734312D+03 DE=-2.12D-05
 Iteration   2 EE= -2023.29473431217     Delta-E=       -0.000021232255 Grad=2.908D-04 Max rot=    0.0020 deg.
 Rotation gradient small -- convergence achieved.
 SCF Done:  E(ULC-wHPBE) =  -2023.29473431     a.u. after    2 cycles
            Convg  =    0.2908D-03                    24 Fock formations.
              S**2 =  0.7586                  -V/T =  2.0033
 <Sx>= 0.0000 <Sy>= 0.0000 <Sz>= 0.5000 <S**2>= 0.7586 S= 0.5043
 <L.S>= 0.000000000000E+00
 Annihilation of the first spin contaminant:
 S**2 before annihilation     0.7586,   after     0.7501
 Leave Link  508 at Wed Jan 27 09:59:42 2021, MaxMem=  4026531840 cpu:           13250.1 elap:            1683.2
 (Enter /opt/ohpc/pub/libs/gaussian/g16-A.03/sandybridge/g16/l601.exe)
 Copying SCF densities to generalized density rwf, IOpCl= 1 IROHF=0.

 **********************************************************************

            Population analysis using the SCF density.

 **********************************************************************

 Orbital symmetries:
 Alpha Orbitals:
       Occupied  (A) (A) (A) (A) (A) (A) (A) (A) (A) (A) (A) (A)
                 (A) (A) (A) (A) (A) (A) (A) (A) (A) (A) (A) (A)
                 (A) (A) (A) (A) (A) (A) (A) (A) (A) (A) (A) (A)
                 (A) (A) (A) (A) (A) (A) (A) (A) (A) (A) (A) (A)
                 (A) (A) (A) (A) (A) (A) (A) (A) (A) (A) (A) (A)
                 (A) (A) (A) (A) (A) (A) (A) (A) (A) (A) (A) (A)
                 (A) (A) (A) (A) (A) (A) (A) (A) (A) (A) (A) (A)
                 (A) (A) (A) (A) (A) (A) (A) (A) (A) (A) (A) (A)
                 (A) (A) (A) (A) (A) (A) (A) (A) (A) (A) (A) (A)
                 (A) (A) (A) (A) (A) (A) (A) (A) (A) (A) (A) (A)
                 (A) (A) (A)
       Virtual   (A) (A) (A) (A) (A) (A) (A) (A) (A) (A) (A) (A)
                 (A) (A) (A) (A) (A) (A) (A) (A) (A) (A) (A) (A)
                 (A) (A) (A) (A) (A) (A) (A) (A) (A) (A) (A) (A)
                 (A) (A) (A) (A) (A) (A) (A) (A) (A) (A) (A) (A)
                 (A) (A) (A) (A) (A) (A) (A) (A) (A) (A) (A) (A)
                 (A) (A) (A) (A) (A) (A) (A) (A) (A) (A) (A) (A)
                 (A) (A) (A) (A) (A) (A) (A) (A) (A) (A) (A) (A)
                 (A) (A) (A) (A) (A) (A) (A) (A) (A) (A) (A) (A)
                 (A) (A) (A) (A) (A) (A) (A) (A) (A) (A) (A) (A)
                 (A) (A) (A) (A) (A) (A) (A) (A) (A) (A) (A) (A)
                 (A) (A) (A) (A) (A) (A) (A) (A) (A) (A) (A) (A)
                 (A) (A) (A) (A) (A) (A) (A) (A) (A) (A) (A) (A)
                 (A) (A) (A) (A) (A) (A) (A) (A) (A) (A) (A) (A)
                 (A) (A) (A) (A) (A) (A) (A) (A) (A) (A) (A) (A)
                 (A) (A) (A) (A) (A) (A) (A) (A) (A) (A) (A) (A)
                 (A) (A) (A) (A) (A) (A) (A) (A) (A) (A) (A) (A)
                 (A) (A) (A) (A) (A) (A) (A) (A) (A) (A) (A) (A)
                 (A) (A) (A) (A) (A) (A) (A) (A) (A) (A) (A) (A)
                 (A) (A) (A) (A) (A) (A) (A) (A) (A) (A) (A) (A)
                 (A) (A) (A) (A) (A) (A) (A) (A) (A) (A) (A) (A)
                 (A) (A) (A) (A) (A) (A) (A) (A) (A) (A) (A) (A)
                 (A) (A) (A) (A) (A) (A) (A) (A) (A) (A) (A) (A)
                 (A) (A) (A) (A) (A) (A) (A) (A) (A) (A) (A) (A)
                 (A) (A) (A) (A) (A) (A) (A) (A) (A) (A) (A) (A)
                 (A) (A) (A) (A) (A) (A) (A) (A) (A) (A) (A) (A)
                 (A) (A) (A) (A) (A) (A) (A) (A) (A) (A) (A) (A)
                 (A) (A) (A) (A) (A) (A) (A) (A) (A) (A) (A) (A)
                 (A) (A) (A) (A) (A) (A) (A) (A) (A) (A) (A) (A)
                 (A) (A) (A) (A) (A) (A) (A) (A) (A) (A) (A) (A)
                 (A) (A) (A) (A) (A) (A) (A) (A) (A) (A) (A) (A)
                 (A) (A) (A) (A) (A) (A) (A) (A) (A) (A) (A) (A)
                 (A) (A) (A) (A) (A) (A) (A) (A) (A) (A) (A) (A)
                 (A) (A) (A) (A) (A) (A) (A) (A) (A) (A) (A) (A)
                 (A) (A) (A) (A) (A) (A) (A) (A) (A) (A) (A) (A)
                 (A) (A) (A) (A) (A) (A) (A) (A) (A) (A) (A) (A)
                 (A) (A) (A) (A) (A) (A) (A) (A) (A) (A) (A) (A)
                 (A) (A) (A) (A) (A) (A) (A) (A) (A) (A) (A) (A)
                 (A) (A) (A) (A) (A) (A) (A) (A) (A) (A) (A) (A)
                 (A) (A) (A) (A) (A) (A) (A) (A) (A) (A) (A) (A)
                 (A) (A) (A) (A) (A) (A) (A) (A) (A) (A) (A) (A)
                 (A) (A) (A) (A) (A) (A) (A) (A) (A) (A) (A) (A)
                 (A) (A) (A) (A) (A) (A) (A) (A) (A) (A) (A) (A)
                 (A) (A) (A) (A) (A) (A) (A) (A) (A) (A) (A) (A)
                 (A) (A) (A) (A) (A) (A) (A) (A) (A) (A) (A) (A)
                 (A) (A) (A) (A) (A) (A) (A) (A) (A) (A) (A) (A)
                 (A) (A) (A) (A) (A) (A) (A) (A) (A) (A) (A) (A)
                 (A) (A) (A) (A) (A) (A) (A) (A) (A) (A) (A) (A)
                 (A) (A) (A) (A) (A) (A) (A) (A) (A) (A) (A) (A)
                 (A) (A) (A) (A) (A) (A) (A) (A) (A) (A) (A) (A)
                 (A) (A) (A) (A) (A) (A) (A) (A) (A) (A) (A) (A)
                 (A) (A) (A) (A) (A) (A) (A) (A) (A) (A) (A) (A)
                 (A) (A) (A) (A) (A) (A) (A) (A) (A) (A) (A) (A)
                 (A) (A) (A) (A) (A) (A) (A) (A) (A) (A) (A) (A)
                 (A) (A) (A) (A) (A) (A) (A) (A) (A) (A) (A) (A)
                 (A) (A) (A) (A) (A) (A) (A) (A) (A) (A) (A) (A)
                 (A) (A) (A) (A) (A) (A) (A) (A) (A) (A) (A) (A)
                 (A) (A) (A) (A) (A) (A) (A) (A) (A) (A) (A)
 Beta  Orbitals:
       Occupied  (A) (A) (A) (A) (A) (A) (A) (A) (A) (A) (A) (A)
                 (A) (A) (A) (A) (A) (A) (A) (A) (A) (A) (A) (A)
                 (A) (A) (A) (A) (A) (A) (A) (A) (A) (A) (A) (A)
                 (A) (A) (A) (A) (A) (A) (A) (A) (A) (A) (A) (A)
                 (A) (A) (A) (A) (A) (A) (A) (A) (A) (A) (A) (A)
                 (A) (A) (A) (A) (A) (A) (A) (A) (A) (A) (A) (A)
                 (A) (A) (A) (A) (A) (A) (A) (A) (A) (A) (A) (A)
                 (A) (A) (A) (A) (A) (A) (A) (A) (A) (A) (A) (A)
                 (A) (A) (A) (A) (A) (A) (A) (A) (A) (A) (A) (A)
                 (A) (A) (A) (A) (A) (A) (A) (A) (A) (A) (A) (A)
                 (A) (A)
       Virtual   (A) (A) (A) (A) (A) (A) (A) (A) (A) (A) (A) (A)
                 (A) (A) (A) (A) (A) (A) (A) (A) (A) (A) (A) (A)
                 (A) (A) (A) (A) (A) (A) (A) (A) (A) (A) (A) (A)
                 (A) (A) (A) (A) (A) (A) (A) (A) (A) (A) (A) (A)
                 (A) (A) (A) (A) (A) (A) (A) (A) (A) (A) (A) (A)
                 (A) (A) (A) (A) (A) (A) (A) (A) (A) (A) (A) (A)
                 (A) (A) (A) (A) (A) (A) (A) (A) (A) (A) (A) (A)
                 (A) (A) (A) (A) (A) (A) (A) (A) (A) (A) (A) (A)
                 (A) (A) (A) (A) (A) (A) (A) (A) (A) (A) (A) (A)
                 (A) (A) (A) (A) (A) (A) (A) (A) (A) (A) (A) (A)
                 (A) (A) (A) (A) (A) (A) (A) (A) (A) (A) (A) (A)
                 (A) (A) (A) (A) (A) (A) (A) (A) (A) (A) (A) (A)
                 (A) (A) (A) (A) (A) (A) (A) (A) (A) (A) (A) (A)
                 (A) (A) (A) (A) (A) (A) (A) (A) (A) (A) (A) (A)
                 (A) (A) (A) (A) (A) (A) (A) (A) (A) (A) (A) (A)
                 (A) (A) (A) (A) (A) (A) (A) (A) (A) (A) (A) (A)
                 (A) (A) (A) (A) (A) (A) (A) (A) (A) (A) (A) (A)
                 (A) (A) (A) (A) (A) (A) (A) (A) (A) (A) (A) (A)
                 (A) (A) (A) (A) (A) (A) (A) (A) (A) (A) (A) (A)
                 (A) (A) (A) (A) (A) (A) (A) (A) (A) (A) (A) (A)
                 (A) (A) (A) (A) (A) (A) (A) (A) (A) (A) (A) (A)
                 (A) (A) (A) (A) (A) (A) (A) (A) (A) (A) (A) (A)
                 (A) (A) (A) (A) (A) (A) (A) (A) (A) (A) (A) (A)
                 (A) (A) (A) (A) (A) (A) (A) (A) (A) (A) (A) (A)
                 (A) (A) (A) (A) (A) (A) (A) (A) (A) (A) (A) (A)
                 (A) (A) (A) (A) (A) (A) (A) (A) (A) (A) (A) (A)
                 (A) (A) (A) (A) (A) (A) (A) (A) (A) (A) (A) (A)
                 (A) (A) (A) (A) (A) (A) (A) (A) (A) (A) (A) (A)
                 (A) (A) (A) (A) (A) (A) (A) (A) (A) (A) (A) (A)
                 (A) (A) (A) (A) (A) (A) (A) (A) (A) (A) (A) (A)
                 (A) (A) (A) (A) (A) (A) (A) (A) (A) (A) (A) (A)
                 (A) (A) (A) (A) (A) (A) (A) (A) (A) (A) (A) (A)
                 (A) (A) (A) (A) (A) (A) (A) (A) (A) (A) (A) (A)
                 (A) (A) (A) (A) (A) (A) (A) (A) (A) (A) (A) (A)
                 (A) (A) (A) (A) (A) (A) (A) (A) (A) (A) (A) (A)
                 (A) (A) (A) (A) (A) (A) (A) (A) (A) (A) (A) (A)
                 (A) (A) (A) (A) (A) (A) (A) (A) (A) (A) (A) (A)
                 (A) (A) (A) (A) (A) (A) (A) (A) (A) (A) (A) (A)
                 (A) (A) (A) (A) (A) (A) (A) (A) (A) (A) (A) (A)
                 (A) (A) (A) (A) (A) (A) (A) (A) (A) (A) (A) (A)
                 (A) (A) (A) (A) (A) (A) (A) (A) (A) (A) (A) (A)
                 (A) (A) (A) (A) (A) (A) (A) (A) (A) (A) (A) (A)
                 (A) (A) (A) (A) (A) (A) (A) (A) (A) (A) (A) (A)
                 (A) (A) (A) (A) (A) (A) (A) (A) (A) (A) (A) (A)
                 (A) (A) (A) (A) (A) (A) (A) (A) (A) (A) (A) (A)
                 (A) (A) (A) (A) (A) (A) (A) (A) (A) (A) (A) (A)
                 (A) (A) (A) (A) (A) (A) (A) (A) (A) (A) (A) (A)
                 (A) (A) (A) (A) (A) (A) (A) (A) (A) (A) (A) (A)
                 (A) (A) (A) (A) (A) (A) (A) (A) (A) (A) (A) (A)
                 (A) (A) (A) (A) (A) (A) (A) (A) (A) (A) (A) (A)
                 (A) (A) (A) (A) (A) (A) (A) (A) (A) (A) (A) (A)
                 (A) (A) (A) (A) (A) (A) (A) (A) (A) (A) (A) (A)
                 (A) (A) (A) (A) (A) (A) (A) (A) (A) (A) (A) (A)
                 (A) (A) (A) (A) (A) (A) (A) (A) (A) (A) (A) (A)
                 (A) (A) (A) (A) (A) (A) (A) (A) (A) (A) (A) (A)
                 (A) (A) (A) (A) (A) (A) (A) (A) (A) (A) (A) (A)
                 (A) (A) (A) (A) (A) (A) (A) (A) (A) (A) (A) (A)
 The electronic state is 2-A.
 Alpha  occ. eigenvalues --  -88.55634 -88.50967 -14.43138 -14.43131 -14.42594
 Alpha  occ. eigenvalues --  -14.42374 -10.35784 -10.35731 -10.35220 -10.35127
 Alpha  occ. eigenvalues --  -10.35109 -10.34736 -10.34418 -10.32511 -10.32075
 Alpha  occ. eigenvalues --  -10.31682 -10.31556 -10.30575 -10.30339 -10.30253
 Alpha  occ. eigenvalues --  -10.30153 -10.30150 -10.29979 -10.28891 -10.28219
 Alpha  occ. eigenvalues --  -10.28171 -10.28168 -10.27570 -10.27566 -10.27539
 Alpha  occ. eigenvalues --  -10.27255 -10.27024  -8.14542  -8.10177  -6.16596
 Alpha  occ. eigenvalues --   -6.16162  -6.16015  -6.12320  -6.11840  -6.11380
 Alpha  occ. eigenvalues --   -1.31468  -1.30900  -1.28424  -1.27850  -1.24237
 Alpha  occ. eigenvalues --   -1.23544  -1.23149  -1.21586  -1.17067  -1.14612
 Alpha  occ. eigenvalues --   -1.11628  -1.10604  -1.07178  -1.06062  -1.04385
 Alpha  occ. eigenvalues --   -1.04109  -1.03961  -1.03474  -1.03311  -1.02835
 Alpha  occ. eigenvalues --   -1.02127  -1.01685  -0.99273  -0.97850  -0.96503
 Alpha  occ. eigenvalues --   -0.94955  -0.90479  -0.90086  -0.87267  -0.86907
 Alpha  occ. eigenvalues --   -0.86823  -0.86547  -0.85230  -0.84764  -0.84182
 Alpha  occ. eigenvalues --   -0.83166  -0.82645  -0.82211  -0.81954  -0.81325
 Alpha  occ. eigenvalues --   -0.81219  -0.80514  -0.79871  -0.79643  -0.79341
 Alpha  occ. eigenvalues --   -0.79106  -0.78596  -0.77880  -0.77044  -0.76257
 Alpha  occ. eigenvalues --   -0.75169  -0.74231  -0.74210  -0.74006  -0.73501
 Alpha  occ. eigenvalues --   -0.73231  -0.73123  -0.72547  -0.72399  -0.72014
 Alpha  occ. eigenvalues --   -0.71822  -0.71797  -0.71663  -0.71475  -0.71341
 Alpha  occ. eigenvalues --   -0.71214  -0.70948  -0.70183  -0.70097  -0.69490
 Alpha  occ. eigenvalues --   -0.69099  -0.68936  -0.68475  -0.68176  -0.67344
 Alpha  occ. eigenvalues --   -0.64160  -0.63436  -0.62987  -0.62435  -0.60962
 Alpha  occ. eigenvalues --   -0.59340  -0.56339  -0.55746
 Alpha virt. eigenvalues --   -0.31214  -0.29535  -0.27909  -0.27146  -0.24159
 Alpha virt. eigenvalues --   -0.22566  -0.21103  -0.20292  -0.20091  -0.19653
 Alpha virt. eigenvalues --   -0.18799  -0.18174  -0.18151  -0.17045  -0.15589
 Alpha virt. eigenvalues --   -0.14917  -0.14561  -0.13473  -0.13315  -0.13157
 Alpha virt. eigenvalues --   -0.12837  -0.12397  -0.12116  -0.12105  -0.12043
 Alpha virt. eigenvalues --   -0.11665  -0.11465  -0.11013  -0.10809  -0.10687
 Alpha virt. eigenvalues --   -0.10339  -0.10113  -0.09674  -0.09526  -0.08769
 Alpha virt. eigenvalues --   -0.08714  -0.08167  -0.08034  -0.07884  -0.07729
 Alpha virt. eigenvalues --   -0.07443  -0.07307  -0.07227  -0.06928  -0.06746
 Alpha virt. eigenvalues --   -0.06492  -0.06409  -0.06070  -0.05971  -0.05424
 Alpha virt. eigenvalues --   -0.05153  -0.05011  -0.04911  -0.04627  -0.04139
 Alpha virt. eigenvalues --   -0.03857  -0.03702  -0.03396  -0.03192  -0.02796
 Alpha virt. eigenvalues --   -0.02456  -0.01950  -0.01783  -0.01653  -0.01446
 Alpha virt. eigenvalues --   -0.01036  -0.00766  -0.00555  -0.00382  -0.00088
 Alpha virt. eigenvalues --    0.00182   0.00662   0.01048   0.01090   0.01509
 Alpha virt. eigenvalues --    0.01700   0.01956   0.02220   0.02605   0.02837
 Alpha virt. eigenvalues --    0.03033   0.04352   0.04589   0.04735   0.04954
 Alpha virt. eigenvalues --    0.05325   0.05831   0.06081   0.06153   0.06549
 Alpha virt. eigenvalues --    0.06895   0.06920   0.07747   0.08086   0.08215
 Alpha virt. eigenvalues --    0.08510   0.08878   0.09064   0.09486   0.10128
 Alpha virt. eigenvalues --    0.10319   0.10465   0.10689   0.10763   0.10893
 Alpha virt. eigenvalues --    0.11053   0.11516   0.11681   0.11988   0.12182
 Alpha virt. eigenvalues --    0.12458   0.12809   0.12878   0.13157   0.13510
 Alpha virt. eigenvalues --    0.13971   0.14552   0.14773   0.15591   0.15967
 Alpha virt. eigenvalues --    0.16665   0.17260   0.17447   0.17734   0.17837
 Alpha virt. eigenvalues --    0.18039   0.18227   0.18399   0.18805   0.19200
 Alpha virt. eigenvalues --    0.19506   0.19913   0.20636   0.20803   0.21627
 Alpha virt. eigenvalues --    0.21900   0.22179   0.22781   0.22995   0.23418
 Alpha virt. eigenvalues --    0.23629   0.23659   0.23861   0.23935   0.24307
 Alpha virt. eigenvalues --    0.24471   0.24769   0.24962   0.25190   0.25333
 Alpha virt. eigenvalues --    0.25622   0.25715   0.26078   0.26250   0.26407
 Alpha virt. eigenvalues --    0.26797   0.26931   0.27254   0.27503   0.27556
 Alpha virt. eigenvalues --    0.27725   0.27942   0.28078   0.28459   0.28823
 Alpha virt. eigenvalues --    0.29213   0.29362   0.29657   0.30088   0.30307
 Alpha virt. eigenvalues --    0.30843   0.31061   0.31397   0.31546   0.31752
 Alpha virt. eigenvalues --    0.32061   0.32261   0.32609   0.32884   0.33287
 Alpha virt. eigenvalues --    0.33379   0.33954   0.34295   0.35243   0.35612
 Alpha virt. eigenvalues --    0.36008   0.36668   0.36712   0.36996   0.37050
 Alpha virt. eigenvalues --    0.37350   0.37751   0.37980   0.39655   0.39994
 Alpha virt. eigenvalues --    0.40868   0.41307   0.41548   0.42120   0.42570
 Alpha virt. eigenvalues --    0.43072   0.43137   0.43456   0.43743   0.43900
 Alpha virt. eigenvalues --    0.44039   0.44391   0.44531   0.45298   0.45553
 Alpha virt. eigenvalues --    0.46339   0.47129   0.47521   0.48084   0.48702
 Alpha virt. eigenvalues --    0.48802   0.49451   0.50407   0.50684   0.51120
 Alpha virt. eigenvalues --    0.51533   0.51796   0.52196   0.53076   0.53576
 Alpha virt. eigenvalues --    0.53910   0.55143   0.56271   0.57392   0.58273
 Alpha virt. eigenvalues --    0.58976   0.60310   0.60900   0.62600   0.62723
 Alpha virt. eigenvalues --    0.63392   0.63678   0.64210   0.67399   0.67558
 Alpha virt. eigenvalues --    0.67992   0.68311   0.69543   0.70830   0.73760
 Alpha virt. eigenvalues --    0.77843   0.85920   0.90883   0.91032   0.91085
 Alpha virt. eigenvalues --    0.91495   0.93134   0.95158   0.95704   0.96519
 Alpha virt. eigenvalues --    0.96872   0.97230   0.98332   0.98807   0.99688
 Alpha virt. eigenvalues --    0.99967   1.00135   1.00368   1.00571   1.01489
 Alpha virt. eigenvalues --    1.01594   1.02640   1.02964   1.03189   1.03264
 Alpha virt. eigenvalues --    1.04004   1.04291   1.04594   1.04809   1.05114
 Alpha virt. eigenvalues --    1.06206   1.07614   1.08461   1.08739   1.08989
 Alpha virt. eigenvalues --    1.09428   1.10402   1.10819   1.11061   1.11220
 Alpha virt. eigenvalues --    1.11258   1.11307   1.11631   1.11697   1.12052
 Alpha virt. eigenvalues --    1.12192   1.12620   1.12939   1.13034   1.13849
 Alpha virt. eigenvalues --    1.13983   1.14059   1.14241   1.14766   1.15093
 Alpha virt. eigenvalues --    1.15167   1.15566   1.15919   1.16349   1.16637
 Alpha virt. eigenvalues --    1.17145   1.17525   1.18319   1.18925   1.19434
 Alpha virt. eigenvalues --    1.19998   1.20194   1.20449   1.21008   1.21123
 Alpha virt. eigenvalues --    1.21137   1.21929   1.22260   1.22691   1.23268
 Alpha virt. eigenvalues --    1.23304   1.23598   1.23841   1.24144   1.24350
 Alpha virt. eigenvalues --    1.24524   1.24589   1.25503   1.25705   1.25991
 Alpha virt. eigenvalues --    1.26234   1.26737   1.27192   1.27508   1.28106
 Alpha virt. eigenvalues --    1.28418   1.28902   1.29070   1.29431   1.29953
 Alpha virt. eigenvalues --    1.30427   1.30509   1.30801   1.30954   1.31361
 Alpha virt. eigenvalues --    1.31816   1.31966   1.32349   1.33231   1.33676
 Alpha virt. eigenvalues --    1.33828   1.34012   1.34409   1.34710   1.35011
 Alpha virt. eigenvalues --    1.35340   1.35864   1.36469   1.37017   1.37843
 Alpha virt. eigenvalues --    1.38353   1.38800   1.39734   1.40754   1.41063
 Alpha virt. eigenvalues --    1.41564   1.41982   1.42028   1.42373   1.43132
 Alpha virt. eigenvalues --    1.43183   1.43515   1.44614   1.45123   1.45436
 Alpha virt. eigenvalues --    1.45721   1.46292   1.46656   1.48399   1.48642
 Alpha virt. eigenvalues --    1.49152   1.49461   1.49717   1.49832   1.50300
 Alpha virt. eigenvalues --    1.51023   1.51923   1.52015   1.52238   1.52550
 Alpha virt. eigenvalues --    1.52801   1.53276   1.53757   1.54491   1.54644
 Alpha virt. eigenvalues --    1.54945   1.55054   1.55240   1.55348   1.55480
 Alpha virt. eigenvalues --    1.55873   1.55958   1.56148   1.56387   1.57050
 Alpha virt. eigenvalues --    1.57211   1.57462   1.57614   1.57791   1.57888
 Alpha virt. eigenvalues --    1.57960   1.58594   1.59106   1.59422   1.59956
 Alpha virt. eigenvalues --    1.61446   1.61634   1.61863   1.61972   1.62604
 Alpha virt. eigenvalues --    1.63307   1.63716   1.63872   1.64154   1.64651
 Alpha virt. eigenvalues --    1.65249   1.65883   1.66191   1.66536   1.66972
 Alpha virt. eigenvalues --    1.67297   1.67583   1.68605   1.70106   1.70382
 Alpha virt. eigenvalues --    1.71618   1.72642   1.73473   1.74248   1.74636
 Alpha virt. eigenvalues --    1.76244   1.77079   1.78095   1.78797   1.79726
 Alpha virt. eigenvalues --    1.80063   1.80482   1.81605   1.81844   1.82334
 Alpha virt. eigenvalues --    1.83424   1.84604   1.86126   1.86664   1.87030
 Alpha virt. eigenvalues --    1.87787   1.88171   1.88915   1.89675   1.91037
 Alpha virt. eigenvalues --    1.91267   1.92118   1.92686   1.92995   1.93260
 Alpha virt. eigenvalues --    1.93337   1.94135   1.94602   1.95949   1.96884
 Alpha virt. eigenvalues --    1.97731   1.98535   1.98964   2.00556   2.01003
 Alpha virt. eigenvalues --    2.02087   2.03268   2.03856   2.04374   2.04568
 Alpha virt. eigenvalues --    2.04691   2.04800   2.04974   2.05417   2.05801
 Alpha virt. eigenvalues --    2.05979   2.06362   2.06866   2.06995   2.07308
 Alpha virt. eigenvalues --    2.07441   2.07714   2.08103   2.08580   2.09251
 Alpha virt. eigenvalues --    2.09496   2.09994   2.10055   2.10511   2.10778
 Alpha virt. eigenvalues --    2.11451   2.12026   2.12143   2.12343   2.13114
 Alpha virt. eigenvalues --    2.13314   2.13431   2.14276   2.14442   2.18332
 Alpha virt. eigenvalues --    2.19770   2.20083   2.20849   2.21177   2.21304
 Alpha virt. eigenvalues --    2.21621   2.22423   2.23060   2.23718   2.24732
 Alpha virt. eigenvalues --    2.26577   2.27504   2.27743   2.28050   2.28868
 Alpha virt. eigenvalues --    2.29524   2.29680   2.29907   2.30143   2.30265
 Alpha virt. eigenvalues --    2.30684   2.31253   2.31570   2.32368   2.32868
 Alpha virt. eigenvalues --    2.33442   2.33576   2.34586   2.34904   2.35469
 Alpha virt. eigenvalues --    2.35652   2.35961   2.36042   2.36442   2.37314
 Alpha virt. eigenvalues --    2.38351   2.38519   2.39170   2.40296   2.41102
 Alpha virt. eigenvalues --    2.41495   2.42007   2.42392   2.42607   2.43109
 Alpha virt. eigenvalues --    2.43897   2.44016   2.44756   2.46630   2.47407
 Alpha virt. eigenvalues --    2.47695   2.48116   2.48678   2.50344   2.50633
 Alpha virt. eigenvalues --    2.50833   2.51087   2.51268   2.52397   2.53096
 Alpha virt. eigenvalues --    2.53944   2.54322   2.54620   2.55245   2.55779
[...]
    61   Atom       -0.000180      0.000048      0.000072
    62   Atom       -0.000218      0.000211     -0.000142
    63   Atom       -0.000244     -0.000072      0.000048
    64   Atom        0.000015      0.000105     -0.000038
 --------------------------------------------------------


 ---------------------------------------------------------------------------------
              Anisotropic Spin Dipole Couplings in Principal Axis System
 ---------------------------------------------------------------------------------

       Atom             a.u.   MegaHertz   Gauss  10(-4) cm-1        Axes

              Baa    -0.0385    -5.172    -1.846    -1.725 -0.0488 -0.6341  0.7717
     1 C(13)  Bbb    -0.0353    -4.733    -1.689    -1.579  0.9944  0.0419  0.0973
              Bcc     0.0738     9.906     3.535     3.304 -0.0940  0.7722  0.6284
 
              Baa    -0.0384    -5.150    -1.838    -1.718 -0.5869 -0.0247  0.8093
     2 C(13)  Bbb    -0.0287    -3.847    -1.373    -1.283  0.7546 -0.3790  0.5357
              Bcc     0.0671     8.998     3.211     3.001  0.2935  0.9251  0.2410
 
              Baa    -0.9260   -37.965   -13.547   -12.664  0.4846 -0.4455  0.7528
     3 S(33)  Bbb    -0.8851   -36.289   -12.949   -12.105  0.8732  0.2972 -0.3863
              Bcc     1.8111    74.253    26.495    24.768 -0.0517  0.8445  0.5330
 
              Baa    -0.0501    -6.728    -2.401    -2.244  0.9954 -0.0608 -0.0746
     4 C(13)  Bbb    -0.0484    -6.498    -2.318    -2.167  0.0121 -0.6904  0.7233
              Bcc     0.0986    13.225     4.719     4.411  0.0955  0.7209  0.6865
 
              Baa    -0.0318    -4.263    -1.521    -1.422 -0.2549  0.7830  0.5674
     5 C(13)  Bbb    -0.0291    -3.907    -1.394    -1.303  0.9662  0.1822  0.1826
              Bcc     0.0609     8.170     2.915     2.725 -0.0396 -0.5948  0.8029
 
              Baa    -0.0449    -6.028    -2.151    -2.011  0.6401 -0.4664 -0.6105
     6 C(13)  Bbb    -0.0407    -5.466    -1.950    -1.823  0.7469  0.1917  0.6367
              Bcc     0.0857    11.494     4.101     3.834  0.1799  0.8636 -0.4710
 
              Baa    -0.0321    -4.304    -1.536    -1.436  0.0390  0.8202  0.5708
     7 C(13)  Bbb     0.0144     1.934     0.690     0.645  0.9863 -0.1233  0.1097
              Bcc     0.0177     2.370     0.846     0.790 -0.1603 -0.5587  0.8137
 
              Baa    -0.0309    -4.148    -1.480    -1.384 -0.0136  0.8232  0.5676
     8 C(13)  Bbb     0.0131     1.755     0.626     0.585  0.4162 -0.5115  0.7518
              Bcc     0.0178     2.393     0.854     0.798  0.9092  0.2464 -0.3356
 
              Baa    -0.0034    -1.813    -0.647    -0.605 -0.2891 -0.3055  0.9072
     9 H(1)   Bbb    -0.0024    -1.287    -0.459    -0.429  0.2508  0.8904  0.3798
              Bcc     0.0058     3.100     1.106     1.034  0.9239 -0.3373  0.1808
 
              Baa    -0.0066    -0.888    -0.317    -0.296 -0.0405 -0.1567  0.9868
    10 C(13)  Bbb    -0.0001    -0.018    -0.006    -0.006  0.7688 -0.6357 -0.0694
              Bcc     0.0067     0.906     0.323     0.302  0.6382  0.7558  0.1463
 
              Baa    -0.0388    -5.210    -1.859    -1.738  0.2342  0.7800 -0.5803
    11 C(13)  Bbb     0.0069     0.930     0.332     0.310  0.3053  0.5077  0.8056
              Bcc     0.0319     4.280     1.527     1.428  0.9230 -0.3658 -0.1192
 
              Baa    -0.0499    -6.692    -2.388    -2.232  0.6608  0.1163  0.7415
    12 C(13)  Bbb    -0.0468    -6.283    -2.242    -2.096 -0.5759  0.7122  0.4014
              Bcc     0.0967    12.975     4.630     4.328  0.4814  0.6923 -0.5376
 
              Baa    -0.0096    -1.289    -0.460    -0.430 -0.5581  0.4655  0.6869
    13 C(13)  Bbb    -0.0074    -0.990    -0.353    -0.330  0.8291  0.2804  0.4837
              Bcc     0.0170     2.279     0.813     0.760  0.0326  0.8395 -0.5424
 
              Baa    -0.0028    -1.484    -0.529    -0.495  0.2573  0.9142 -0.3131
    14 H(1)   Bbb    -0.0008    -0.435    -0.155    -0.145 -0.4213  0.3978  0.8151
              Bcc     0.0036     1.919     0.685     0.640  0.8697 -0.0778  0.4875
 
              Baa    -0.0050    -2.672    -0.954    -0.891  0.2793  0.8006 -0.5302
    15 H(1)   Bbb    -0.0020    -1.073    -0.383    -0.358  0.6638  0.2380  0.7090
              Bcc     0.0070     3.745     1.336     1.249  0.6938 -0.5500 -0.4650
 
              Baa    -0.0061    -3.240    -1.156    -1.081  0.7639  0.0011  0.6453
    16 H(1)   Bbb    -0.0015    -0.809    -0.289    -0.270  0.4388  0.7324 -0.5207
              Bcc     0.0076     4.049     1.445     1.351 -0.4732  0.6809  0.5590
 
              Baa    -0.0891   -11.960    -4.268    -3.989  0.7427 -0.3911  0.5435
    17 C(13)  Bbb    -0.0834   -11.193    -3.994    -3.733  0.6693  0.4573 -0.5855
              Bcc     0.1725    23.153     8.261     7.723 -0.0196  0.7987  0.6014
 
              Baa    -0.0033    -1.762    -0.629    -0.588 -0.1842  0.6683  0.7207
    18 H(1)   Bbb    -0.0024    -1.298    -0.463    -0.433  0.6804  0.6159 -0.3972
              Bcc     0.0057     3.060     1.092     1.021  0.7093 -0.4172  0.5682
 
              Baa    -0.0081    -4.296    -1.533    -1.433  0.8894 -0.0083 -0.4570
    19 H(1)   Bbb    -0.0026    -1.364    -0.487    -0.455  0.0240  0.9993  0.0287
              Bcc     0.0106     5.660     2.020     1.888  0.4564 -0.0365  0.8890
 
              Baa    -0.0026    -1.413    -0.504    -0.471  0.0076  0.6650  0.7468
    20 H(1)   Bbb     0.0007     0.375     0.134     0.125  0.2196  0.7275 -0.6501
              Bcc     0.0019     1.038     0.370     0.346  0.9756 -0.1690  0.1405
 
              Baa    -0.0111    -5.936    -2.118    -1.980  0.7722 -0.3874  0.5035
    21 H(1)   Bbb    -0.0012    -0.664    -0.237    -0.222 -0.0063  0.7878  0.6159
              Bcc     0.0124     6.601     2.355     2.202  0.6353  0.4788 -0.6060
 
              Baa    -0.4047   -16.593    -5.921    -5.535  0.6202 -0.3999  0.6749
    22 S(33)  Bbb    -0.3838   -15.736    -5.615    -5.249 -0.3555  0.6236  0.6962
              Bcc     0.7885    32.329    11.536    10.784  0.6993  0.6717 -0.2446
 
              Baa    -0.0027    -0.366    -0.131    -0.122 -0.2953  0.7626  0.5756
    23 C(13)  Bbb    -0.0012    -0.154    -0.055    -0.051  0.7310  0.5682 -0.3778
              Bcc     0.0039     0.520     0.186     0.174  0.6151 -0.3092  0.7253
 
              Baa    -0.0032    -0.432    -0.154    -0.144  0.2878 -0.1556  0.9450
    24 C(13)  Bbb     0.0002     0.028     0.010     0.009  0.3509  0.9352  0.0472
              Bcc     0.0030     0.404     0.144     0.135  0.8911 -0.3180 -0.3237
 
              Baa    -0.0033    -0.440    -0.157    -0.147 -0.4205 -0.2647  0.8679
    25 C(13)  Bbb     0.0001     0.017     0.006     0.006 -0.5805  0.8136 -0.0331
              Bcc     0.0032     0.423     0.151     0.141  0.6973  0.5177  0.4957
 
              Baa    -0.0223    -0.858    -0.306    -0.286  0.3084  0.8966  0.3177
    26 N(14)  Bbb    -0.0212    -0.816    -0.291    -0.272  0.9321 -0.3516  0.0873
              Bcc     0.0434     1.674     0.597     0.558 -0.1900 -0.2692  0.9442
 
              Baa    -0.0241    -0.931    -0.332    -0.311 -0.0170  0.9742  0.2252
    27 N(14)  Bbb    -0.0232    -0.893    -0.319    -0.298  0.9713 -0.0374  0.2349
              Bcc     0.0473     1.824     0.651     0.609 -0.2372 -0.2227  0.9456
 
              Baa    -0.0006    -0.084    -0.030    -0.028  0.5508  0.2122  0.8072
    28 C(13)  Bbb    -0.0001    -0.012    -0.004    -0.004 -0.3034  0.9519 -0.0433
              Bcc     0.0007     0.096     0.034     0.032  0.7775  0.2210 -0.5887
 
              Baa    -0.0006    -0.306    -0.109    -0.102 -0.3479 -0.6578  0.6680
    29 H(1)   Bbb    -0.0001    -0.030    -0.011    -0.010  0.7844  0.1860  0.5917
              Bcc     0.0006     0.336     0.120     0.112 -0.5135  0.7298  0.4513
 
              Baa    -0.0010    -0.551    -0.196    -0.184 -0.1442 -0.0618  0.9876
    30 H(1)   Bbb    -0.0005    -0.260    -0.093    -0.087  0.6344  0.7602  0.1403
              Bcc     0.0015     0.811     0.289     0.271  0.7594 -0.6468  0.0704
 
              Baa    -0.0006    -0.308    -0.110    -0.103 -0.1399  0.0894  0.9861
    31 H(1)   Bbb    -0.0002    -0.080    -0.029    -0.027  0.8546  0.5139  0.0747
              Bcc     0.0007     0.388     0.139     0.129 -0.5001  0.8532 -0.1483
 
              Baa    -0.0009    -0.120    -0.043    -0.040  0.2515  0.9351  0.2497
    32 C(13)  Bbb     0.0000     0.006     0.002     0.002  0.3157 -0.3232  0.8922
              Bcc     0.0009     0.114     0.041     0.038  0.9149 -0.1455 -0.3764
 
              Baa    -0.0005    -0.241    -0.086    -0.080 -0.1405 -0.6270  0.7662
    33 H(1)   Bbb    -0.0003    -0.137    -0.049    -0.046  0.5072  0.6191  0.5996
              Bcc     0.0007     0.377     0.135     0.126  0.8503 -0.4729 -0.2310
 
              Baa    -0.0004    -0.218    -0.078    -0.073  0.0234  0.6308  0.7756
    34 H(1)   Bbb    -0.0003    -0.180    -0.064    -0.060  0.6145  0.6028 -0.5089
              Bcc     0.0007     0.399     0.142     0.133  0.7885 -0.4885  0.3736
 
              Baa    -0.0005    -0.244    -0.087    -0.081 -0.0737 -0.3550  0.9320
    35 H(1)   Bbb    -0.0001    -0.078    -0.028    -0.026  0.0081  0.9343  0.3565
              Bcc     0.0006     0.321     0.115     0.107  0.9972 -0.0339  0.0659
 
              Baa    -0.0005    -0.069    -0.024    -0.023  0.4767  0.1808  0.8603
    36 C(13)  Bbb    -0.0002    -0.033    -0.012    -0.011 -0.3673  0.9301  0.0081
              Bcc     0.0008     0.101     0.036     0.034  0.7986  0.3199 -0.5098
 
              Baa    -0.0006    -0.345    -0.123    -0.115 -0.1537 -0.6862  0.7110
    37 H(1)   Bbb     0.0000     0.019     0.007     0.006  0.6785 -0.5964 -0.4289
              Bcc     0.0006     0.326     0.116     0.109  0.7183  0.4165  0.5572
 
              Baa    -0.0009    -0.464    -0.165    -0.155 -0.1041 -0.2962  0.9494
    38 H(1)   Bbb    -0.0004    -0.216    -0.077    -0.072 -0.1829  0.9440  0.2745
              Bcc     0.0013     0.679     0.242     0.227  0.9776  0.1450  0.1524
 
              Baa    -0.0006    -0.302    -0.108    -0.101 -0.0900  0.1271  0.9878
    39 H(1)   Bbb    -0.0001    -0.044    -0.016    -0.015 -0.6548  0.7398 -0.1549
              Bcc     0.0006     0.346     0.123     0.115  0.7505  0.6607 -0.0166
 
              Baa    -0.0009    -0.125    -0.045    -0.042  0.0162  0.9887  0.1489
    40 C(13)  Bbb     0.0002     0.030     0.011     0.010  0.7054  0.0943 -0.7025
              Bcc     0.0007     0.095     0.034     0.032  0.7086 -0.1164  0.6959
 
              Baa    -0.0005    -0.256    -0.091    -0.085 -0.2828 -0.6211  0.7309
    41 H(1)   Bbb    -0.0002    -0.129    -0.046    -0.043 -0.4632  0.7557  0.4629
              Bcc     0.0007     0.384     0.137     0.128  0.8399  0.2077  0.5014
 
              Baa    -0.0004    -0.226    -0.081    -0.076 -0.0171  0.5486  0.8359
    42 H(1)   Bbb    -0.0003    -0.184    -0.066    -0.061 -0.2024  0.8169 -0.5402
              Bcc     0.0008     0.411     0.146     0.137  0.9792  0.1784 -0.0970
 
              Baa    -0.0005    -0.243    -0.087    -0.081 -0.3391 -0.3165  0.8859
    43 H(1)   Bbb    -0.0002    -0.086    -0.031    -0.029  0.2099  0.8925  0.3992
              Bcc     0.0006     0.330     0.118     0.110  0.9171 -0.3213  0.2362
 
              Baa    -0.0040    -0.539    -0.192    -0.180  0.2418  0.9057 -0.3481
    44 C(13)  Bbb    -0.0020    -0.273    -0.097    -0.091  0.9646 -0.1854  0.1877
              Bcc     0.0060     0.812     0.290     0.271 -0.1055  0.3811  0.9185
 
              Baa    -0.0031    -0.417    -0.149    -0.139 -0.3303  0.4184  0.8461
    45 C(13)  Bbb     0.0007     0.090     0.032     0.030 -0.3043  0.8013 -0.5150
              Bcc     0.0024     0.327     0.117     0.109  0.8935  0.4276  0.1374
 
              Baa    -0.0044    -0.596    -0.213    -0.199  0.1066  0.3247  0.9398
    46 C(13)  Bbb     0.0015     0.205     0.073     0.068  0.5698  0.7547 -0.3253
              Bcc     0.0029     0.392     0.140     0.131  0.8149 -0.5701  0.1046
 
              Baa    -0.0066    -0.255    -0.091    -0.085 -0.1437  0.9403 -0.3084
    47 N(14)  Bbb    -0.0053    -0.203    -0.072    -0.068  0.9888  0.1488 -0.0071
              Bcc     0.0119     0.458     0.163     0.153 -0.0392  0.3060  0.9512
 
              Baa    -0.0087    -0.334    -0.119    -0.111  0.1629  0.9529 -0.2556
    48 N(14)  Bbb    -0.0073    -0.280    -0.100    -0.093  0.9741 -0.1143  0.1949
              Bcc     0.0159     0.615     0.219     0.205 -0.1566  0.2808  0.9469
 
              Baa    -0.0009    -0.117    -0.042    -0.039  0.4237 -0.4925  0.7602
    49 C(13)  Bbb    -0.0003    -0.047    -0.017    -0.016  0.0227  0.8448  0.5346
              Bcc     0.0012     0.164     0.058     0.055  0.9055  0.2092 -0.3692
 
              Baa    -0.0005    -0.258    -0.092    -0.086 -0.3220  0.7806  0.5357
    50 H(1)   Bbb    -0.0003    -0.154    -0.055    -0.051  0.4978 -0.3417  0.7972
              Bcc     0.0008     0.412     0.147     0.137  0.8053  0.5234 -0.2785
 
              Baa    -0.0011    -0.588    -0.210    -0.196 -0.0894  0.0593  0.9942
    51 H(1)   Bbb    -0.0010    -0.537    -0.192    -0.179 -0.5320  0.8410 -0.0979
              Bcc     0.0021     1.125     0.402     0.375  0.8420  0.5377  0.0436
 
              Baa    -0.0004    -0.230    -0.082    -0.077 -0.0702 -0.0473  0.9964
    52 H(1)   Bbb    -0.0004    -0.190    -0.068    -0.063 -0.5985  0.8011 -0.0041
              Bcc     0.0008     0.420     0.150     0.140  0.7980  0.5967  0.0846
 
              Baa    -0.0005    -0.061    -0.022    -0.021 -0.1166  0.9263 -0.3582
    53 C(13)  Bbb     0.0000     0.002     0.001     0.001  0.1002  0.3698  0.9237
              Bcc     0.0004     0.059     0.021     0.020  0.9881  0.0719 -0.1359
 
              Baa    -0.0003    -0.152    -0.054    -0.051 -0.0014  0.5760  0.8174
    54 H(1)   Bbb    -0.0002    -0.117    -0.042    -0.039 -0.3340  0.7702 -0.5433
              Bcc     0.0005     0.269     0.096     0.090  0.9426  0.2738 -0.1913
 
              Baa    -0.0003    -0.146    -0.052    -0.049 -0.2354  0.9450 -0.2269
    55 H(1)   Bbb    -0.0002    -0.121    -0.043    -0.040 -0.2554  0.1651  0.9526
              Bcc     0.0005     0.266     0.095     0.089  0.9377  0.2822  0.2025
 
              Baa    -0.0003    -0.164    -0.058    -0.055  0.0268  0.3747  0.9268
    56 H(1)   Bbb    -0.0002    -0.091    -0.032    -0.030 -0.0181  0.9271 -0.3743
              Bcc     0.0005     0.254     0.091     0.085  0.9995  0.0068 -0.0316
 
              Baa    -0.0006    -0.084    -0.030    -0.028  0.3674  0.3500  0.8617
    57 C(13)  Bbb    -0.0006    -0.078    -0.028    -0.026  0.3357  0.8141 -0.4738
              Bcc     0.0012     0.162     0.058     0.054  0.8674 -0.4633 -0.1816
 
              Baa    -0.0006    -0.347    -0.124    -0.116  0.0960  0.6684  0.7376
    58 H(1)   Bbb    -0.0003    -0.182    -0.065    -0.061 -0.5147 -0.6009  0.6115
              Bcc     0.0010     0.529     0.189     0.176  0.8520 -0.4384  0.2863
 
              Baa    -0.0011    -0.581    -0.207    -0.194  0.1538  0.3583  0.9209
    59 H(1)   Bbb    -0.0008    -0.433    -0.155    -0.144  0.4083  0.8256 -0.3894
              Bcc     0.0019     1.014     0.362     0.338  0.8998 -0.4359  0.0193
 
              Baa    -0.0005    -0.271    -0.097    -0.090 -0.0423 -0.1539  0.9872
    60 H(1)   Bbb    -0.0003    -0.156    -0.056    -0.052  0.5600  0.8146  0.1510
              Bcc     0.0008     0.426     0.152     0.142  0.8274 -0.5592 -0.0518
 
              Baa    -0.0006    -0.075    -0.027    -0.025  0.1848  0.9751 -0.1230
    61 C(13)  Bbb     0.0001     0.013     0.005     0.004 -0.0691  0.1377  0.9881
              Bcc     0.0005     0.062     0.022     0.021  0.9803 -0.1741  0.0928
 
              Baa    -0.0004    -0.187    -0.067    -0.062 -0.0129  0.6722  0.7403
    62 H(1)   Bbb    -0.0002    -0.113    -0.040    -0.038  0.4346  0.6705 -0.6013
              Bcc     0.0006     0.300     0.107     0.100  0.9005 -0.3139  0.3008
 
              Baa    -0.0003    -0.163    -0.058    -0.054 -0.1305 -0.6393  0.7578
    63 H(1)   Bbb    -0.0003    -0.138    -0.049    -0.046  0.2982  0.7036  0.6450
              Bcc     0.0006     0.300     0.107     0.100  0.9455 -0.3101 -0.0988
 
              Baa    -0.0003    -0.172    -0.062    -0.058 -0.1209  0.3898  0.9130
    64 H(1)   Bbb    -0.0002    -0.113    -0.040    -0.038  0.0369  0.9208 -0.3882
              Bcc     0.0005     0.285     0.102     0.095  0.9920  0.0132  0.1257
 

 ---------------------------------------------------------------------------------

 No NMR shielding tensors so no spin-rotation constants.
 Leave Link  601 at Wed Jan 27 09:59:44 2021, MaxMem=  4026531840 cpu:              10.4 elap:               1.4
 (Enter /opt/ohpc/pub/libs/gaussian/g16-A.03/sandybridge/g16/l9999.exe)

 Test job not archived.
 1\1\GINC-CNODE145\SP\ULC-wHPBE\TZVP\C26H32N4S2(3+,2)\RDU230\27-Jan-202
 1\0\\#P LC-wHPBE/TZVP iop(3/107=0178000000, 3/108=0178000000) scf=(con
 ver=6,fermi,ndamp=35,noincfock,novaracc,vshift=500,xqc)\\H32 C26 S2 N4
 \\3,2\C,0,-2.928949,-0.209586,-0.466429\C,0,-1.563914,-0.061175,-0.303
 79\S,0,-0.549634,-0.92994,-1.465043\C,0,-1.080492,0.744795,0.70659\C,0
 ,1.720975,-1.178026,0.124019\C,0,1.104728,-0.556786,-0.961278\C,0,-3.8
 04439,0.453059,0.37376\C,0,-1.957571,1.39872,1.546095\H,0,-0.017059,0.
 867388,0.843825\C,0,3.05531,-0.905897,0.375396\C,0,1.834379,0.303673,-
 1.763498\C,0,3.157322,0.57014,-1.506853\C,0,3.772824,-0.043708,-0.4294
 35\H,0,3.535939,-1.385849,1.215765\H,0,1.346414,0.763075,-2.610001\H,0
 ,3.71103,1.227115,-2.160412\C,0,-3.316329,1.26263,1.386512\H,0,-3.3099
 64,-0.825983,-1.268943\H,0,-0.12139,-2.546838,0.437504\H,0,-1.570409,2
 .020933,2.339064\H,0,-3.993957,1.766527,2.059405\S,0,0.923466,-2.27951
 2,1.229412\C,0,5.179371,0.186625,-0.15991\C,0,6.258258,1.013194,-0.194
 238\C,0,6.373984,-0.291545,0.281001\N,0,6.778879,2.1722,-0.466391\N,0,
 7.085837,-1.264246,0.765069\C,0,5.943792,3.274283,-0.907684\H,0,6.1879
 51,3.5455,-1.931936\H,0,4.898805,2.994168,-0.846509\H,0,6.108951,4.134
 804,-0.264794\C,0,8.194976,2.451187,-0.318309\H,0,8.537142,3.011091,-1
 .183702\H,0,8.380874,3.039067,0.577705\H,0,8.758216,1.527533,-0.273817
 \C,0,6.515968,-2.589608,0.931428\H,0,6.460524,-2.846499,1.986434\H,0,5
 .524243,-2.624805,0.496396\H,0,7.140387,-3.318442,0.421721\C,0,8.48492
 9,-1.112006,1.118438\H,0,8.667734,-1.621246,2.059984\H,0,9.125917,-1.5
 45202,0.353886\H,0,8.728287,-0.065327,1.25212\C,0,-5.234909,0.301436,0
 .192555\C,0,-6.482207,0.837696,0.274291\C,0,-6.296202,-0.469144,-0.166
 373\N,0,-7.258316,1.842942,0.55157\N,0,-6.771609,-1.601745,-0.593499\C
 ,0,-6.699705,3.135271,0.904858\H,0,-6.943427,3.382636,1.935256\H,0,-5.
 623434,3.119821,0.780416\H,0,-7.111169,3.899344,0.250646\C,0,-8.704916
 ,1.757804,0.486526\H,0,-9.127537,2.25749,1.353238\H,0,-9.080352,2.2381
 57,-0.414316\H,0,-9.022841,0.722915,0.509579\C,0,-5.902929,-2.750782,-
 0.768792\H,0,-5.850729,-3.027562,-1.819029\H,0,-4.908582,-2.521281,-0.
 40444\H,0,-6.292204,-3.59128,-0.200176\C,0,-8.181475,-1.806186,-0.8668
 23\H,0,-8.283723,-2.375263,-1.7861\H,0,-8.657299,-2.356258,-0.057912\H
 ,0,-8.67988,-0.85495,-1.00634\\Version=EM64L-G16RevA.03\State=2-A\HF=-
 2023.2947343\S2=0.758636\S2-1=0.\S2A=0.750062\RMSD=7.107e-07\Dipole=0.
 155634,0.8008784,0.1130003\Quadrupole=257.0569748,-109.3417933,-147.71
 51814,4.709024,2.8681256,0.954872\PG=C01 [X(C26H32N4S2)]\\@


 Happiness is a conscious choice, not an automatic response.
 -- Mildred Barthel
 Job cpu time:       0 days  9 hours 54 minutes 26.4 seconds.
 Elapsed time:       0 days  1 hours 15 minutes 20.9 seconds.
 File lengths (MBytes):  RWF=    636 Int=      0 D2E=      0 Chk=     52 Scr=      8
 Normal termination of Gaussian 16 at Wed Jan 27 09:59:44 2021.
