 Entering Gaussian System, Link 0=g16
 Input=mol_ta_cp_whol_tune_c2.gjf
 Output=mol_ta_cp_whol_tune_c2.log
 Initial command:
 /opt/ohpc/pub/libs/gaussian/g16-A.03/sandybridge/g16/l1.exe "/mnt/gpfs2_4m/scratch/rdu230/ondemand/projects/init_structures/gaussian/wtuning/mol_ta_cp_whol/tuning_mol_ta_cp_whol_ocycle0/Gau-130200.inp" -scrdir="/mnt/gpfs2_4m/scratch/rdu230/ondemand/projects/init_structures/gaussian/wtuning/mol_ta_cp_whol/tuning_mol_ta_cp_whol_ocycle0/"
 Entering Link 1 = /opt/ohpc/pub/libs/gaussian/g16-A.03/sandybridge/g16/l1.exe PID=    130201.
  
 Copyright (c) 1988,1990,1992,1993,1995,1998,2003,2009,2016,
            Gaussian, Inc.  All Rights Reserved.
  
 This is part of the Gaussian(R) 16 program.  It is based on
 the Gaussian(R) 09 system (copyright 2009, Gaussian, Inc.),
 the Gaussian(R) 03 system (copyright 2003, Gaussian, Inc.),
 the Gaussian(R) 98 system (copyright 1998, Gaussian, Inc.),
 the Gaussian(R) 94 system (copyright 1995, Gaussian, Inc.),
 the Gaussian 92(TM) system (copyright 1992, Gaussian, Inc.),
 the Gaussian 90(TM) system (copyright 1990, Gaussian, Inc.),
 the Gaussian 88(TM) system (copyright 1988, Gaussian, Inc.),
 the Gaussian 86(TM) system (copyright 1986, Carnegie Mellon
 University), and the Gaussian 82(TM) system (copyright 1983,
 Carnegie Mellon University). Gaussian is a federally registered
 trademark of Gaussian, Inc.
  
 This software contains proprietary and confidential information,
 including trade secrets, belonging to Gaussian, Inc.
  
 This software is provided under written license and may be
 used, copied, transmitted, or stored only in accord with that
 written license.
  
 The following legend is applicable only to US Government
 contracts under FAR:
  
                    RESTRICTED RIGHTS LEGEND
  
 Use, reproduction and disclosure by the US Government is
 subject to restrictions as set forth in subparagraphs (a)
 and (c) of the Commercial Computer Software - Restricted
 Rights clause in FAR 52.227-19.
  
 Gaussian, Inc.
 340 Quinnipiac St., Bldg. 40, Wallingford CT 06492
  
  
 ---------------------------------------------------------------
 Warning -- This program may not be used in any manner that
 competes with the business of Gaussian, Inc. or will provide
 assistance to any competitor of Gaussian, Inc.  The licensee
 of this program is prohibited from giving any competitor of
 Gaussian, Inc. access to this program.  By using this program,
 the user acknowledges that Gaussian, Inc. is engaged in the
 business of creating and licensing software in the field of
 computational chemistry and represents and warrants to the
 licensee that it is not a competitor of Gaussian, Inc. and that
 it will not use this program in any manner prohibited above.
 ---------------------------------------------------------------
  

 Cite this work as:
 Gaussian 16, Revision A.03,
 M. J. Frisch, G. W. Trucks, H. B. Schlegel, G. E. Scuseria, 
 M. A. Robb, J. R. Cheeseman, G. Scalmani, V. Barone, 
 G. A. Petersson, H. Nakatsuji, X. Li, M. Caricato, A. V. Marenich, 
 J. Bloino, B. G. Janesko, R. Gomperts, B. Mennucci, H. P. Hratchian, 
 J. V. Ortiz, A. F. Izmaylov, J. L. Sonnenberg, D. Williams-Young, 
 F. Ding, F. Lipparini, F. Egidi, J. Goings, B. Peng, A. Petrone, 
 T. Henderson, D. Ranasinghe, V. G. Zakrzewski, J. Gao, N. Rega, 
 G. Zheng, W. Liang, M. Hada, M. Ehara, K. Toyota, R. Fukuda, 
 J. Hasegawa, M. Ishida, T. Nakajima, Y. Honda, O. Kitao, H. Nakai, 
 T. Vreven, K. Throssell, J. A. Montgomery, Jr., J. E. Peralta, 
 F. Ogliaro, M. J. Bearpark, J. J. Heyd, E. N. Brothers, K. N. Kudin, 
 V. N. Staroverov, T. A. Keith, R. Kobayashi, J. Normand, 
 K. Raghavachari, A. P. Rendell, J. C. Burant, S. S. Iyengar, 
 J. Tomasi, M. Cossi, J. M. Millam, M. Klene, C. Adamo, R. Cammi, 
 J. W. Ochterski, R. L. Martin, K. Morokuma, O. Farkas, 
 J. B. Foresman, and D. J. Fox, Gaussian, Inc., Wallingford CT, 2016.
 
 ******************************************
 Gaussian 16:  EM64L-G16RevA.03 25-Dec-2016
                27-Jan-2021 
 ******************************************
 %mem=30GB
 %nproc=8
 Will use up to    8 processors via shared memory.
 ----------------------------------------------------------------------
 #P LC-wHPBE/TZVP iop(3/107=0156200000, 3/108=0156200000) scf=(conver=6
 ,fermi,ndamp=35,noincfock,novaracc,vshift=500,xqc)
 ----------------------------------------------------------------------
 1/38=1,172=1/1;
 2/12=2,17=6,18=5,40=1/2;
 3/5=19,7=101,11=2,25=1,30=1,74=-71,107=156200000,108=156200000/1,2,3;
 4//1;
 5/5=100002,6=6,8=3,10=500,13=1,18=-1,22=13,38=1,93=35/2,8;
 6/7=2,8=2,9=2,10=2,28=1/1;
 99/5=1,9=1/99;
 Leave Link    1 at Wed Jan 27 03:42:27 2021, MaxMem=  4026531840 cpu:               0.7 elap:               0.1
 (Enter /opt/ohpc/pub/libs/gaussian/g16-A.03/sandybridge/g16/l101.exe)
 -------------
 H32 C26 S2 N4
 -------------
 Symbolic Z-matrix:
 Charge =  3 Multiplicity = 2
 C                    -2.92895  -0.20959  -0.46643 
 C                    -1.56391  -0.06118  -0.30379 
 S                    -0.54963  -0.92994  -1.46504 
 C                    -1.08049   0.7448    0.70659 
 C                     1.72098  -1.17803   0.12402 
 C                     1.10473  -0.55679  -0.96128 
 C                    -3.80444   0.45306   0.37376 
 C                    -1.95757   1.39872   1.5461 
 H                    -0.01706   0.86739   0.84383 
 C                     3.05531  -0.9059    0.3754 
 C                     1.83438   0.30367  -1.7635 
 C                     3.15732   0.57014  -1.50685 
 C                     3.77282  -0.04371  -0.42944 
 H                     3.53594  -1.38585   1.21576 
 H                     1.34641   0.76308  -2.61 
 H                     3.71103   1.22712  -2.16041 
 C                    -3.31633   1.26263   1.38651 
 H                    -3.30996  -0.82598  -1.26894 
 H                    -0.12139  -2.54684   0.4375 
 H                    -1.57041   2.02093   2.33906 
 H                    -3.99396   1.76653   2.0594 
 S                     0.92347  -2.27951   1.22941 
 C                     5.17937   0.18663  -0.15991 
 C                     6.25826   1.01319  -0.19424 
 C                     6.37398  -0.29155   0.281 
 N                     6.77888   2.1722   -0.46639 
 N                     7.08584  -1.26425   0.76507 
 C                     5.94379   3.27428  -0.90768 
 H                     6.18795   3.5455   -1.93194 
 H                     4.89881   2.99417  -0.84651 
 H                     6.10895   4.1348   -0.26479 
 C                     8.19498   2.45119  -0.31831 
 H                     8.53714   3.01109  -1.1837 
 H                     8.38087   3.03907   0.57771 
 H                     8.75822   1.52753  -0.27382 
 C                     6.51597  -2.58961   0.93143 
 H                     6.46052  -2.8465    1.98643 
 H                     5.52424  -2.62481   0.4964 
 H                     7.14039  -3.31844   0.42172 
 C                     8.48493  -1.11201   1.11844 
 H                     8.66773  -1.62125   2.05998 
 H                     9.12592  -1.5452    0.35389 
 H                     8.72829  -0.06533   1.25212 
 C                    -5.23491   0.30144   0.19256 
 C                    -6.48221   0.8377    0.27429 
 C                    -6.2962   -0.46914  -0.16637 
 N                    -7.25832   1.84294   0.55157 
 N                    -6.77161  -1.60175  -0.5935 
 C                    -6.6997    3.13527   0.90486 
 H                    -6.94343   3.38264   1.93526 
 H                    -5.62343   3.11982   0.78042 
 H                    -7.11117   3.89934   0.25065 
 C                    -8.70492   1.7578    0.48653 
 H                    -9.12754   2.25749   1.35324 
 H                    -9.08035   2.23816  -0.41432 
 H                    -9.02284   0.72292   0.50958 
 C                    -5.90293  -2.75078  -0.76879 
 H                    -5.85073  -3.02756  -1.81903 
 H                    -4.90858  -2.52128  -0.40444 
 H                    -6.2922   -3.59128  -0.20018 
 C                    -8.18148  -1.80619  -0.86682 
 H                    -8.28372  -2.37526  -1.7861 
 H                    -8.6573   -2.35626  -0.05791 
 H                    -8.67988  -0.85495  -1.00634 
 
 ITRead=  0  0  0  0  0  0  0  0  0  0  0  0  0  0  0  0  0  0  0  0
 ITRead=  0  0  0  0  0  0  0  0  0  0  0  0  0  0  0  0  0  0  0  0
 ITRead=  0  0  0  0  0  0  0  0  0  0  0  0  0  0  0  0  0  0  0  0
 ITRead=  0  0  0  0
 MicOpt= -1 -1 -1 -1 -1 -1 -1 -1 -1 -1 -1 -1 -1 -1 -1 -1 -1 -1 -1 -1
 MicOpt= -1 -1 -1 -1 -1 -1 -1 -1 -1 -1 -1 -1 -1 -1 -1 -1 -1 -1 -1 -1
 MicOpt= -1 -1 -1 -1 -1 -1 -1 -1 -1 -1 -1 -1 -1 -1 -1 -1 -1 -1 -1 -1
 MicOpt= -1 -1 -1 -1
 NAtoms=     64 NQM=       64 NQMF=       0 NMMI=      0 NMMIF=      0
                NMic=       0 NMicF=      0.
                    Isotopes and Nuclear Properties:
 (Nuclear quadrupole moments (NQMom) in fm**2, nuclear magnetic moments (NMagM)
  in nuclear magnetons)

  Atom         1           2           3           4           5           6           7           8           9          10
 IAtWgt=          12          12          32          12          12          12          12          12           1          12
 AtmWgt=  12.0000000  12.0000000  31.9720718  12.0000000  12.0000000  12.0000000  12.0000000  12.0000000   1.0078250  12.0000000
 NucSpn=           0           0           0           0           0           0           0           0           1           0
 AtZEff=  -0.0000000  -0.0000000  -0.0000000  -0.0000000  -0.0000000  -0.0000000  -0.0000000  -0.0000000  -0.0000000  -0.0000000
 NQMom=    0.0000000   0.0000000   0.0000000   0.0000000   0.0000000   0.0000000   0.0000000   0.0000000   0.0000000   0.0000000
 NMagM=    0.0000000   0.0000000   0.0000000   0.0000000   0.0000000   0.0000000   0.0000000   0.0000000   2.7928460   0.0000000
 AtZNuc=   6.0000000   6.0000000  16.0000000   6.0000000   6.0000000   6.0000000   6.0000000   6.0000000   1.0000000   6.0000000

  Atom        11          12          13          14          15          16          17          18          19          20
 IAtWgt=          12          12          12           1           1           1          12           1           1           1
 AtmWgt=  12.0000000  12.0000000  12.0000000   1.0078250   1.0078250   1.0078250  12.0000000   1.0078250   1.0078250   1.0078250
 NucSpn=           0           0           0           1           1           1           0           1           1           1
 AtZEff=  -0.0000000  -0.0000000  -0.0000000  -0.0000000  -0.0000000  -0.0000000  -0.0000000  -0.0000000  -0.0000000  -0.0000000
 NQMom=    0.0000000   0.0000000   0.0000000   0.0000000   0.0000000   0.0000000   0.0000000   0.0000000   0.0000000   0.0000000
 NMagM=    0.0000000   0.0000000   0.0000000   2.7928460   2.7928460   2.7928460   0.0000000   2.7928460   2.7928460   2.7928460
 AtZNuc=   6.0000000   6.0000000   6.0000000   1.0000000   1.0000000   1.0000000   6.0000000   1.0000000   1.0000000   1.0000000

  Atom        21          22          23          24          25          26          27          28          29          30
 IAtWgt=           1          32          12          12          12          14          14          12           1           1
 AtmWgt=   1.0078250  31.9720718  12.0000000  12.0000000  12.0000000  14.0030740  14.0030740  12.0000000   1.0078250   1.0078250
 NucSpn=           1           0           0           0           0           2           2           0           1           1
 AtZEff=  -0.0000000  -0.0000000  -0.0000000  -0.0000000  -0.0000000  -0.0000000  -0.0000000  -0.0000000  -0.0000000  -0.0000000
 NQMom=    0.0000000   0.0000000   0.0000000   0.0000000   0.0000000   2.0440000   2.0440000   0.0000000   0.0000000   0.0000000
 NMagM=    2.7928460   0.0000000   0.0000000   0.0000000   0.0000000   0.4037610   0.4037610   0.0000000   2.7928460   2.7928460
 AtZNuc=   1.0000000  16.0000000   6.0000000   6.0000000   6.0000000   7.0000000   7.0000000   6.0000000   1.0000000   1.0000000

  Atom        31          32          33          34          35          36          37          38          39          40
 IAtWgt=           1          12           1           1           1          12           1           1           1          12
 AtmWgt=   1.0078250  12.0000000   1.0078250   1.0078250   1.0078250  12.0000000   1.0078250   1.0078250   1.0078250  12.0000000
 NucSpn=           1           0           1           1           1           0           1           1           1           0
 AtZEff=  -0.0000000  -0.0000000  -0.0000000  -0.0000000  -0.0000000  -0.0000000  -0.0000000  -0.0000000  -0.0000000  -0.0000000
 NQMom=    0.0000000   0.0000000   0.0000000   0.0000000   0.0000000   0.0000000   0.0000000   0.0000000   0.0000000   0.0000000
 NMagM=    2.7928460   0.0000000   2.7928460   2.7928460   2.7928460   0.0000000   2.7928460   2.7928460   2.7928460   0.0000000
 AtZNuc=   1.0000000   6.0000000   1.0000000   1.0000000   1.0000000   6.0000000   1.0000000   1.0000000   1.0000000   6.0000000

  Atom        41          42          43          44          45          46          47          48          49          50
 IAtWgt=           1           1           1          12          12          12          14          14          12           1
 AtmWgt=   1.0078250   1.0078250   1.0078250  12.0000000  12.0000000  12.0000000  14.0030740  14.0030740  12.0000000   1.0078250
 NucSpn=           1           1           1           0           0           0           2           2           0           1
 AtZEff=  -0.0000000  -0.0000000  -0.0000000  -0.0000000  -0.0000000  -0.0000000  -0.0000000  -0.0000000  -0.0000000  -0.0000000
 NQMom=    0.0000000   0.0000000   0.0000000   0.0000000   0.0000000   0.0000000   2.0440000   2.0440000   0.0000000   0.0000000
 NMagM=    2.7928460   2.7928460   2.7928460   0.0000000   0.0000000   0.0000000   0.4037610   0.4037610   0.0000000   2.7928460
 AtZNuc=   1.0000000   1.0000000   1.0000000   6.0000000   6.0000000   6.0000000   7.0000000   7.0000000   6.0000000   1.0000000

  Atom        51          52          53          54          55          56          57          58          59          60
 IAtWgt=           1           1          12           1           1           1          12           1           1           1
 AtmWgt=   1.0078250   1.0078250  12.0000000   1.0078250   1.0078250   1.0078250  12.0000000   1.0078250   1.0078250   1.0078250
 NucSpn=           1           1           0           1           1           1           0           1           1           1
 AtZEff=  -0.0000000  -0.0000000  -0.0000000  -0.0000000  -0.0000000  -0.0000000  -0.0000000  -0.0000000  -0.0000000  -0.0000000
 NQMom=    0.0000000   0.0000000   0.0000000   0.0000000   0.0000000   0.0000000   0.0000000   0.0000000   0.0000000   0.0000000
 NMagM=    2.7928460   2.7928460   0.0000000   2.7928460   2.7928460   2.7928460   0.0000000   2.7928460   2.7928460   2.7928460
 AtZNuc=   1.0000000   1.0000000   6.0000000   1.0000000   1.0000000   1.0000000   6.0000000   1.0000000   1.0000000   1.0000000

  Atom        61          62          63          64
 IAtWgt=          12           1           1           1
 AtmWgt=  12.0000000   1.0078250   1.0078250   1.0078250
 NucSpn=           0           1           1           1
 AtZEff=  -0.0000000  -0.0000000  -0.0000000  -0.0000000
 NQMom=    0.0000000   0.0000000   0.0000000   0.0000000
 NMagM=    0.0000000   2.7928460   2.7928460   2.7928460
 AtZNuc=   6.0000000   1.0000000   1.0000000   1.0000000
 Leave Link  101 at Wed Jan 27 03:42:27 2021, MaxMem=  4026531840 cpu:               0.8 elap:               0.1
 (Enter /opt/ohpc/pub/libs/gaussian/g16-A.03/sandybridge/g16/l202.exe)
 Stoichiometry    C26H32N4S2(3+,2)
 Framework group  C1[X(C26H32N4S2)]
 Deg. of freedom   186
 Full point group                 C1      NOp   1
 Largest Abelian subgroup         C1      NOp   1
 Largest concise Abelian subgroup C1      NOp   1
                         Standard orientation:                         
 ---------------------------------------------------------------------
 Center     Atomic      Atomic             Coordinates (Angstroms)
 Number     Number       Type             X           Y           Z
 ---------------------------------------------------------------------
      1          6           0        2.928949   -0.209586    0.466429
      2          6           0        1.563914   -0.061175    0.303790
      3         16           0        0.549634   -0.929940    1.465043
      4          6           0        1.080492    0.744795   -0.706590
      5          6           0       -1.720975   -1.178026   -0.124019
      6          6           0       -1.104728   -0.556786    0.961278
      7          6           0        3.804439    0.453059   -0.373760
      8          6           0        1.957571    1.398720   -1.546095
      9          1           0        0.017059    0.867388   -0.843825
     10          6           0       -3.055310   -0.905897   -0.375396
     11          6           0       -1.834379    0.303673    1.763498
     12          6           0       -3.157322    0.570140    1.506853
     13          6           0       -3.772824   -0.043708    0.429435
     14          1           0       -3.535939   -1.385849   -1.215765
     15          1           0       -1.346414    0.763075    2.610001
     16          1           0       -3.711030    1.227115    2.160412
     17          6           0        3.316329    1.262630   -1.386512
     18          1           0        3.309964   -0.825983    1.268943
     19          1           0        0.121390   -2.546838   -0.437504
     20          1           0        1.570409    2.020933   -2.339064
     21          1           0        3.993957    1.766527   -2.059405
     22         16           0       -0.923466   -2.279512   -1.229412
     23          6           0       -5.179371    0.186625    0.159910
     24          6           0       -6.258258    1.013194    0.194238
     25          6           0       -6.373984   -0.291545   -0.281001
     26          7           0       -6.778879    2.172200    0.466391
     27          7           0       -7.085837   -1.264246   -0.765069
     28          6           0       -5.943792    3.274283    0.907684
     29          1           0       -6.187951    3.545500    1.931936
     30          1           0       -4.898805    2.994168    0.846509
     31          1           0       -6.108951    4.134804    0.264794
     32          6           0       -8.194976    2.451187    0.318309
     33          1           0       -8.537142    3.011091    1.183702
     34          1           0       -8.380874    3.039067   -0.577705
     35          1           0       -8.758216    1.527533    0.273817
     36          6           0       -6.515968   -2.589608   -0.931428
     37          1           0       -6.460524   -2.846499   -1.986434
     38          1           0       -5.524243   -2.624805   -0.496396
     39          1           0       -7.140387   -3.318442   -0.421721
     40          6           0       -8.484929   -1.112006   -1.118438
     41          1           0       -8.667734   -1.621246   -2.059984
     42          1           0       -9.125917   -1.545202   -0.353886
     43          1           0       -8.728287   -0.065327   -1.252120
     44          6           0        5.234909    0.301436   -0.192555
     45          6           0        6.482207    0.837696   -0.274291
     46          6           0        6.296202   -0.469144    0.166373
     47          7           0        7.258316    1.842942   -0.551570
     48          7           0        6.771609   -1.601745    0.593499
     49          6           0        6.699705    3.135271   -0.904858
     50          1           0        6.943427    3.382636   -1.935256
     51          1           0        5.623434    3.119821   -0.780416
     52          1           0        7.111169    3.899344   -0.250646
     53          6           0        8.704916    1.757804   -0.486526
     54          1           0        9.127537    2.257490   -1.353238
     55          1           0        9.080352    2.238157    0.414316
     56          1           0        9.022841    0.722915   -0.509579
     57          6           0        5.902929   -2.750782    0.768792
     58          1           0        5.850729   -3.027562    1.819029
     59          1           0        4.908582   -2.521281    0.404440
     60          1           0        6.292204   -3.591280    0.200176
     61          6           0        8.181475   -1.806186    0.866823
     62          1           0        8.283723   -2.375263    1.786100
     63          1           0        8.657299   -2.356258    0.057912
     64          1           0        8.679880   -0.854950    1.006340
 ---------------------------------------------------------------------
 Rotational constants (GHZ):           0.3037259           0.0375439           0.0353071
 Leave Link  202 at Wed Jan 27 03:42:28 2021, MaxMem=  4026531840 cpu:               0.1 elap:               0.0
 (Enter /opt/ohpc/pub/libs/gaussian/g16-A.03/sandybridge/g16/l301.exe)
 Standard basis: TZVP (5D, 7F)
 Ernie: Thresh=  0.10000D-02 Tol=  0.10000D-05 Strict=F.
 There are   838 symmetry adapted cartesian basis functions of A   symmetry.
 There are   806 symmetry adapted basis functions of A   symmetry.
   806 basis functions,  1400 primitive gaussians,   838 cartesian basis functions
   123 alpha electrons      122 beta electrons
       nuclear repulsion energy      3278.9471045421 Hartrees.
 IExCor=33909 DFT=T Ex+Corr=LC-wHPBE ExCW=0 ScaHFX=  1.000000
 ScaDFX=  1.000000  1.000000  1.000000  1.000000 ScalE2=  1.000000  1.000000
 IRadAn=      5 IRanWt=     -1 IRanGd=            0 ICorTp=0 IEmpDi=  4
 HFx  wShort=  0.000000 wLong=  0.156200 cFull=  0.000000 cShort=  0.000000 cLong=  1.000000
 DFx  wShort=  0.000000 wLong=  0.156200 cFull=  0.000000 cShort=  1.000000 cLong=  0.000000
 NAtoms=   64 NActive=   64 NUniq=   64 SFac= 1.00D+00 NAtFMM=   60 NAOKFM=T Big=T
 Integral buffers will be    131072 words long.
 Raffenetti 2 integral format.
 Two-electron integral symmetry is turned on.
 Leave Link  301 at Wed Jan 27 03:42:28 2021, MaxMem=  4026531840 cpu:               0.4 elap:               0.1
 (Enter /opt/ohpc/pub/libs/gaussian/g16-A.03/sandybridge/g16/l302.exe)
 NPDir=0 NMtPBC=     1 NCelOv=     1 NCel=       1 NClECP=     1 NCelD=      1
         NCelK=      1 NCelE2=     1 NClLst=     1 CellRange=     0.0.
 One-electron integrals computed using PRISM.
 One-electron integral symmetry used in STVInt
 NBasis=   806 RedAO= T EigKep=  6.39D-06  NBF=   806
 NBsUse=   806 1.00D-06 EigRej= -1.00D+00 NBFU=   806
 Precomputing XC quadrature grid using
 IXCGrd= 4 IRadAn=           5 IRanWt=          -1 IRanGd=           0 AccXCQ= 0.00D+00.
 Generated NRdTot=       0 NPtTot=           0 NUsed=           0 NTot=          32
 NSgBfM=   770   766   769   770   770 MxSgAt=    64 MxSgA2=    64.
 Leave Link  302 at Wed Jan 27 03:42:30 2021, MaxMem=  4026531840 cpu:              18.3 elap:               2.3
 (Enter /opt/ohpc/pub/libs/gaussian/g16-A.03/sandybridge/g16/l303.exe)
 DipDrv:  MaxL=1.
 Leave Link  303 at Wed Jan 27 03:42:30 2021, MaxMem=  4026531840 cpu:               1.4 elap:               0.2
 (Enter /opt/ohpc/pub/libs/gaussian/g16-A.03/sandybridge/g16/l401.exe)
 ExpMin= 9.52D-02 ExpMax= 6.07D+04 ExpMxC= 2.07D+03 IAcc=3 IRadAn=         5 AccDes= 0.00D+00
 Harris functional with IExCor=33909 and IRadAn=       5 diagonalized for initial guess.
 HarFok:  IExCor=33909 AccDes= 0.00D+00 IRadAn=         5 IDoV= 1 UseB2=F ITyADJ=14
 ICtDFT=  3500011 ScaDFX=  1.000000  1.000000  1.000000  1.000000
 FoFCou: FMM=F IPFlag=           0 FMFlag=      100000 FMFlg1=        2001
         NFxFlg=           0 DoJE=T BraDBF=F KetDBF=T FulRan=T
         wScrn=  0.000000 ICntrl=       500 IOpCl=  0 I1Cent=   200000004 NGrid=           0
         NMat0=    1 NMatS0=      1 NMatT0=    0 NMatD0=    1 NMtDS0=    0 NMtDT0=    0
 Petite list used in FoFCou.
 Harris En= -2002.83212331326    
 JPrj=0 DoOrth=F DoCkMO=F.
 Initial guess <Sx>= 0.0000 <Sy>= 0.0000 <Sz>= 0.5000 <S**2>= 0.7500 S= 0.5000
 Leave Link  401 at Wed Jan 27 03:42:42 2021, MaxMem=  4026531840 cpu:              90.5 elap:              11.4
 (Enter /opt/ohpc/pub/libs/gaussian/g16-A.03/sandybridge/g16/l502.exe)
 Integral symmetry usage will be decided dynamically.
 UHF open shell SCF:
 Using DIIS extrapolation, IDIIS=    10.
 NGot=  4026531840 LenX=  4025112240 LenY=  4024409158
 Requested convergence on RMS density matrix=1.00D-06 within  32 cycles.
 Requested convergence on MAX density matrix=1.00D-04.
 Requested convergence on             energy=1.00D-04.
 Virtual orbitals will be shifted by   0.500 hartree.
 No special actions if energy rises.
 Dynamic level shift is on during FON iterations.

 Cycle   1  Pass 1  IDiag  1:
 FoFJK:  IHMeth= 1 ICntrl=       0 DoSepK=T KAlg= 0 I1Cent=           0 FoldK=F
 IRaf=         1 NMat=       1 IRICut=       1 DoRegI=T DoRafI=F ISym2E= 0 IDoP0=0 IntGTp=1.
 FoFCou: FMM=T IPFlag=           0 FMFlag=      100000 FMFlg1=        2001
         NFxFlg=           0 DoJE=T BraDBF=F KetDBF=F FulRan=T
         wScrn=  0.000000 ICntrl=       500 IOpCl=  0 I1Cent=           0 NGrid=           0
         NMat0=    1 NMatS0=      1 NMatT0=    0 NMatD0=    1 NMtDS0=    0 NMtDT0=    0
 Symmetry not used in FoFCou.
 FMM levels:  10  Number of levels for PrismC:   9
 E= -2022.63003598130    
 DIIS: error= 2.97D-02 at cycle   1 NSaved=   1.
 NSaved= 1 IEnMin= 1 EnMin= -2022.63003598130     IErMin= 1 ErrMin= 2.97D-02
 ErrMax= 2.97D-02  0.00D+00 EMaxC= 1.00D+00 BMatC= 2.53D+00 BMatP= 2.53D+00
 IDIUse=1 WtCom= 1.00D+00 WtEn= 0.00D+00
 Coeff-Com:  0.100D+01
 Coeff:      0.100D+01
 Gap=     0.470 Goal=   None    Shift=    0.500
 T= 1490. Gap= 0.623 NK=0 IS=  124 IE=  806 IFin=  123
          NO(<0.9)=   0  NV(>0.1)=   0    123.00e < EF      0.00e >EF  Err=0.0D+00
 Gap=     0.092 Goal=   None    Shift=    0.500
 T= 1490. Gap= 0.416 NK=0 IS=  123 IE=  806 IFin=  122
          NO(<0.9)=   0  NV(>0.1)=   0    122.00e < EF      0.00e >EF  Err=0.0D+00
 GapD=    0.092 DampG=0.500 DampE=0.500 DampFc=0.2500 IDamp=-1.
 Damping current iteration by 2.50D-01
 RMSDP=3.98D-03 MaxDP=7.32D-01              OVMax= 1.11D-01

 Cycle   2  Pass 1  IDiag  1:
 E= -2022.85674571673     Delta-E=       -0.226709735425 Rises=F Damp=T
 DIIS: error= 2.06D-02 at cycle   2 NSaved=   2.
 NSaved= 2 IEnMin= 2 EnMin= -2022.85674571673     IErMin= 2 ErrMin= 2.06D-02
 ErrMax= 2.06D-02  0.00D+00 EMaxC= 1.00D+00 BMatC= 1.17D+00 BMatP= 2.53D+00
 IDIUse=1 WtCom= 1.00D+00 WtEn= 0.00D+00
 Coeff-Com: -0.197D+01 0.297D+01
 Coeff:     -0.197D+01 0.297D+01
 Gap=     0.289 Goal=   None    Shift=    0.500
 T= 1425. Gap= 0.708 NK=0 IS=  124 IE=  806 IFin=  123
          NO(<0.9)=   0  NV(>0.1)=   0    123.00e < EF      0.00e >EF  Err=0.0D+00
 Gap=     0.090 Goal=   None    Shift=    0.500
 T= 1425. Gap= 0.561 NK=0 IS=  123 IE=  806 IFin=  122
          NO(<0.9)=   0  NV(>0.1)=   0    122.00e < EF      0.00e >EF  Err=0.0D+00
 GapD=    0.090 DampG=0.500 DampE=0.500 DampFc=0.2500 IDamp=-1.
 Damping current iteration by 2.50D-01
 RMSDP=2.84D-03 MaxDP=3.71D-01 DE=-2.27D-01 OVMax= 2.15D-02

 Cycle   3  Pass 1  IDiag  1:
 E= -2022.98535270800     Delta-E=       -0.128606991277 Rises=F Damp=T
 DIIS: error= 1.46D-02 at cycle   3 NSaved=   3.
 NSaved= 3 IEnMin= 3 EnMin= -2022.98535270800     IErMin= 3 ErrMin= 1.46D-02
 ErrMax= 1.46D-02  0.00D+00 EMaxC= 1.00D+00 BMatC= 5.98D-01 BMatP= 1.17D+00
 IDIUse=1 WtCom= 1.00D+00 WtEn= 0.00D+00
 Coeff-Com:  0.280D+00-0.322D+01 0.394D+01
 Coeff:      0.280D+00-0.322D+01 0.394D+01
 Gap=     0.226 Goal=   None    Shift=    0.500
 T= 1300. Gap= 0.725 NK=0 IS=  124 IE=  806 IFin=  123
          NO(<0.9)=   0  NV(>0.1)=   0    123.00e < EF      0.00e >EF  Err=0.0D+00
 Gap=     0.088 Goal=   None    Shift=    0.500
 T= 1300. Gap= 0.588 NK=0 IS=  123 IE=  806 IFin=  122
          NO(<0.9)=   0  NV(>0.1)=   0    122.00e < EF      0.00e >EF  Err=0.0D+00
 GapD=    0.088 DampG=0.500 DampE=0.500 DampFc=0.2500 IDamp=-1.
 Damping current iteration by 2.50D-01
 RMSDP=2.19D-03 MaxDP=2.43D-01 DE=-1.29D-01 OVMax= 1.56D-02

 Cycle   4  Pass 1  IDiag  1:
 E= -2023.06534023660     Delta-E=       -0.079987528597 Rises=F Damp=T
 DIIS: error= 1.07D-02 at cycle   4 NSaved=   4.
 NSaved= 4 IEnMin= 4 EnMin= -2023.06534023660     IErMin= 4 ErrMin= 1.07D-02
 ErrMax= 1.07D-02  0.00D+00 EMaxC= 1.00D+00 BMatC= 3.23D-01 BMatP= 5.98D-01
 IDIUse=1 WtCom= 1.00D+00 WtEn= 0.00D+00
 Coeff-Com:  0.200D+00-0.226D+00-0.318D+01 0.421D+01
 Coeff:      0.200D+00-0.226D+00-0.318D+01 0.421D+01
 Gap=     0.225 Goal=   None    Shift=    0.500
 T= 1092. Gap= 0.725 NK=4 IS=  124 IE=  137 IFin=  123
          NO(<0.9)=   0  NV(>0.1)=   0    123.00e < EF      0.00e >EF  Err=0.0D+00
 Gap=     0.088 Goal=   None    Shift=    0.500
 T= 1092. Gap= 0.589 NK=4 IS=  123 IE=  136 IFin=  122
          NO(<0.9)=   0  NV(>0.1)=   0    122.00e < EF      0.00e >EF  Err=0.0D+00
 GapD=    0.088 DampG=0.500 DampE=0.500 DampFc=0.2500 IDamp=-1.
 Damping current iteration by 2.50D-01
 RMSDP=1.68D-03 MaxDP=1.91D-01 DE=-8.00D-02 OVMax= 1.51D-02

 Cycle   5  Pass 1  IDiag  1:
 E= -2023.11852330135     Delta-E=       -0.053183064753 Rises=F Damp=T
 DIIS: error= 8.52D-03 at cycle   5 NSaved=   5.
 NSaved= 5 IEnMin= 5 EnMin= -2023.11852330135     IErMin= 5 ErrMin= 8.52D-03
 ErrMax= 8.52D-03  0.00D+00 EMaxC= 1.00D+00 BMatC= 1.79D-01 BMatP= 3.23D-01
 IDIUse=1 WtCom= 1.00D+00 WtEn= 0.00D+00
 Coeff-Com:  0.638D-02 0.562D+00-0.114D+01-0.274D+01 0.431D+01
 Coeff:      0.638D-02 0.562D+00-0.114D+01-0.274D+01 0.431D+01
 Gap=     0.227 Goal=   None    Shift=    0.500
 T=  910. Gap= 0.727 NK=4 IS=  124 IE=  137 IFin=  123
          NO(<0.9)=   0  NV(>0.1)=   0    123.00e < EF      0.00e >EF  Err=0.0D+00
 Gap=     0.091 Goal=   None    Shift=    0.500
 T=  910. Gap= 0.591 NK=4 IS=  123 IE=  136 IFin=  122
          NO(<0.9)=   0  NV(>0.1)=   0    122.00e < EF      0.00e >EF  Err=0.0D+00
 GapD=    0.091 DampG=0.500 DampE=1.000 DampFc=0.5000 IDamp=-1.
 Damping current iteration by 5.00D-01
 RMSDP=1.27D-03 MaxDP=1.42D-01 DE=-5.32D-02 OVMax= 1.41D-02

 Cycle   6  Pass 1  IDiag  1:
 E= -2023.18960017890     Delta-E=       -0.071076877547 Rises=F Damp=T
 DIIS: error= 5.17D-03 at cycle   6 NSaved=   6.
 NSaved= 6 IEnMin= 6 EnMin= -2023.18960017890     IErMin= 6 ErrMin= 5.17D-03
 ErrMax= 5.17D-03  0.00D+00 EMaxC= 1.00D+00 BMatC= 4.42D-02 BMatP= 1.79D-01
 IDIUse=1 WtCom= 1.00D+00 WtEn= 0.00D+00
 Coeff-Com: -0.454D-01 0.992D-01 0.885D+00-0.189D+00-0.311D+01 0.336D+01
 Coeff:     -0.454D-01 0.992D-01 0.885D+00-0.189D+00-0.311D+01 0.336D+01
 Gap=     0.228 Goal=   None    Shift=    0.500
 T=  713. Gap= 0.728 NK=4 IS=  124 IE=  137 IFin=  123
          NO(<0.9)=   0  NV(>0.1)=   0    123.00e < EF      0.00e >EF  Err=0.0D+00
 Gap=     0.093 Goal=   None    Shift=    0.500
 T=  713. Gap= 0.594 NK=4 IS=  123 IE=  136 IFin=  122
          NO(<0.9)=   0  NV(>0.1)=   0    122.00e < EF      0.00e >EF  Err=0.0D+00
 GapD=    0.093 DampG=0.500 DampE=1.000 DampFc=0.5000 IDamp=-1.
 Damping current iteration by 5.00D-01
 RMSDP=6.40D-04 MaxDP=6.87D-02 DE=-7.11D-02 OVMax= 1.39D-02

 Cycle   7  Pass 1  IDiag  1:
 E= -2023.22161815653     Delta-E=       -0.032017977633 Rises=F Damp=T
 DIIS: error= 3.30D-03 at cycle   7 NSaved=   7.
 NSaved= 7 IEnMin= 7 EnMin= -2023.22161815653     IErMin= 7 ErrMin= 3.30D-03
 ErrMax= 3.30D-03  0.00D+00 EMaxC= 1.00D+00 BMatC= 1.12D-02 BMatP= 4.42D-02
 IDIUse=1 WtCom= 1.00D+00 WtEn= 0.00D+00
 Coeff-Com: -0.130D-01-0.150D+00 0.816D+00 0.621D+00-0.205D+01-0.114D+01
 Coeff-Com:  0.291D+01
 Coeff:     -0.130D-01-0.150D+00 0.816D+00 0.621D+00-0.205D+01-0.114D+01
 Coeff:      0.291D+01
 Gap=     0.228 Goal=   None    Shift=    0.500
 T=  496. Gap= 0.728 NK=4 IS=  124 IE=  137 IFin=  123
          NO(<0.9)=   0  NV(>0.1)=   0    123.00e < EF      0.00e >EF  Err=0.0D+00
 Gap=     0.094 Goal=   None    Shift=    0.500
 T=  496. Gap= 0.594 NK=4 IS=  123 IE=  136 IFin=  122
          NO(<0.9)=   0  NV(>0.1)=   0    122.00e < EF      0.00e >EF  Err=0.0D+00
 GapD=    0.094 DampG=0.500 DampE=1.000 DampFc=0.5000 IDamp=-1.
 Damping current iteration by 5.00D-01
 RMSDP=3.31D-04 MaxDP=3.22D-02 DE=-3.20D-02 OVMax= 1.25D-02

 Cycle   8  Pass 1  IDiag  1:
 E= -2023.23690436899     Delta-E=       -0.015286212457 Rises=F Damp=T
 DIIS: error= 2.23D-03 at cycle   8 NSaved=   8.
 NSaved= 8 IEnMin= 8 EnMin= -2023.23690436899     IErMin= 8 ErrMin= 2.23D-03
 ErrMax= 2.23D-03  0.00D+00 EMaxC= 1.00D+00 BMatC= 2.96D-03 BMatP= 1.12D-02
 IDIUse=1 WtCom= 1.00D+00 WtEn= 0.00D+00
 Coeff-Com:  0.103D-01-0.101D+00-0.906D-01 0.309D+00 0.918D+00-0.154D+01
 Coeff-Com: -0.305D+01 0.454D+01
 Coeff:      0.103D-01-0.101D+00-0.906D-01 0.309D+00 0.918D+00-0.154D+01
 Coeff:     -0.305D+01 0.454D+01
 Gap=     0.229 Goal=   None    Shift=    0.500
 T=  218. Gap= 0.729 NK=4 IS=  124 IE=  137 IFin=  123
          NO(<0.9)=   0  NV(>0.1)=   0    123.00e < EF      0.00e >EF  Err=0.0D+00
 Gap=     0.094 Goal=   None    Shift=    0.500
 T=  218. Gap= 0.595 NK=4 IS=  123 IE=  136 IFin=  122
          NO(<0.9)=   0  NV(>0.1)=   0    122.00e < EF      0.00e >EF  Err=0.0D+00
 GapD=    0.094 DampG=0.500 DampE=1.000 DampFc=0.5000 IDamp=-1.
 Damping current iteration by 5.00D-01
 RMSDP=1.91D-04 MaxDP=1.98D-02 DE=-1.53D-02 OVMax= 1.22D-02

 Cycle   9  Pass 1  IDiag  1:
 E= -2023.24446108836     Delta-E=       -0.007556719373 Rises=F Damp=T
 DIIS: error= 1.59D-03 at cycle   9 NSaved=   9.
 NSaved= 9 IEnMin= 9 EnMin= -2023.24446108836     IErMin= 9 ErrMin= 1.59D-03
 ErrMax= 1.59D-03  0.00D+00 EMaxC= 1.00D+00 BMatC= 8.64D-04 BMatP= 2.96D-03
 IDIUse=1 WtCom= 1.00D+00 WtEn= 0.00D+00
 Coeff-Com:  0.469D-02-0.511D-01-0.146D+00 0.962D-01 0.977D+00-0.931D+00
 Coeff-Com: -0.237D+01 0.168D+01 0.175D+01
 Coeff:      0.469D-02-0.511D-01-0.146D+00 0.962D-01 0.977D+00-0.931D+00
 Coeff:     -0.237D+01 0.168D+01 0.175D+01
 Gap=     0.229 Goal=   None    Shift=    0.500
 Gap=     0.095 Goal=   None    Shift=    0.500
 GapD=    0.095 DampG=0.500 DampE=1.000 DampFc=0.5000 IDamp=-1.
 Damping current iteration by 5.00D-01
 RMSDP=1.21D-04 MaxDP=1.51D-02 DE=-7.56D-03 OVMax= 9.60D-03

 Cycle  10  Pass 1  IDiag  1:
 E= -2023.24828305836     Delta-E=       -0.003821969994 Rises=F Damp=T
 DIIS: error= 1.17D-03 at cycle  10 NSaved=  10.
 NSaved=10 IEnMin=10 EnMin= -2023.24828305836     IErMin=10 ErrMin= 1.17D-03
 ErrMax= 1.17D-03  0.00D+00 EMaxC= 1.00D+00 BMatC= 2.89D-04 BMatP= 8.64D-04
 IDIUse=1 WtCom= 1.00D+00 WtEn= 0.00D+00
 Coeff-Com: -0.136D-02-0.372D-01 0.236D+00 0.222D+00-0.102D+01 0.354D+00
 Coeff-Com:  0.178D+01 0.812D+00-0.919D+01 0.785D+01
 Coeff:     -0.136D-02-0.372D-01 0.236D+00 0.222D+00-0.102D+01 0.354D+00
 Coeff:      0.178D+01 0.812D+00-0.919D+01 0.785D+01
 Gap=     0.229 Goal=   None    Shift=    0.500
 Gap=     0.095 Goal=   None    Shift=    0.500
 GapD=    0.095 DampG=0.500 DampE=1.000 DampFc=0.5000 IDamp=-1.
 Damping current iteration by 5.00D-01
 RMSDP=9.73D-05 MaxDP=1.40D-02 DE=-3.82D-03 OVMax= 9.29D-03

 Cycle  11  Pass 1  IDiag  1:
 E= -2023.25024769378     Delta-E=       -0.001964635418 Rises=F Damp=T
 DIIS: error= 1.01D-03 at cycle  11 NSaved=  11.
 NSaved=11 IEnMin=11 EnMin= -2023.25024769378     IErMin=11 ErrMin= 1.01D-03
 ErrMax= 1.01D-03  0.00D+00 EMaxC= 1.00D+00 BMatC= 1.32D-04 BMatP= 2.89D-04
 IDIUse=1 WtCom= 1.00D+00 WtEn= 0.00D+00
 Large coefficients: NSaved= 11 BigCof=   10.45 CofMax=   10.00 Det=-1.86D-07
 Inversion failed.  Reducing to 10 matrices.
 Large coefficients: NSaved= 10 BigCof=   10.27 CofMax=   10.00 Det=-1.89D-07
 Inversion failed.  Reducing to  9 matrices.
 Large coefficients: NSaved=  9 BigCof=   10.01 CofMax=   10.00 Det=-1.91D-07
 Inversion failed.  Reducing to  8 matrices.
 Coeff-Com:  0.187D+00-0.436D+00 0.156D+00 0.954D+00 0.141D+01-0.806D+01
 Coeff-Com:  0.586D+01 0.925D+00
 Coeff:      0.187D+00-0.436D+00 0.156D+00 0.954D+00 0.141D+01-0.806D+01
 Coeff:      0.586D+01 0.925D+00
 Gap=     0.229 Goal=   None    Shift=    0.500
 Gap=     0.095 Goal=   None    Shift=    0.500
 GapD=    0.095 DampG=0.500 DampE=1.000 DampFc=0.5000 IDamp=-1.
 Damping current iteration by 5.00D-01
 RMSDP=7.23D-05 MaxDP=1.01D-02 DE=-1.96D-03 OVMax= 7.05D-03

 Cycle  12  Pass 1  IDiag  1:
 E= -2023.25128082903     Delta-E=       -0.001033135251 Rises=F Damp=T
 DIIS: error= 9.44D-04 at cycle  12 NSaved=   9.
 NSaved= 9 IEnMin= 9 EnMin= -2023.25128082903     IErMin= 9 ErrMin= 9.44D-04
 ErrMax= 9.44D-04  0.00D+00 EMaxC= 1.00D+00 BMatC= 7.65D-05 BMatP= 1.32D-04
 IDIUse=1 WtCom= 1.00D+00 WtEn= 0.00D+00
 Coeff-Com:  0.585D+00-0.106D+01-0.246D-01 0.118D+01 0.191D+01-0.459D+01
 Coeff-Com:  0.403D+01-0.892D+01 0.790D+01
 Coeff:      0.585D+00-0.106D+01-0.246D-01 0.118D+01 0.191D+01-0.459D+01
 Coeff:      0.403D+01-0.892D+01 0.790D+01
 Gap=     0.229 Goal=   None    Shift=    0.500
 Gap=     0.095 Goal=   None    Shift=    0.500
 RMSDP=6.37D-05 MaxDP=8.92D-03 DE=-1.03D-03 OVMax= 7.10D-03

 Cycle  13  Pass 1  IDiag  1:
 E= -2023.25243515031     Delta-E=       -0.001154321286 Rises=F Damp=F
 DIIS: error= 8.50D-04 at cycle  13 NSaved=  10.
 NSaved=10 IEnMin=10 EnMin= -2023.25243515031     IErMin=10 ErrMin= 8.50D-04
 ErrMax= 8.50D-04  0.00D+00 EMaxC= 1.00D+00 BMatC= 4.26D-05 BMatP= 7.65D-05
 IDIUse=1 WtCom= 1.00D+00 WtEn= 0.00D+00
 Coeff-Com:  0.419D+00-0.741D+00-0.439D-01 0.599D+00 0.174D+01-0.316D+01
 Coeff-Com:  0.383D+01-0.874D+01 0.620D+01 0.892D+00
 Coeff:      0.419D+00-0.741D+00-0.439D-01 0.599D+00 0.174D+01-0.316D+01
 Coeff:      0.383D+01-0.874D+01 0.620D+01 0.892D+00
 Gap=     0.229 Goal=   None    Shift=    0.500
 Gap=     0.095 Goal=   None    Shift=    0.500
 RMSDP=2.04D-05 MaxDP=2.52D-03 DE=-1.15D-03 OVMax= 5.67D-03

 Cycle  14  Pass 1  IDiag  1:
 E= -2023.25249853797     Delta-E=       -0.000063387661 Rises=F Damp=F
 DIIS: error= 8.04D-04 at cycle  14 NSaved=  11.
 NSaved=11 IEnMin=11 EnMin= -2023.25249853797     IErMin=11 ErrMin= 8.04D-04
 ErrMax= 8.04D-04  0.00D+00 EMaxC= 1.00D+00 BMatC= 3.33D-05 BMatP= 4.26D-05
 IDIUse=1 WtCom= 1.00D+00 WtEn= 0.00D+00
 Coeff-Com: -0.413D-01 0.119D+00-0.622D-01-0.454D+00 0.550D+00 0.207D-01
 Coeff-Com:  0.174D+01-0.349D+01 0.120D+01-0.200D+01 0.341D+01
 Coeff:     -0.413D-01 0.119D+00-0.622D-01-0.454D+00 0.550D+00 0.207D-01
 Coeff:      0.174D+01-0.349D+01 0.120D+01-0.200D+01 0.341D+01
 Gap=     0.229 Goal=   None    Shift=    0.500
 Gap=     0.095 Goal=   None    Shift=    0.500
 RMSDP=2.13D-05 MaxDP=2.82D-03 DE=-6.34D-05 OVMax= 6.00D-03

 Cycle  15  Pass 1  IDiag  1:
 E= -2023.25255406579     Delta-E=       -0.000055527819 Rises=F Damp=F
 DIIS: error= 7.62D-04 at cycle  15 NSaved=  12.
 NSaved=12 IEnMin=12 EnMin= -2023.25255406579     IErMin=12 ErrMin= 7.62D-04
 ErrMax= 7.62D-04  0.00D+00 EMaxC= 1.00D+00 BMatC= 3.04D-05 BMatP= 3.33D-05
 IDIUse=1 WtCom= 1.00D+00 WtEn= 0.00D+00
 Coeff-Com: -0.361D-01 0.723D-01 0.472D-01-0.123D+00-0.278D+00-0.465D+00
 Coeff-Com:  0.139D+01 0.506D+00-0.640D+00-0.405D+01 0.247D+01 0.210D+01
 Coeff:     -0.361D-01 0.723D-01 0.472D-01-0.123D+00-0.278D+00-0.465D+00
 Coeff:      0.139D+01 0.506D+00-0.640D+00-0.405D+01 0.247D+01 0.210D+01
 Gap=     0.229 Goal=   None    Shift=    0.500
 Gap=     0.095 Goal=   None    Shift=    0.500
 RMSDP=1.80D-05 MaxDP=2.21D-03 DE=-5.55D-05 OVMax= 5.84D-03

 Cycle  16  Pass 1  IDiag  1:
 E= -2023.25260172672     Delta-E=       -0.000047660928 Rises=F Damp=F
 DIIS: error= 7.21D-04 at cycle  16 NSaved=  13.
 NSaved=13 IEnMin=13 EnMin= -2023.25260172672     IErMin=13 ErrMin= 7.21D-04
 ErrMax= 7.21D-04  0.00D+00 EMaxC= 1.00D+00 BMatC= 2.65D-05 BMatP= 3.04D-05
 IDIUse=1 WtCom= 1.00D+00 WtEn= 0.00D+00
 Coeff-Com:  0.983D-01-0.217D+00 0.146D+00 0.392D+00-0.406D+00-0.169D+01
 Coeff-Com:  0.183D+01 0.856D+00 0.954D-01-0.353D+01 0.967D+00 0.246D+00
 Coeff-Com:  0.221D+01
 Coeff:      0.983D-01-0.217D+00 0.146D+00 0.392D+00-0.406D+00-0.169D+01
 Coeff:      0.183D+01 0.856D+00 0.954D-01-0.353D+01 0.967D+00 0.246D+00
 Coeff:      0.221D+01
 Gap=     0.229 Goal=   None    Shift=    0.500
 Gap=     0.095 Goal=   None    Shift=    0.500
 RMSDP=1.60D-05 MaxDP=1.89D-03 DE=-4.77D-05 OVMax= 5.64D-03

 Cycle  17  Pass 1  IDiag  1:
 E= -2023.25264338824     Delta-E=       -0.000041661520 Rises=F Damp=F
 DIIS: error= 6.79D-04 at cycle  17 NSaved=  14.
 NSaved=14 IEnMin=14 EnMin= -2023.25264338824     IErMin=14 ErrMin= 6.79D-04
 ErrMax= 6.79D-04  0.00D+00 EMaxC= 1.00D+00 BMatC= 2.28D-05 BMatP= 2.65D-05
 IDIUse=1 WtCom= 1.00D+00 WtEn= 0.00D+00
 Coeff-Com:  0.188D+00-0.412D+00 0.171D+00 0.644D+00-0.829D-01-0.213D+01
 Coeff-Com:  0.217D+01-0.178D+01 0.229D+01-0.737D+00-0.473D+00-0.277D+01
 Coeff-Com:  0.146D+01 0.247D+01
 Coeff:      0.188D+00-0.412D+00 0.171D+00 0.644D+00-0.829D-01-0.213D+01
 Coeff:      0.217D+01-0.178D+01 0.229D+01-0.737D+00-0.473D+00-0.277D+01
 Coeff:      0.146D+01 0.247D+01
 Gap=     0.229 Goal=   None    Shift=    0.500
 Gap=     0.095 Goal=   None    Shift=    0.500
 RMSDP=1.63D-05 MaxDP=1.88D-03 DE=-4.17D-05 OVMax= 5.86D-03

 Cycle  18  Pass 1  IDiag  1:
 E= -2023.25268303998     Delta-E=       -0.000039651744 Rises=F Damp=F
 DIIS: error= 6.42D-04 at cycle  18 NSaved=  15.
 NSaved=15 IEnMin=15 EnMin= -2023.25268303998     IErMin=15 ErrMin= 6.42D-04
 ErrMax= 6.42D-04  0.00D+00 EMaxC= 1.00D+00 BMatC= 2.10D-05 BMatP= 2.28D-05
 IDIUse=1 WtCom= 1.00D+00 WtEn= 0.00D+00
 Coeff-Com:  0.167D+00-0.362D+00 0.132D+00 0.556D+00-0.663D-02-0.181D+01
 Coeff-Com:  0.220D+01-0.271D+01 0.269D+01-0.341D+00-0.271D+00-0.253D+01
 Coeff-Com:  0.717D+00 0.162D+01 0.949D+00
 Coeff:      0.167D+00-0.362D+00 0.132D+00 0.556D+00-0.663D-02-0.181D+01
 Coeff:      0.220D+01-0.271D+01 0.269D+01-0.341D+00-0.271D+00-0.253D+01
 Coeff:      0.717D+00 0.162D+01 0.949D+00
 Gap=     0.229 Goal=   None    Shift=    0.500
 Gap=     0.095 Goal=   None    Shift=    0.500
 RMSDP=1.23D-05 MaxDP=1.38D-03 DE=-3.97D-05 OVMax= 5.08D-03

 Cycle  19  Pass 1  IDiag  1:
 E= -2023.25271598872     Delta-E=       -0.000032948732 Rises=F Damp=F
 DIIS: error= 5.97D-04 at cycle  19 NSaved=  16.
 NSaved=16 IEnMin=16 EnMin= -2023.25271598872     IErMin=16 ErrMin= 5.97D-04
 ErrMax= 5.97D-04  0.00D+00 EMaxC= 1.00D+00 BMatC= 1.67D-05 BMatP= 2.10D-05
 IDIUse=1 WtCom= 1.00D+00 WtEn= 0.00D+00
 Coeff-Com: -0.969D-01 0.223D+00-0.143D+00-0.198D+00-0.187D+00 0.126D+01
 Coeff-Com: -0.564D+00-0.584D+00-0.876D-01 0.536D+00 0.542D+00 0.111D+01
 Coeff-Com: -0.223D+01-0.161D+01-0.332D+01 0.636D+01
 Coeff:     -0.969D-01 0.223D+00-0.143D+00-0.198D+00-0.187D+00 0.126D+01
 Coeff:     -0.564D+00-0.584D+00-0.876D-01 0.536D+00 0.542D+00 0.111D+01
 Coeff:     -0.223D+01-0.161D+01-0.332D+01 0.636D+01
 Gap=     0.229 Goal=   None    Shift=    0.500
 Gap=     0.095 Goal=   None    Shift=    0.500
 RMSDP=2.10D-05 MaxDP=2.94D-03 DE=-3.29D-05 OVMax= 6.79D-03

 Cycle  20  Pass 1  IDiag  1:
 E= -2023.25275434009     Delta-E=       -0.000038351370 Rises=F Damp=F
 DIIS: error= 5.82D-04 at cycle  20 NSaved=  17.
 NSaved=17 IEnMin=17 EnMin= -2023.25275434009     IErMin=17 ErrMin= 5.82D-04
 ErrMax= 5.82D-04  0.00D+00 EMaxC= 1.00D+00 BMatC= 2.33D-05 BMatP= 1.67D-05
 IDIUse=1 WtCom= 1.00D+00 WtEn= 0.00D+00
 Coeff-Com: -0.218D+00 0.472D+00-0.195D+00-0.567D+00-0.425D+00 0.265D+01
 Coeff-Com: -0.175D+01 0.933D+00-0.175D+01-0.183D+00 0.145D+01 0.348D+01
 Coeff-Com: -0.245D+01-0.274D+01-0.807D+01 0.932D+01 0.104D+01
 Coeff:     -0.218D+00 0.472D+00-0.195D+00-0.567D+00-0.425D+00 0.265D+01
 Coeff:     -0.175D+01 0.933D+00-0.175D+01-0.183D+00 0.145D+01 0.348D+01
 Coeff:     -0.245D+01-0.274D+01-0.807D+01 0.932D+01 0.104D+01
 Gap=     0.229 Goal=   None    Shift=    0.500
 Gap=     0.095 Goal=   None    Shift=    0.500
 RMSDP=1.90D-05 MaxDP=2.49D-03 DE=-3.84D-05 OVMax= 6.91D-03

 Cycle  21  Pass 1  IDiag  1:
 E= -2023.25279088567     Delta-E=       -0.000036545584 Rises=F Damp=F
 DIIS: error= 5.51D-04 at cycle  21 NSaved=  18.
 NSaved=18 IEnMin=18 EnMin= -2023.25279088567     IErMin=18 ErrMin= 5.51D-04
 ErrMax= 5.51D-04  0.00D+00 EMaxC= 1.00D+00 BMatC= 2.71D-05 BMatP= 1.67D-05
 IDIUse=1 WtCom= 1.00D+00 WtEn= 0.00D+00
 Coeff-Com: -0.159D+00 0.332D+00-0.830D-01-0.425D+00-0.489D+00 0.192D+01
 Coeff-Com: -0.120D+01 0.123D+01-0.161D+01-0.864D+00 0.142D+01 0.293D+01
 Coeff-Com: -0.122D+01-0.189D+01-0.884D+01 0.918D+01-0.754D+00 0.152D+01
 Coeff:     -0.159D+00 0.332D+00-0.830D-01-0.425D+00-0.489D+00 0.192D+01
 Coeff:     -0.120D+01 0.123D+01-0.161D+01-0.864D+00 0.142D+01 0.293D+01
 Coeff:     -0.122D+01-0.189D+01-0.884D+01 0.918D+01-0.754D+00 0.152D+01
 Gap=     0.229 Goal=   None    Shift=    0.500
 Gap=     0.095 Goal=   None    Shift=    0.500
 RMSDP=1.52D-05 MaxDP=1.79D-03 DE=-3.65D-05 OVMax= 6.26D-03

 Cycle  22  Pass 1  IDiag  1:
 E= -2023.25282312941     Delta-E=       -0.000032243741 Rises=F Damp=F
 DIIS: error= 5.08D-04 at cycle  22 NSaved=  19.
 NSaved=19 IEnMin=19 EnMin= -2023.25282312941     IErMin=19 ErrMin= 5.08D-04
 ErrMax= 5.08D-04  0.00D+00 EMaxC= 1.00D+00 BMatC= 2.49D-05 BMatP= 1.67D-05
 IDIUse=1 WtCom= 1.00D+00 WtEn= 0.00D+00
 Coeff-Com: -0.366D-01 0.732D-01 0.955D-02-0.869D-01-0.275D+00 0.389D+00
 Coeff-Com: -0.113D+00 0.820D+00-0.878D+00-0.620D+00 0.678D+00 0.121D+01
 Coeff-Com: -0.183D+00-0.694D+00-0.538D+01 0.567D+01-0.598D+00-0.287D+01
 Coeff-Com:  0.388D+01
 Coeff:     -0.366D-01 0.732D-01 0.955D-02-0.869D-01-0.275D+00 0.389D+00
 Coeff:     -0.113D+00 0.820D+00-0.878D+00-0.620D+00 0.678D+00 0.121D+01
 Coeff:     -0.183D+00-0.694D+00-0.538D+01 0.567D+01-0.598D+00-0.287D+01
 Coeff:      0.388D+01
 Gap=     0.229 Goal=   None    Shift=    0.500
 Gap=     0.095 Goal=   None    Shift=    0.500
 RMSDP=1.52D-05 MaxDP=1.58D-03 DE=-3.22D-05 OVMax= 6.24D-03

 Cycle  23  Pass 1  IDiag  1:
 E= -2023.25285273207     Delta-E=       -0.000029602659 Rises=F Damp=F
 DIIS: error= 4.69D-04 at cycle  23 NSaved=  20.
 NSaved=20 IEnMin=20 EnMin= -2023.25285273207     IErMin=20 ErrMin= 4.69D-04
 ErrMax= 4.69D-04  0.00D+00 EMaxC= 1.00D+00 BMatC= 2.40D-05 BMatP= 1.67D-05
 IDIUse=1 WtCom= 1.00D+00 WtEn= 0.00D+00
 Coeff-Com: -0.114D-01 0.428D-01-0.754D-01 0.611D-01-0.147D+00 0.244D+00
 Coeff-Com:  0.119D+00-0.409D+00 0.536D-01 0.383D+00-0.633D-01 0.419D+00
 Coeff-Com: -0.888D+00-0.578D+00-0.488D+00 0.194D+01 0.225D+01-0.825D+01
 Coeff-Com:  0.356D+01 0.284D+01
 Coeff:     -0.114D-01 0.428D-01-0.754D-01 0.611D-01-0.147D+00 0.244D+00
 Coeff:      0.119D+00-0.409D+00 0.536D-01 0.383D+00-0.633D-01 0.419D+00
 Coeff:     -0.888D+00-0.578D+00-0.488D+00 0.194D+01 0.225D+01-0.825D+01
 Coeff:      0.356D+01 0.284D+01
 Gap=     0.229 Goal=   None    Shift=    0.500
 Gap=     0.095 Goal=   None    Shift=    0.500
 RMSDP=1.55D-05 MaxDP=1.66D-03 DE=-2.96D-05 OVMax= 6.24D-03

 Cycle  24  Pass 1  IDiag  1:
 E= -2023.25287957067     Delta-E=       -0.000026838595 Rises=F Damp=F
 DIIS: error= 4.35D-04 at cycle  24 NSaved=  20.
 NSaved=20 IEnMin=20 EnMin= -2023.25287957067     IErMin=20 ErrMin= 4.35D-04
 ErrMax= 4.35D-04  0.00D+00 EMaxC= 1.00D+00 BMatC= 2.50D-05 BMatP= 1.67D-05
 IDIUse=1 WtCom= 1.00D+00 WtEn= 0.00D+00
 Coeff-Com:  0.285D-01-0.110D+00 0.127D+00-0.240D+00 0.654D+00-0.223D-02
 Coeff-Com: -0.154D+01 0.983D+00 0.734D+00-0.268D+00 0.581D+00-0.142D+01
 Coeff-Com: -0.938D+00-0.288D+00 0.244D+01 0.261D+01-0.709D+01 0.141D+01
 Coeff-Com:  0.132D+01 0.200D+01
 Coeff:      0.285D-01-0.110D+00 0.127D+00-0.240D+00 0.654D+00-0.223D-02
 Coeff:     -0.154D+01 0.983D+00 0.734D+00-0.268D+00 0.581D+00-0.142D+01
 Coeff:     -0.938D+00-0.288D+00 0.244D+01 0.261D+01-0.709D+01 0.141D+01
 Coeff:      0.132D+01 0.200D+01
 Gap=     0.229 Goal=   None    Shift=    0.500
 Gap=     0.094 Goal=   None    Shift=    0.500
 RMSDP=1.35D-05 MaxDP=1.29D-03 DE=-2.68D-05 OVMax= 5.73D-03

 Cycle  25  Pass 1  IDiag  1:
 E= -2023.25290304218     Delta-E=       -0.000023471516 Rises=F Damp=F
 DIIS: error= 4.14D-04 at cycle  25 NSaved=  20.
 NSaved=20 IEnMin=20 EnMin= -2023.25290304218     IErMin=20 ErrMin= 4.14D-04
 ErrMax= 4.14D-04  0.00D+00 EMaxC= 1.00D+00 BMatC= 2.37D-05 BMatP= 1.67D-05
 IDIUse=1 WtCom= 1.00D+00 WtEn= 0.00D+00
 Coeff-Com: -0.199D-01 0.125D+00-0.396D+00 0.699D+00-0.209D+00-0.945D+00
 Coeff-Com:  0.764D+00 0.204D+00 0.125D-02 0.101D+01-0.113D+01-0.103D+01
 Coeff-Com: -0.294D+01 0.469D+01 0.113D+01-0.211D+01-0.740D+00-0.748D+00
 Coeff-Com: -0.319D+00 0.297D+01
 Coeff:     -0.199D-01 0.125D+00-0.396D+00 0.699D+00-0.209D+00-0.945D+00
 Coeff:      0.764D+00 0.204D+00 0.125D-02 0.101D+01-0.113D+01-0.103D+01
 Coeff:     -0.294D+01 0.469D+01 0.113D+01-0.211D+01-0.740D+00-0.748D+00
 Coeff:     -0.319D+00 0.297D+01
 Gap=     0.229 Goal=   None    Shift=    0.500
 Gap=     0.094 Goal=   None    Shift=    0.500
 RMSDP=1.21D-05 MaxDP=1.21D-03 DE=-2.35D-05 OVMax= 5.24D-03

 Cycle  26  Pass 1  IDiag  1:
 E= -2023.25292349712     Delta-E=       -0.000020454940 Rises=F Damp=F
 DIIS: error= 3.95D-04 at cycle  26 NSaved=  20.
 NSaved=20 IEnMin=20 EnMin= -2023.25292349712     IErMin=20 ErrMin= 3.95D-04
 ErrMax= 3.95D-04  0.00D+00 EMaxC= 1.00D+00 BMatC= 2.15D-05 BMatP= 1.67D-05
 IDIUse=1 WtCom= 1.00D+00 WtEn= 0.00D+00
 Coeff-Com:  0.311D-01-0.223D+00 0.549D+00-0.421D+00-0.788D-01 0.234D-01
 Coeff-Com:  0.162D+00 0.205D+00 0.106D+01-0.715D+00-0.110D+01-0.474D+01
 Coeff-Com:  0.581D+01 0.242D-01 0.912D+00-0.489D+00-0.106D+01-0.342D+01
 Coeff-Com:  0.165D+01 0.281D+01
 Coeff:      0.311D-01-0.223D+00 0.549D+00-0.421D+00-0.788D-01 0.234D-01
 Coeff:      0.162D+00 0.205D+00 0.106D+01-0.715D+00-0.110D+01-0.474D+01
 Coeff:      0.581D+01 0.242D-01 0.912D+00-0.489D+00-0.106D+01-0.342D+01
 Coeff:      0.165D+01 0.281D+01
 Gap=     0.229 Goal=   None    Shift=    0.500
 Gap=     0.094 Goal=   None    Shift=    0.500
 RMSDP=1.14D-05 MaxDP=1.25D-03 DE=-2.05D-05 OVMax= 5.02D-03

 Cycle  27  Pass 1  IDiag  1:
 E= -2023.25294153407     Delta-E=       -0.000018036946 Rises=F Damp=F
 DIIS: error= 3.75D-04 at cycle  27 NSaved=  20.
 NSaved=20 IEnMin=20 EnMin= -2023.25294153407     IErMin=20 ErrMin= 3.75D-04
 ErrMax= 3.75D-04  0.00D+00 EMaxC= 1.00D+00 BMatC= 1.97D-05 BMatP= 1.67D-05
 IDIUse=1 WtCom= 1.00D+00 WtEn= 0.00D+00
 Coeff-Com: -0.650D-01 0.202D+00-0.918D-01-0.123D-01-0.212D+00 0.212D+00
 Coeff-Com:  0.165D+00 0.563D+00-0.509D-01-0.105D+01-0.334D+01 0.404D+01
 Coeff-Com: -0.116D+00-0.934D+00 0.226D+01 0.278D+00-0.362D+01-0.124D+01
 Coeff-Com:  0.162D+01 0.239D+01
 Coeff:     -0.650D-01 0.202D+00-0.918D-01-0.123D-01-0.212D+00 0.212D+00
 Coeff:      0.165D+00 0.563D+00-0.509D-01-0.105D+01-0.334D+01 0.404D+01
 Coeff:     -0.116D+00-0.934D+00 0.226D+01 0.278D+00-0.362D+01-0.124D+01
 Coeff:      0.162D+01 0.239D+01
 Gap=     0.229 Goal=   None    Shift=    0.500
 Gap=     0.094 Goal=   None    Shift=    0.500
 RMSDP=1.09D-05 MaxDP=1.24D-03 DE=-1.80D-05 OVMax= 4.96D-03

 Cycle  28  Pass 1  IDiag  1:
 E= -2023.25295773395     Delta-E=       -0.000016199885 Rises=F Damp=F
 DIIS: error= 3.57D-04 at cycle  28 NSaved=  20.
 NSaved=20 IEnMin=20 EnMin= -2023.25295773395     IErMin=20 ErrMin= 3.57D-04
 ErrMax= 3.57D-04  0.00D+00 EMaxC= 1.00D+00 BMatC= 1.80D-05 BMatP= 1.67D-05
 IDIUse=1 WtCom= 1.00D+00 WtEn= 0.00D+00
 Coeff-Com: -0.411D-01 0.227D+00-0.353D+00 0.969D-01 0.818D-01 0.132D+00
 Coeff-Com:  0.444D+00 0.826D-01-0.107D+01-0.216D+01 0.294D+01 0.559D-01
 Coeff-Com: -0.225D+01 0.290D+01 0.739D+00-0.221D+01-0.181D+01 0.242D+00
 Coeff-Com:  0.169D+01 0.126D+01
 Coeff:     -0.411D-01 0.227D+00-0.353D+00 0.969D-01 0.818D-01 0.132D+00
 Coeff:      0.444D+00 0.826D-01-0.107D+01-0.216D+01 0.294D+01 0.559D-01
 Coeff:     -0.225D+01 0.290D+01 0.739D+00-0.221D+01-0.181D+01 0.242D+00
 Coeff:      0.169D+01 0.126D+01
 Gap=     0.229 Goal=   None    Shift=    0.500
 Gap=     0.094 Goal=   None    Shift=    0.500
 RMSDP=9.14D-06 MaxDP=1.05D-03 DE=-1.62D-05 OVMax= 4.42D-03

 Cycle  29  Pass 1  IDiag  1:
 E= -2023.25297156354     Delta-E=       -0.000013829584 Rises=F Damp=F
 DIIS: error= 3.36D-04 at cycle  29 NSaved=  20.
 NSaved=20 IEnMin=20 EnMin= -2023.25297156354     IErMin=20 ErrMin= 3.36D-04
 ErrMax= 3.36D-04  0.00D+00 EMaxC= 1.00D+00 BMatC= 1.44D-05 BMatP= 1.67D-05
 IDIUse=1 WtCom= 1.00D+00 WtEn= 0.00D+00
 Coeff-Com: -0.139D-02-0.229D-01 0.628D-01 0.138D-01-0.221D+00 0.468D+00
 Coeff-Com: -0.243D+00-0.342D+00-0.291D+00 0.803D+00 0.935D+00-0.223D+01
 Coeff-Com:  0.377D-02 0.381D+00 0.120D+01 0.490D+00-0.771D+00-0.396D+00
 Coeff-Com: -0.505D+01 0.622D+01
 Coeff:     -0.139D-02-0.229D-01 0.628D-01 0.138D-01-0.221D+00 0.468D+00
 Coeff:     -0.243D+00-0.342D+00-0.291D+00 0.803D+00 0.935D+00-0.223D+01
 Coeff:      0.377D-02 0.381D+00 0.120D+01 0.490D+00-0.771D+00-0.396D+00
 Coeff:     -0.505D+01 0.622D+01
 Gap=     0.230 Goal=   None    Shift=    0.500
 Gap=     0.094 Goal=   None    Shift=    0.500
 RMSDP=1.14D-05 MaxDP=1.17D-03 DE=-1.38D-05 OVMax= 5.01D-03

 Cycle  30  Pass 1  IDiag  1:
 E= -2023.25298398462     Delta-E=       -0.000012421084 Rises=F Damp=F
 DIIS: error= 3.23D-04 at cycle  30 NSaved=  20.
 NSaved=20 IEnMin=20 EnMin= -2023.25298398462     IErMin=20 ErrMin= 3.23D-04
 ErrMax= 3.23D-04  0.00D+00 EMaxC= 1.00D+00 BMatC= 1.62D-05 BMatP= 1.44D-05
 IDIUse=1 WtCom= 1.00D+00 WtEn= 0.00D+00
 Coeff-Com: -0.231D-01 0.546D-01 0.783D-02-0.200D+00 0.484D+00-0.267D+00
 Coeff-Com: -0.248D+00-0.469D+00 0.911D+00 0.780D+00-0.165D+01-0.489D+00
 Coeff-Com:  0.810D-01 0.127D+01 0.125D+01-0.625D+00-0.575D+00-0.660D+01
 Coeff-Com:  0.681D+01 0.492D+00
 Coeff:     -0.231D-01 0.546D-01 0.783D-02-0.200D+00 0.484D+00-0.267D+00
 Coeff:     -0.248D+00-0.469D+00 0.911D+00 0.780D+00-0.165D+01-0.489D+00
 Coeff:      0.810D-01 0.127D+01 0.125D+01-0.625D+00-0.575D+00-0.660D+01
 Coeff:      0.681D+01 0.492D+00
 Gap=     0.230 Goal=   None    Shift=    0.500
 Gap=     0.094 Goal=   None    Shift=    0.500
 RMSDP=8.69D-06 MaxDP=9.02D-04 DE=-1.24D-05 OVMax= 4.35D-03

 Cycle  31  Pass 1  IDiag  1:
 E= -2023.25299480242     Delta-E=       -0.000010817797 Rises=F Damp=F
 DIIS: error= 3.03D-04 at cycle  31 NSaved=  20.
 NSaved=20 IEnMin=20 EnMin= -2023.25299480242     IErMin=20 ErrMin= 3.03D-04
 ErrMax= 3.03D-04  0.00D+00 EMaxC= 1.00D+00 BMatC= 1.35D-05 BMatP= 1.44D-05
 IDIUse=1 WtCom= 1.00D+00 WtEn= 0.00D+00
 Coeff-Com: -0.412D-01 0.267D+00-0.278D+00 0.225D+00-0.202D+00-0.108D+00
 Coeff-Com: -0.815D+00 0.116D+01 0.178D+00 0.900D+00-0.149D+01-0.838D+00
 Coeff-Com: -0.752D+00 0.251D+01 0.104D+01-0.383D+00-0.575D+01 0.493D+01
 Coeff-Com: -0.389D+01 0.434D+01
 Coeff:     -0.412D-01 0.267D+00-0.278D+00 0.225D+00-0.202D+00-0.108D+00
 Coeff:     -0.815D+00 0.116D+01 0.178D+00 0.900D+00-0.149D+01-0.838D+00
 Coeff:     -0.752D+00 0.251D+01 0.104D+01-0.383D+00-0.575D+01 0.493D+01
 Coeff:     -0.389D+01 0.434D+01
 Gap=     0.230 Goal=   None    Shift=    0.500
 Gap=     0.094 Goal=   None    Shift=    0.500
 RMSDP=9.06D-06 MaxDP=7.52D-04 DE=-1.08D-05 OVMax= 4.40D-03

 Cycle  32  Pass 1  IDiag  1:
 E= -2023.25300410696     Delta-E=       -0.000009304545 Rises=F Damp=F
 DIIS: error= 2.88D-04 at cycle  32 NSaved=  20.
 NSaved=20 IEnMin=20 EnMin= -2023.25300410696     IErMin=20 ErrMin= 2.88D-04
 ErrMax= 2.88D-04  0.00D+00 EMaxC= 1.00D+00 BMatC= 1.26D-05 BMatP= 1.35D-05
 IDIUse=1 WtCom= 1.00D+00 WtEn= 0.00D+00
 Coeff-Com:  0.130D+00-0.264D+00 0.323D+00-0.135D+00-0.267D+00-0.767D+00
 Coeff-Com:  0.119D+01 0.107D+00 0.982D+00-0.131D+01-0.883D+00-0.100D+01
 Coeff-Com:  0.243D+01 0.106D+01-0.321D+00-0.455D+01 0.409D+01-0.482D+01
 Coeff-Com:  0.447D+01 0.528D+00
 Coeff:      0.130D+00-0.264D+00 0.323D+00-0.135D+00-0.267D+00-0.767D+00
 Coeff:      0.119D+01 0.107D+00 0.982D+00-0.131D+01-0.883D+00-0.100D+01
 Coeff:      0.243D+01 0.106D+01-0.321D+00-0.455D+01 0.409D+01-0.482D+01
 Coeff:      0.447D+01 0.528D+00
 Gap=     0.230 Goal=   None    Shift=    0.500
 Gap=     0.094 Goal=   None    Shift=    0.500
 RMSDP=6.89D-06 MaxDP=5.70D-04 DE=-9.30D-06 OVMax= 3.80D-03

 >>>>>>>>>> Convergence criterion not met.
 SCF Done:  E(ULC-wHPBE) =  -2023.25300411     A.U. after   33 cycles
            NFock= 32  Conv=0.69D-05     -V/T= 2.0032
 <Sx>= 0.0000 <Sy>= 0.0000 <Sz>= 0.5000 <S**2>= 0.7569 S= 0.5035
 <L.S>= 0.000000000000E+00
 KE= 2.016716644495D+03 PE=-1.122628089227D+04 EE= 3.907364139128D+03
 Annihilation of the first spin contaminant:
 S**2 before annihilation     0.7569,   after     0.7500
 Leave Link  502 at Wed Jan 27 04:29:26 2021, MaxMem=  4026531840 cpu:           22154.9 elap:            2804.6
 (Enter /opt/ohpc/pub/libs/gaussian/g16-A.03/sandybridge/g16/l508.exe)
 Integral symmetry usage will be decided dynamically.
 Tight linear equation convergence will be used.
 ULC-wHPBE wavefunction.
 Quadratic Convergence SCF Method.
 Line search only if initial step raises energy.
 FoFJK:  IHMeth= 1 ICntrl=       0 DoSepK=T KAlg= 0 I1Cent=           0 FoldK=F
 IRaf=         1 NMat=       1 IRICut=       1 DoRegI=T DoRafI=F ISym2E= 1 IDoP0=0 IntGTp=1.
 FoFCou: FMM=T IPFlag=           0 FMFlag=      100000 FMFlg1=        2001
         NFxFlg=           0 DoJE=T BraDBF=F KetDBF=F FulRan=T
         wScrn=  0.000000 ICntrl=       500 IOpCl=  0 I1Cent=           0 NGrid=           0
         NMat0=    1 NMatS0=      1 NMatT0=    0 NMatD0=    1 NMtDS0=    0 NMtDT0=    0
 Petite list used in FoFCou.
 FMM levels:  10  Number of levels for PrismC:   9
 Iteration   1 EE= -2023.25301197968                                    Grad=2.216D-03 Max rot=    0.0451 deg.
 QCNR:  CnvC1=2.22D-08 CnvC2=2.22D-07
 LinEq1:  Iter=  0 NonCon=     1 RMS=2.49D-05 Max=8.45D-03 NDo=     1
 AX will form     1 AO Fock derivatives at one time.
 LinEq1:  Iter=  1 NonCon=     1 RMS=1.63D-05 Max=2.80D-03 NDo=     1
 LinEq1:  Iter=  2 NonCon=     1 RMS=7.78D-06 Max=1.06D-03 NDo=     1
 LinEq1:  Iter=  3 NonCon=     1 RMS=7.12D-06 Max=1.35D-03 NDo=     1
 LinEq1:  Iter=  4 NonCon=     1 RMS=3.49D-06 Max=4.13D-04 NDo=     1
 LinEq1:  Iter=  5 NonCon=     1 RMS=2.41D-06 Max=3.33D-04 NDo=     1
 LinEq1:  Iter=  6 NonCon=     1 RMS=1.51D-06 Max=1.41D-04 NDo=     1
 LinEq1:  Iter=  7 NonCon=     1 RMS=1.03D-06 Max=9.19D-05 NDo=     1
 LinEq1:  Iter=  8 NonCon=     1 RMS=7.16D-07 Max=7.02D-05 NDo=     1
 LinEq1:  Iter=  9 NonCon=     1 RMS=5.40D-07 Max=9.32D-05 NDo=     1
 LinEq1:  Iter= 10 NonCon=     1 RMS=3.17D-07 Max=4.22D-05 NDo=     1
 LinEq1:  Iter= 11 NonCon=     1 RMS=2.11D-07 Max=2.78D-05 NDo=     1
 LinEq1:  Iter= 12 NonCon=     1 RMS=1.31D-07 Max=1.04D-05 NDo=     1
 LinEq1:  Iter= 13 NonCon=     1 RMS=8.60D-08 Max=6.91D-06 NDo=     1
 LinEq1:  Iter= 14 NonCon=     1 RMS=5.13D-08 Max=5.03D-06 NDo=     1
 LinEq1:  Iter= 15 NonCon=     1 RMS=4.07D-08 Max=3.23D-06 NDo=     1
 LinEq1:  Iter= 16 NonCon=     1 RMS=2.34D-08 Max=1.83D-06 NDo=     1
 LinEq1:  Iter= 17 NonCon=     1 RMS=1.55D-08 Max=1.18D-06 NDo=     1
 LinEq1:  Iter= 18 NonCon=     1 RMS=1.04D-08 Max=1.35D-06 NDo=     1
 LinEq1:  Iter= 19 NonCon=     1 RMS=7.56D-09 Max=9.64D-07 NDo=     1
 LinEq1:  Iter= 20 NonCon=     1 RMS=5.25D-09 Max=7.08D-07 NDo=     1
 LinEq1:  Iter= 21 NonCon=     0 RMS=2.82D-09 Max=2.12D-07 NDo=     1
 Linear equations converged to 2.216D-08 2.216D-07 after    21 iterations.
 Angle between quadratic step and gradient=  69.37 degrees.
     ILin= 1 X=0.000D+00 Y=-2.023253011980D+03 DE= 0.00D+00 F= -1.03D-04
     ILin= 2 X=1.000D+00 Y=-2.023253059407D+03 DE=-4.74D-05
 Iteration   2 EE= -2023.25305940669     Delta-E=       -0.000047427015 Grad=9.823D-04 Max rot=    0.0080 deg.
 QCNR:  CnvC1=9.82D-09 CnvC2=9.82D-08
 LinEq1:  Iter=  0 NonCon=     1 RMS=5.66D-06 Max=1.37D-03 NDo=     1
 LinEq1:  Iter=  1 NonCon=     1 RMS=3.27D-06 Max=7.92D-04 NDo=     1
 LinEq1:  Iter=  2 NonCon=     1 RMS=2.45D-06 Max=2.77D-04 NDo=     1
 LinEq1:  Iter=  3 NonCon=     1 RMS=1.57D-06 Max=2.00D-04 NDo=     1
 LinEq1:  Iter=  4 NonCon=     1 RMS=9.63D-07 Max=1.21D-04 NDo=     1
 LinEq1:  Iter=  5 NonCon=     1 RMS=6.55D-07 Max=6.60D-05 NDo=     1
 LinEq1:  Iter=  6 NonCon=     1 RMS=4.58D-07 Max=3.77D-05 NDo=     1
 LinEq1:  Iter=  7 NonCon=     1 RMS=3.41D-07 Max=7.27D-05 NDo=     1
 LinEq1:  Iter=  8 NonCon=     1 RMS=2.12D-07 Max=2.71D-05 NDo=     1
 LinEq1:  Iter=  9 NonCon=     1 RMS=1.54D-07 Max=2.03D-05 NDo=     1
 LinEq1:  Iter= 10 NonCon=     1 RMS=1.07D-07 Max=1.27D-05 NDo=     1
 LinEq1:  Iter= 11 NonCon=     1 RMS=6.00D-08 Max=5.91D-06 NDo=     1
 LinEq1:  Iter= 12 NonCon=     1 RMS=3.94D-08 Max=3.57D-06 NDo=     1
 LinEq1:  Iter= 13 NonCon=     1 RMS=2.46D-08 Max=2.22D-06 NDo=     1
 LinEq1:  Iter= 14 NonCon=     1 RMS=1.71D-08 Max=1.50D-06 NDo=     1
 LinEq1:  Iter= 15 NonCon=     1 RMS=1.17D-08 Max=1.55D-06 NDo=     1
 LinEq1:  Iter= 16 NonCon=     1 RMS=7.53D-09 Max=5.72D-07 NDo=     1
 LinEq1:  Iter= 17 NonCon=     1 RMS=5.18D-09 Max=4.84D-07 NDo=     1
 LinEq1:  Iter= 18 NonCon=     1 RMS=3.10D-09 Max=2.68D-07 NDo=     1
 LinEq1:  Iter= 19 NonCon=     1 RMS=2.04D-09 Max=1.86D-07 NDo=     1
 LinEq1:  Iter= 20 NonCon=     1 RMS=1.04D-09 Max=1.15D-07 NDo=     1
 LinEq1:  Iter= 21 NonCon=     0 RMS=6.34D-10 Max=4.42D-08 NDo=     1
 Linear equations converged to 9.823D-09 9.823D-08 after    21 iterations.
 Angle between quadratic step and gradient=  77.60 degrees.
     ILin= 1 X=0.000D+00 Y=-2.023253059407D+03 DE= 0.00D+00 F= -2.21D-06
     ILin= 2 X=1.000D+00 Y=-2.023253060525D+03 DE=-1.12D-06
 Iteration   3 EE= -2023.25306052458     Delta-E=       -0.000001117885 Grad=6.901D-06 Max rot=    0.0001 deg.
 Rotation gradient small -- convergence achieved.
 SCF Done:  E(ULC-wHPBE) =  -2023.25306052     a.u. after    3 cycles
            Convg  =    0.6901D-05                    45 Fock formations.
              S**2 =  0.7570                  -V/T =  2.0032
 <Sx>= 0.0000 <Sy>= 0.0000 <Sz>= 0.5000 <S**2>= 0.7570 S= 0.5035
 <L.S>= 0.000000000000E+00
 Annihilation of the first spin contaminant:
 S**2 before annihilation     0.7570,   after     0.7500
 Leave Link  508 at Wed Jan 27 05:21:57 2021, MaxMem=  4026531840 cpu:           24793.2 elap:            3150.7
 (Enter /opt/ohpc/pub/libs/gaussian/g16-A.03/sandybridge/g16/l601.exe)
 Copying SCF densities to generalized density rwf, IOpCl= 1 IROHF=0.

 **********************************************************************

            Population analysis using the SCF density.

 **********************************************************************

 Orbital symmetries:
 Alpha Orbitals:
       Occupied  (A) (A) (A) (A) (A) (A) (A) (A) (A) (A) (A) (A)
                 (A) (A) (A) (A) (A) (A) (A) (A) (A) (A) (A) (A)
                 (A) (A) (A) (A) (A) (A) (A) (A) (A) (A) (A) (A)
                 (A) (A) (A) (A) (A) (A) (A) (A) (A) (A) (A) (A)
                 (A) (A) (A) (A) (A) (A) (A) (A) (A) (A) (A) (A)
                 (A) (A) (A) (A) (A) (A) (A) (A) (A) (A) (A) (A)
                 (A) (A) (A) (A) (A) (A) (A) (A) (A) (A) (A) (A)
                 (A) (A) (A) (A) (A) (A) (A) (A) (A) (A) (A) (A)
                 (A) (A) (A) (A) (A) (A) (A) (A) (A) (A) (A) (A)
                 (A) (A) (A) (A) (A) (A) (A) (A) (A) (A) (A) (A)
                 (A) (A) (A)
       Virtual   (A) (A) (A) (A) (A) (A) (A) (A) (A) (A) (A) (A)
                 (A) (A) (A) (A) (A) (A) (A) (A) (A) (A) (A) (A)
                 (A) (A) (A) (A) (A) (A) (A) (A) (A) (A) (A) (A)
                 (A) (A) (A) (A) (A) (A) (A) (A) (A) (A) (A) (A)
                 (A) (A) (A) (A) (A) (A) (A) (A) (A) (A) (A) (A)
                 (A) (A) (A) (A) (A) (A) (A) (A) (A) (A) (A) (A)
                 (A) (A) (A) (A) (A) (A) (A) (A) (A) (A) (A) (A)
                 (A) (A) (A) (A) (A) (A) (A) (A) (A) (A) (A) (A)
                 (A) (A) (A) (A) (A) (A) (A) (A) (A) (A) (A) (A)
                 (A) (A) (A) (A) (A) (A) (A) (A) (A) (A) (A) (A)
                 (A) (A) (A) (A) (A) (A) (A) (A) (A) (A) (A) (A)
                 (A) (A) (A) (A) (A) (A) (A) (A) (A) (A) (A) (A)
                 (A) (A) (A) (A) (A) (A) (A) (A) (A) (A) (A) (A)
                 (A) (A) (A) (A) (A) (A) (A) (A) (A) (A) (A) (A)
                 (A) (A) (A) (A) (A) (A) (A) (A) (A) (A) (A) (A)
                 (A) (A) (A) (A) (A) (A) (A) (A) (A) (A) (A) (A)
                 (A) (A) (A) (A) (A) (A) (A) (A) (A) (A) (A) (A)
                 (A) (A) (A) (A) (A) (A) (A) (A) (A) (A) (A) (A)
                 (A) (A) (A) (A) (A) (A) (A) (A) (A) (A) (A) (A)
                 (A) (A) (A) (A) (A) (A) (A) (A) (A) (A) (A) (A)
                 (A) (A) (A) (A) (A) (A) (A) (A) (A) (A) (A) (A)
                 (A) (A) (A) (A) (A) (A) (A) (A) (A) (A) (A) (A)
                 (A) (A) (A) (A) (A) (A) (A) (A) (A) (A) (A) (A)
                 (A) (A) (A) (A) (A) (A) (A) (A) (A) (A) (A) (A)
                 (A) (A) (A) (A) (A) (A) (A) (A) (A) (A) (A) (A)
                 (A) (A) (A) (A) (A) (A) (A) (A) (A) (A) (A) (A)
                 (A) (A) (A) (A) (A) (A) (A) (A) (A) (A) (A) (A)
                 (A) (A) (A) (A) (A) (A) (A) (A) (A) (A) (A) (A)
                 (A) (A) (A) (A) (A) (A) (A) (A) (A) (A) (A) (A)
                 (A) (A) (A) (A) (A) (A) (A) (A) (A) (A) (A) (A)
                 (A) (A) (A) (A) (A) (A) (A) (A) (A) (A) (A) (A)
                 (A) (A) (A) (A) (A) (A) (A) (A) (A) (A) (A) (A)
                 (A) (A) (A) (A) (A) (A) (A) (A) (A) (A) (A) (A)
                 (A) (A) (A) (A) (A) (A) (A) (A) (A) (A) (A) (A)
                 (A) (A) (A) (A) (A) (A) (A) (A) (A) (A) (A) (A)
                 (A) (A) (A) (A) (A) (A) (A) (A) (A) (A) (A) (A)
                 (A) (A) (A) (A) (A) (A) (A) (A) (A) (A) (A) (A)
                 (A) (A) (A) (A) (A) (A) (A) (A) (A) (A) (A) (A)
                 (A) (A) (A) (A) (A) (A) (A) (A) (A) (A) (A) (A)
                 (A) (A) (A) (A) (A) (A) (A) (A) (A) (A) (A) (A)
                 (A) (A) (A) (A) (A) (A) (A) (A) (A) (A) (A) (A)
                 (A) (A) (A) (A) (A) (A) (A) (A) (A) (A) (A) (A)
                 (A) (A) (A) (A) (A) (A) (A) (A) (A) (A) (A) (A)
                 (A) (A) (A) (A) (A) (A) (A) (A) (A) (A) (A) (A)
                 (A) (A) (A) (A) (A) (A) (A) (A) (A) (A) (A) (A)
                 (A) (A) (A) (A) (A) (A) (A) (A) (A) (A) (A) (A)
                 (A) (A) (A) (A) (A) (A) (A) (A) (A) (A) (A) (A)
                 (A) (A) (A) (A) (A) (A) (A) (A) (A) (A) (A) (A)
                 (A) (A) (A) (A) (A) (A) (A) (A) (A) (A) (A) (A)
                 (A) (A) (A) (A) (A) (A) (A) (A) (A) (A) (A) (A)
                 (A) (A) (A) (A) (A) (A) (A) (A) (A) (A) (A) (A)
                 (A) (A) (A) (A) (A) (A) (A) (A) (A) (A) (A) (A)
                 (A) (A) (A) (A) (A) (A) (A) (A) (A) (A) (A) (A)
                 (A) (A) (A) (A) (A) (A) (A) (A) (A) (A) (A) (A)
                 (A) (A) (A) (A) (A) (A) (A) (A) (A) (A) (A) (A)
                 (A) (A) (A) (A) (A) (A) (A) (A) (A) (A) (A) (A)
                 (A) (A) (A) (A) (A) (A) (A) (A) (A) (A) (A)
 Beta  Orbitals:
       Occupied  (A) (A) (A) (A) (A) (A) (A) (A) (A) (A) (A) (A)
                 (A) (A) (A) (A) (A) (A) (A) (A) (A) (A) (A) (A)
                 (A) (A) (A) (A) (A) (A) (A) (A) (A) (A) (A) (A)
                 (A) (A) (A) (A) (A) (A) (A) (A) (A) (A) (A) (A)
                 (A) (A) (A) (A) (A) (A) (A) (A) (A) (A) (A) (A)
                 (A) (A) (A) (A) (A) (A) (A) (A) (A) (A) (A) (A)
                 (A) (A) (A) (A) (A) (A) (A) (A) (A) (A) (A) (A)
                 (A) (A) (A) (A) (A) (A) (A) (A) (A) (A) (A) (A)
                 (A) (A) (A) (A) (A) (A) (A) (A) (A) (A) (A) (A)
                 (A) (A) (A) (A) (A) (A) (A) (A) (A) (A) (A) (A)
                 (A) (A)
       Virtual   (A) (A) (A) (A) (A) (A) (A) (A) (A) (A) (A) (A)
                 (A) (A) (A) (A) (A) (A) (A) (A) (A) (A) (A) (A)
                 (A) (A) (A) (A) (A) (A) (A) (A) (A) (A) (A) (A)
                 (A) (A) (A) (A) (A) (A) (A) (A) (A) (A) (A) (A)
                 (A) (A) (A) (A) (A) (A) (A) (A) (A) (A) (A) (A)
                 (A) (A) (A) (A) (A) (A) (A) (A) (A) (A) (A) (A)
                 (A) (A) (A) (A) (A) (A) (A) (A) (A) (A) (A) (A)
                 (A) (A) (A) (A) (A) (A) (A) (A) (A) (A) (A) (A)
                 (A) (A) (A) (A) (A) (A) (A) (A) (A) (A) (A) (A)
                 (A) (A) (A) (A) (A) (A) (A) (A) (A) (A) (A) (A)
                 (A) (A) (A) (A) (A) (A) (A) (A) (A) (A) (A) (A)
                 (A) (A) (A) (A) (A) (A) (A) (A) (A) (A) (A) (A)
                 (A) (A) (A) (A) (A) (A) (A) (A) (A) (A) (A) (A)
                 (A) (A) (A) (A) (A) (A) (A) (A) (A) (A) (A) (A)
                 (A) (A) (A) (A) (A) (A) (A) (A) (A) (A) (A) (A)
                 (A) (A) (A) (A) (A) (A) (A) (A) (A) (A) (A) (A)
                 (A) (A) (A) (A) (A) (A) (A) (A) (A) (A) (A) (A)
                 (A) (A) (A) (A) (A) (A) (A) (A) (A) (A) (A) (A)
                 (A) (A) (A) (A) (A) (A) (A) (A) (A) (A) (A) (A)
                 (A) (A) (A) (A) (A) (A) (A) (A) (A) (A) (A) (A)
                 (A) (A) (A) (A) (A) (A) (A) (A) (A) (A) (A) (A)
                 (A) (A) (A) (A) (A) (A) (A) (A) (A) (A) (A) (A)
                 (A) (A) (A) (A) (A) (A) (A) (A) (A) (A) (A) (A)
                 (A) (A) (A) (A) (A) (A) (A) (A) (A) (A) (A) (A)
                 (A) (A) (A) (A) (A) (A) (A) (A) (A) (A) (A) (A)
                 (A) (A) (A) (A) (A) (A) (A) (A) (A) (A) (A) (A)
                 (A) (A) (A) (A) (A) (A) (A) (A) (A) (A) (A) (A)
                 (A) (A) (A) (A) (A) (A) (A) (A) (A) (A) (A) (A)
                 (A) (A) (A) (A) (A) (A) (A) (A) (A) (A) (A) (A)
                 (A) (A) (A) (A) (A) (A) (A) (A) (A) (A) (A) (A)
                 (A) (A) (A) (A) (A) (A) (A) (A) (A) (A) (A) (A)
                 (A) (A) (A) (A) (A) (A) (A) (A) (A) (A) (A) (A)
                 (A) (A) (A) (A) (A) (A) (A) (A) (A) (A) (A) (A)
                 (A) (A) (A) (A) (A) (A) (A) (A) (A) (A) (A) (A)
                 (A) (A) (A) (A) (A) (A) (A) (A) (A) (A) (A) (A)
                 (A) (A) (A) (A) (A) (A) (A) (A) (A) (A) (A) (A)
                 (A) (A) (A) (A) (A) (A) (A) (A) (A) (A) (A) (A)
                 (A) (A) (A) (A) (A) (A) (A) (A) (A) (A) (A) (A)
                 (A) (A) (A) (A) (A) (A) (A) (A) (A) (A) (A) (A)
                 (A) (A) (A) (A) (A) (A) (A) (A) (A) (A) (A) (A)
                 (A) (A) (A) (A) (A) (A) (A) (A) (A) (A) (A) (A)
                 (A) (A) (A) (A) (A) (A) (A) (A) (A) (A) (A) (A)
                 (A) (A) (A) (A) (A) (A) (A) (A) (A) (A) (A) (A)
                 (A) (A) (A) (A) (A) (A) (A) (A) (A) (A) (A) (A)
                 (A) (A) (A) (A) (A) (A) (A) (A) (A) (A) (A) (A)
                 (A) (A) (A) (A) (A) (A) (A) (A) (A) (A) (A) (A)
                 (A) (A) (A) (A) (A) (A) (A) (A) (A) (A) (A) (A)
                 (A) (A) (A) (A) (A) (A) (A) (A) (A) (A) (A) (A)
                 (A) (A) (A) (A) (A) (A) (A) (A) (A) (A) (A) (A)
                 (A) (A) (A) (A) (A) (A) (A) (A) (A) (A) (A) (A)
                 (A) (A) (A) (A) (A) (A) (A) (A) (A) (A) (A) (A)
                 (A) (A) (A) (A) (A) (A) (A) (A) (A) (A) (A) (A)
                 (A) (A) (A) (A) (A) (A) (A) (A) (A) (A) (A) (A)
                 (A) (A) (A) (A) (A) (A) (A) (A) (A) (A) (A) (A)
                 (A) (A) (A) (A) (A) (A) (A) (A) (A) (A) (A) (A)
                 (A) (A) (A) (A) (A) (A) (A) (A) (A) (A) (A) (A)
                 (A) (A) (A) (A) (A) (A) (A) (A) (A) (A) (A) (A)
 The electronic state is 2-A.
 Alpha  occ. eigenvalues --  -88.53801 -88.49679 -14.42108 -14.42095 -14.41475
 Alpha  occ. eigenvalues --  -14.41252 -10.34565 -10.34513 -10.33912 -10.33820
 Alpha  occ. eigenvalues --  -10.33715 -10.33328 -10.32877 -10.31202 -10.30941
 Alpha  occ. eigenvalues --  -10.30322 -10.30270 -10.29011 -10.28985 -10.28940
 Alpha  occ. eigenvalues --  -10.28895 -10.28708 -10.28543 -10.27477 -10.27091
 Alpha  occ. eigenvalues --  -10.27043 -10.26956 -10.26462 -10.26461 -10.26343
 Alpha  occ. eigenvalues --  -10.26084 -10.25854  -8.12712  -8.08872  -6.14803
 Alpha  occ. eigenvalues --   -6.14338  -6.14197  -6.11030  -6.10555  -6.10109
 Alpha  occ. eigenvalues --   -1.30280  -1.29626  -1.27286  -1.26633  -1.22885
 Alpha  occ. eigenvalues --   -1.22228  -1.21863  -1.20103  -1.15535  -1.13215
 Alpha  occ. eigenvalues --   -1.10206  -1.09134  -1.05751  -1.04703  -1.03234
 Alpha  occ. eigenvalues --   -1.02893  -1.02838  -1.02281  -1.02204  -1.01651
 Alpha  occ. eigenvalues --   -1.01035  -1.00515  -0.97931  -0.96532  -0.95216
 Alpha  occ. eigenvalues --   -0.93599  -0.89242  -0.88833  -0.86238  -0.85845
 Alpha  occ. eigenvalues --   -0.85771  -0.85450  -0.84071  -0.83541  -0.83009
 Alpha  occ. eigenvalues --   -0.82021  -0.81606  -0.81123  -0.80840  -0.80317
 Alpha  occ. eigenvalues --   -0.80199  -0.79470  -0.78877  -0.78517  -0.78294
 Alpha  occ. eigenvalues --   -0.77989  -0.77440  -0.76681  -0.75758  -0.75155
 Alpha  occ. eigenvalues --   -0.74156  -0.73216  -0.73196  -0.72964  -0.72581
 Alpha  occ. eigenvalues --   -0.72232  -0.72123  -0.71437  -0.71341  -0.71089
 Alpha  occ. eigenvalues --   -0.70926  -0.70822  -0.70751  -0.70494  -0.70463
 Alpha  occ. eigenvalues --   -0.70254  -0.69998  -0.69166  -0.69070  -0.68609
 Alpha  occ. eigenvalues --   -0.68160  -0.68056  -0.67445  -0.67049  -0.66344
 Alpha  occ. eigenvalues --   -0.63262  -0.62464  -0.62207  -0.61582  -0.59814
 Alpha  occ. eigenvalues --   -0.58510  -0.55758  -0.55079
 Alpha virt. eigenvalues --   -0.31692  -0.29973  -0.28418  -0.27602  -0.24681
 Alpha virt. eigenvalues --   -0.23180  -0.21730  -0.20987  -0.20889  -0.20378
 Alpha virt. eigenvalues --   -0.19431  -0.18828  -0.18752  -0.17641  -0.16157
 Alpha virt. eigenvalues --   -0.15558  -0.15145  -0.14177  -0.13928  -0.13865
 Alpha virt. eigenvalues --   -0.13529  -0.13132  -0.12836  -0.12751  -0.12728
 Alpha virt. eigenvalues --   -0.12247  -0.12180  -0.11695  -0.11509  -0.11378
 Alpha virt. eigenvalues --   -0.11048  -0.10795  -0.10383  -0.10181  -0.09458
 Alpha virt. eigenvalues --   -0.09354  -0.08895  -0.08787  -0.08614  -0.08434
 Alpha virt. eigenvalues --   -0.08143  -0.08046  -0.07920  -0.07626  -0.07407
 Alpha virt. eigenvalues --   -0.07242  -0.07141  -0.06754  -0.06631  -0.06169
 Alpha virt. eigenvalues --   -0.05855  -0.05703  -0.05564  -0.05268  -0.04813
 Alpha virt. eigenvalues --   -0.04543  -0.04404  -0.04091  -0.03879  -0.03531
 Alpha virt. eigenvalues --   -0.03170  -0.02680  -0.02462  -0.02418  -0.02171
 Alpha virt. eigenvalues --   -0.01756  -0.01455  -0.01267  -0.01093  -0.00790
 Alpha virt. eigenvalues --   -0.00462  -0.00046   0.00367   0.00406   0.00801
 Alpha virt. eigenvalues --    0.01010   0.01263   0.01473   0.01896   0.02142
 Alpha virt. eigenvalues --    0.02436   0.03704   0.03881   0.04003   0.04206
 Alpha virt. eigenvalues --    0.04581   0.05106   0.05366   0.05437   0.05819
 Alpha virt. eigenvalues --    0.06194   0.06207   0.06972   0.07358   0.07482
 Alpha virt. eigenvalues --    0.07773   0.08119   0.08353   0.08754   0.09399
 Alpha virt. eigenvalues --    0.09504   0.09635   0.09909   0.10022   0.10108
 Alpha virt. eigenvalues --    0.10238   0.10759   0.10897   0.11229   0.11455
 Alpha virt. eigenvalues --    0.11750   0.11995   0.12168   0.12365   0.12752
 Alpha virt. eigenvalues --    0.13222   0.13777   0.14039   0.14844   0.15239
 Alpha virt. eigenvalues --    0.15910   0.16514   0.16677   0.16908   0.17051
 Alpha virt. eigenvalues --    0.17301   0.17467   0.17658   0.18062   0.18446
 Alpha virt. eigenvalues --    0.18782   0.19209   0.19897   0.20133   0.20899
 Alpha virt. eigenvalues --    0.21167   0.21476   0.22048   0.22221   0.22630
 Alpha virt. eigenvalues --    0.22808   0.22910   0.23075   0.23179   0.23535
 Alpha virt. eigenvalues --    0.23671   0.24017   0.24158   0.24362   0.24583
 Alpha virt. eigenvalues --    0.24826   0.24938   0.25287   0.25378   0.25634
 Alpha virt. eigenvalues --    0.25990   0.26132   0.26439   0.26741   0.26775
 Alpha virt. eigenvalues --    0.26960   0.27180   0.27326   0.27639   0.28067
 Alpha virt. eigenvalues --    0.28456   0.28577   0.28873   0.29306   0.29539
 Alpha virt. eigenvalues --    0.30064   0.30290   0.30594   0.30707   0.30960
 Alpha virt. eigenvalues --    0.31235   0.31460   0.31814   0.32118   0.32486
 Alpha virt. eigenvalues --    0.32581   0.33177   0.33500   0.34420   0.34801
 Alpha virt. eigenvalues --    0.35242   0.35799   0.35870   0.36176   0.36256
 Alpha virt. eigenvalues --    0.36616   0.36910   0.37197   0.38915   0.39207
 Alpha virt. eigenvalues --    0.40024   0.40517   0.40780   0.41332   0.41763
 Alpha virt. eigenvalues --    0.42245   0.42337   0.42590   0.42897   0.43084
 Alpha virt. eigenvalues --    0.43243   0.43602   0.43750   0.44521   0.44794
 Alpha virt. eigenvalues --    0.45580   0.46333   0.46708   0.47285   0.47928
 Alpha virt. eigenvalues --    0.48005   0.48686   0.49603   0.49911   0.50292
 Alpha virt. eigenvalues --    0.50660   0.50956   0.51428   0.52230   0.52748
 Alpha virt. eigenvalues --    0.53070   0.54285   0.55394   0.56552   0.57467
 Alpha virt. eigenvalues --    0.58143   0.59516   0.60185   0.61717   0.61951
 Alpha virt. eigenvalues --    0.62593   0.62866   0.63487   0.66624   0.66693
 Alpha virt. eigenvalues --    0.67193   0.67588   0.68807   0.70153   0.72959
 Alpha virt. eigenvalues --    0.76978   0.85260   0.89780   0.89963   0.90024
 Alpha virt. eigenvalues --    0.90456   0.92279   0.94265   0.94782   0.95562
 Alpha virt. eigenvalues --    0.95830   0.96345   0.97338   0.97908   0.98655
 Alpha virt. eigenvalues --    0.99021   0.99070   0.99441   0.99554   1.00562
 Alpha virt. eigenvalues --    1.00701   1.01696   1.01977   1.02182   1.02324
 Alpha virt. eigenvalues --    1.02994   1.03286   1.03628   1.03866   1.04151
 Alpha virt. eigenvalues --    1.05269   1.06639   1.07518   1.07709   1.08008
 Alpha virt. eigenvalues --    1.08514   1.09443   1.09815   1.10023   1.10132
 Alpha virt. eigenvalues --    1.10239   1.10294   1.10602   1.10662   1.11086
 Alpha virt. eigenvalues --    1.11230   1.11667   1.11970   1.12055   1.12903
 Alpha virt. eigenvalues --    1.13002   1.13073   1.13266   1.13723   1.14118
 Alpha virt. eigenvalues --    1.14197   1.14619   1.14967   1.15338   1.15658
 Alpha virt. eigenvalues --    1.16182   1.16639   1.17323   1.18015   1.18513
 Alpha virt. eigenvalues --    1.18946   1.19221   1.19479   1.20049   1.20160
 Alpha virt. eigenvalues --    1.20233   1.20962   1.21254   1.21746   1.22263
 Alpha virt. eigenvalues --    1.22305   1.22574   1.22808   1.23193   1.23350
 Alpha virt. eigenvalues --    1.23526   1.23677   1.24505   1.24737   1.25039
 Alpha virt. eigenvalues --    1.25281   1.25721   1.26304   1.26555   1.27118
 Alpha virt. eigenvalues --    1.27475   1.27931   1.28163   1.28431   1.28976
 Alpha virt. eigenvalues --    1.29385   1.29470   1.29751   1.29924   1.30359
 Alpha virt. eigenvalues --    1.30829   1.30941   1.31336   1.32206   1.32575
 Alpha virt. eigenvalues --    1.32840   1.32964   1.33354   1.33646   1.34038
 Alpha virt. eigenvalues --    1.34315   1.34848   1.35507   1.36040   1.36881
 Alpha virt. eigenvalues --    1.37430   1.37838   1.38810   1.39669   1.39994
 Alpha virt. eigenvalues --    1.40440   1.40885   1.40970   1.41336   1.42089
 Alpha virt. eigenvalues --    1.42153   1.42540   1.43580   1.44133   1.44526
 Alpha virt. eigenvalues --    1.44602   1.45264   1.45700   1.47332   1.47626
 Alpha virt. eigenvalues --    1.48057   1.48456   1.48698   1.48840   1.49291
 Alpha virt. eigenvalues --    1.49973   1.50804   1.51039   1.51213   1.51539
 Alpha virt. eigenvalues --    1.51839   1.52288   1.52676   1.53331   1.53573
 Alpha virt. eigenvalues --    1.53842   1.53887   1.54165   1.54251   1.54376
 Alpha virt. eigenvalues --    1.54799   1.54878   1.55022   1.55304   1.55945
 Alpha virt. eigenvalues --    1.56117   1.56297   1.56507   1.56703   1.56808
 Alpha virt. eigenvalues --    1.56923   1.57552   1.57995   1.58357   1.58885
 Alpha virt. eigenvalues --    1.60402   1.60560   1.60793   1.60947   1.61622
 Alpha virt. eigenvalues --    1.62346   1.62685   1.62918   1.63155   1.63680
 Alpha virt. eigenvalues --    1.64283   1.64746   1.65178   1.65536   1.66040
 Alpha virt. eigenvalues --    1.66279   1.66643   1.67696   1.69177   1.69515
 Alpha virt. eigenvalues --    1.70679   1.71663   1.72510   1.73334   1.73724
[...]
    62   Atom       -0.000260      0.000286     -0.000227
    63   Atom       -0.000322     -0.000127      0.000095
    64   Atom        0.000073      0.000139     -0.000059
 --------------------------------------------------------


 ---------------------------------------------------------------------------------
              Anisotropic Spin Dipole Couplings in Principal Axis System
 ---------------------------------------------------------------------------------

       Atom             a.u.   MegaHertz   Gauss  10(-4) cm-1        Axes

              Baa    -0.0303    -4.071    -1.453    -1.358 -0.0388 -0.6428  0.7651
     1 C(13)  Bbb    -0.0273    -3.659    -1.306    -1.221  0.9914  0.0708  0.1098
              Bcc     0.0576     7.730     2.758     2.578 -0.1247  0.7628  0.6345
 
              Baa    -0.0370    -4.959    -1.770    -1.654 -0.6272 -0.0076  0.7789
     2 C(13)  Bbb    -0.0288    -3.867    -1.380    -1.290  0.7207 -0.3847  0.5766
              Bcc     0.0658     8.826     3.149     2.944  0.2953  0.9230  0.2467
 
              Baa    -0.8466   -34.709   -12.385   -11.578  0.4925 -0.4403  0.7507
     3 S(33)  Bbb    -0.8104   -33.226   -11.856   -11.083  0.8687  0.3010 -0.3934
              Bcc     1.6570    67.935    24.241    22.661 -0.0528  0.8459  0.5307
 
              Baa    -0.0498    -6.677    -2.382    -2.227  0.9851 -0.1681  0.0375
     4 C(13)  Bbb    -0.0482    -6.467    -2.308    -2.157 -0.1424 -0.6730  0.7258
              Bcc     0.0980    13.144     4.690     4.384  0.0967  0.7203  0.6869
 
              Baa    -0.0302    -4.056    -1.447    -1.353 -0.2697  0.7755  0.5708
     5 C(13)  Bbb    -0.0284    -3.805    -1.358    -1.269  0.9621  0.1916  0.1942
              Bcc     0.0586     7.861     2.805     2.622 -0.0412 -0.6015  0.7978
 
              Baa    -0.0463    -6.215    -2.218    -2.073 -0.5797  0.4987  0.6444
     6 C(13)  Bbb    -0.0428    -5.748    -2.051    -1.917  0.7915  0.1569  0.5907
              Bcc     0.0891    11.963     4.269     3.990  0.1935  0.8524 -0.4857
 
              Baa    -0.0253    -3.400    -1.213    -1.134  0.0540  0.8379  0.5431
     7 C(13)  Bbb     0.0111     1.485     0.530     0.495  0.9962 -0.0824  0.0281
              Bcc     0.0143     1.914     0.683     0.639 -0.0683 -0.5395  0.8392
 
              Baa    -0.0273    -3.663    -1.307    -1.222 -0.0217  0.8276  0.5608
     8 C(13)  Bbb     0.0112     1.509     0.539     0.503  0.3972 -0.5076  0.7645
              Bcc     0.0160     2.153     0.768     0.718  0.9175  0.2394 -0.3177
 
              Baa    -0.0034    -1.815    -0.648    -0.605 -0.2618 -0.3189  0.9109
     9 H(1)   Bbb    -0.0023    -1.229    -0.439    -0.410  0.2465  0.8904  0.3826
              Bcc     0.0057     3.044     1.086     1.016  0.9331 -0.3247  0.1545
 
              Baa    -0.0062    -0.831    -0.297    -0.277 -0.0021 -0.2233  0.9747
    10 C(13)  Bbb    -0.0001    -0.012    -0.004    -0.004  0.7208 -0.6759 -0.1533
              Bcc     0.0063     0.843     0.301     0.281  0.6931  0.7023  0.1624
 
              Baa    -0.0375    -5.034    -1.796    -1.679  0.2484  0.7760 -0.5797
    11 C(13)  Bbb     0.0070     0.933     0.333     0.311  0.2946  0.5096  0.8084
              Bcc     0.0306     4.101     1.463     1.368  0.9228 -0.3716 -0.1020
 
              Baa    -0.0536    -7.195    -2.567    -2.400  0.6391  0.1502  0.7543
    12 C(13)  Bbb    -0.0506    -6.786    -2.422    -2.264 -0.6100  0.6963  0.3782
              Bcc     0.1042    13.981     4.989     4.664  0.4684  0.7019 -0.5366
 
              Baa    -0.0094    -1.259    -0.449    -0.420 -0.6131  0.4581  0.6437
    13 C(13)  Bbb    -0.0070    -0.939    -0.335    -0.313  0.7896  0.3277  0.5188
              Bcc     0.0164     2.197     0.784     0.733  0.0268  0.8263 -0.5626
 
              Baa    -0.0028    -1.477    -0.527    -0.493  0.2648  0.9074 -0.3263
    14 H(1)   Bbb    -0.0007    -0.371    -0.132    -0.124 -0.4006  0.4113  0.8187
              Bcc     0.0035     1.847     0.659     0.616  0.8772 -0.0860  0.4724
 
              Baa    -0.0048    -2.561    -0.914    -0.854  0.2671  0.7971 -0.5416
    15 H(1)   Bbb    -0.0017    -0.896    -0.320    -0.299  0.6644  0.2548  0.7026
              Bcc     0.0065     3.457     1.234     1.153  0.6980 -0.5475 -0.4615
 
              Baa    -0.0065    -3.461    -1.235    -1.154  0.7698  0.0125  0.6382
    16 H(1)   Bbb    -0.0016    -0.829    -0.296    -0.277  0.4282  0.7314 -0.5307
              Bcc     0.0080     4.290     1.531     1.431 -0.4734  0.6818  0.5577
 
              Baa    -0.0869   -11.657    -4.160    -3.888  0.7282 -0.3949  0.5601
    17 C(13)  Bbb    -0.0816   -10.955    -3.909    -3.654  0.6849  0.4488 -0.5740
              Bcc     0.1685    22.612     8.069     7.543 -0.0247  0.8016  0.5973
 
              Baa    -0.0031    -1.668    -0.595    -0.556 -0.1035  0.7354  0.6697
    18 H(1)   Bbb    -0.0018    -0.984    -0.351    -0.328  0.6452  0.5621 -0.5175
              Bcc     0.0050     2.652     0.946     0.885  0.7570 -0.3785  0.5326
 
              Baa    -0.0077    -4.099    -1.463    -1.367  0.8798 -0.0426 -0.4735
    19 H(1)   Bbb    -0.0025    -1.310    -0.468    -0.437  0.0675  0.9971  0.0357
              Bcc     0.0101     5.409     1.930     1.804  0.4706 -0.0634  0.8801
 
              Baa    -0.0026    -1.386    -0.495    -0.462  0.0030  0.6669  0.7451
    20 H(1)   Bbb     0.0008     0.405     0.144     0.135  0.3338  0.7017 -0.6294
              Bcc     0.0018     0.982     0.350     0.327  0.9426 -0.2506  0.2205
 
              Baa    -0.0108    -5.759    -2.055    -1.921  0.7724 -0.3854  0.5049
    21 H(1)   Bbb    -0.0013    -0.677    -0.242    -0.226 -0.0118  0.7860  0.6181
              Bcc     0.0121     6.437     2.297     2.147  0.6350  0.4834 -0.6025
 
              Baa    -0.4041   -16.568    -5.912    -5.526  0.6020 -0.3447  0.7203
    22 S(33)  Bbb    -0.3855   -15.807    -5.640    -5.273 -0.4027  0.6478  0.6466
              Bcc     0.7896    32.375    11.552    10.799  0.6895  0.6793 -0.2512
 
              Baa    -0.0045    -0.609    -0.217    -0.203 -0.1524  0.8971  0.4148
    23 C(13)  Bbb    -0.0016    -0.209    -0.075    -0.070  0.9641  0.2272 -0.1372
              Bcc     0.0061     0.818     0.292     0.273  0.2174 -0.3790  0.8995
 
              Baa    -0.0039    -0.526    -0.188    -0.175  0.2354 -0.1803  0.9550
    24 C(13)  Bbb     0.0005     0.061     0.022     0.020  0.4988  0.8658  0.0406
              Bcc     0.0035     0.465     0.166     0.155  0.8341 -0.4668 -0.2937
 
              Baa    -0.0042    -0.562    -0.200    -0.187 -0.3857 -0.2719  0.8816
    25 C(13)  Bbb     0.0001     0.018     0.007     0.006 -0.6332  0.7730 -0.0386
              Bcc     0.0040     0.543     0.194     0.181  0.6710  0.5732  0.4703
 
              Baa    -0.0283    -1.091    -0.389    -0.364  0.2930  0.9021  0.3169
    26 N(14)  Bbb    -0.0272    -1.050    -0.375    -0.350  0.9377 -0.3358  0.0888
              Bcc     0.0555     2.141     0.764     0.714 -0.1865 -0.2711  0.9443
 
              Baa    -0.0306    -1.180    -0.421    -0.394 -0.0002  0.9726  0.2327
    27 N(14)  Bbb    -0.0296    -1.143    -0.408    -0.381  0.9707 -0.0558  0.2338
              Bcc     0.0602     2.323     0.829     0.775 -0.2404 -0.2259  0.9440
 
              Baa    -0.0007    -0.093    -0.033    -0.031  0.6667  0.0900  0.7399
    28 C(13)  Bbb    -0.0002    -0.033    -0.012    -0.011 -0.3047  0.9388  0.1603
              Bcc     0.0009     0.126     0.045     0.042  0.6802  0.3324 -0.6534
 
              Baa    -0.0006    -0.343    -0.122    -0.114  0.3412  0.6660 -0.6633
    29 H(1)   Bbb    -0.0001    -0.027    -0.010    -0.009  0.8507  0.0814  0.5194
              Bcc     0.0007     0.370     0.132     0.123 -0.3999  0.7415  0.5387
 
              Baa    -0.0011    -0.598    -0.213    -0.199 -0.1565 -0.0635  0.9856
    30 H(1)   Bbb    -0.0004    -0.233    -0.083    -0.078  0.6180  0.7721  0.1479
              Bcc     0.0016     0.830     0.296     0.277  0.7704 -0.6323  0.0816
 
              Baa    -0.0007    -0.353    -0.126    -0.118 -0.1596  0.0988  0.9822
    31 H(1)   Bbb    -0.0001    -0.079    -0.028    -0.026  0.8895  0.4459  0.0997
              Bcc     0.0008     0.432     0.154     0.144 -0.4282  0.8896 -0.1590
 
              Baa    -0.0011    -0.152    -0.054    -0.051  0.2432  0.9347  0.2593
    32 C(13)  Bbb     0.0002     0.021     0.007     0.007  0.4626 -0.3468  0.8159
              Bcc     0.0010     0.132     0.047     0.044  0.8525 -0.0784 -0.5168
 
              Baa    -0.0005    -0.286    -0.102    -0.095 -0.1248 -0.6243  0.7711
    33 H(1)   Bbb    -0.0003    -0.149    -0.053    -0.050  0.5384  0.6102  0.5812
              Bcc     0.0008     0.435     0.155     0.145  0.8334 -0.4877 -0.2600
 
              Baa    -0.0005    -0.258    -0.092    -0.086  0.0054  0.6354  0.7721
    34 H(1)   Bbb    -0.0004    -0.206    -0.074    -0.069  0.6427  0.5894 -0.4895
              Bcc     0.0009     0.464     0.166     0.155  0.7661 -0.4989  0.4052
 
              Baa    -0.0005    -0.285    -0.102    -0.095 -0.0639 -0.3593  0.9310
    35 H(1)   Bbb    -0.0001    -0.070    -0.025    -0.023 -0.0424  0.9331  0.3572
              Bcc     0.0007     0.355     0.127     0.118  0.9971  0.0166  0.0748
 
              Baa    -0.0007    -0.092    -0.033    -0.031  0.6069  0.2201  0.7637
    36 C(13)  Bbb    -0.0002    -0.032    -0.012    -0.011 -0.3995  0.9151  0.0537
              Bcc     0.0009     0.125     0.045     0.042  0.6871  0.3377 -0.6433
 
              Baa    -0.0007    -0.383    -0.137    -0.128 -0.1694 -0.6923  0.7015
    37 H(1)   Bbb     0.0001     0.046     0.017     0.015  0.8099 -0.5034 -0.3013
              Bcc     0.0006     0.336     0.120     0.112  0.5617  0.5170  0.6459
 
              Baa    -0.0009    -0.491    -0.175    -0.164 -0.1226 -0.2612  0.9575
    38 H(1)   Bbb    -0.0004    -0.189    -0.068    -0.063 -0.1439  0.9592  0.2432
              Bcc     0.0013     0.680     0.243     0.227  0.9820  0.1079  0.1552
 
              Baa    -0.0007    -0.347    -0.124    -0.116 -0.0742  0.1326  0.9884
    39 H(1)   Bbb    -0.0001    -0.044    -0.016    -0.015  0.7395 -0.6577  0.1438
              Bcc     0.0007     0.390     0.139     0.130  0.6691  0.7415 -0.0493
 
              Baa    -0.0012    -0.160    -0.057    -0.053  0.0128  0.9860  0.1663
    40 C(13)  Bbb     0.0003     0.047     0.017     0.016  0.8884  0.0651 -0.4545
              Bcc     0.0008     0.113     0.040     0.038  0.4590 -0.1535  0.8751
 
              Baa    -0.0006    -0.303    -0.108    -0.101 -0.3023 -0.6068  0.7351
    41 H(1)   Bbb    -0.0003    -0.141    -0.050    -0.047 -0.4956  0.7588  0.4226
              Bcc     0.0008     0.444     0.159     0.148  0.8142  0.2365  0.5302
 
              Baa    -0.0005    -0.268    -0.096    -0.089 -0.0090  0.5811  0.8138
    42 H(1)   Bbb    -0.0004    -0.210    -0.075    -0.070 -0.2368  0.7894 -0.5664
              Bcc     0.0009     0.478     0.170     0.159  0.9715  0.1978 -0.1305
 
              Baa    -0.0005    -0.285    -0.102    -0.095 -0.3528 -0.3139  0.8815
    43 H(1)   Bbb    -0.0002    -0.082    -0.029    -0.027  0.2520  0.8754  0.4126
              Bcc     0.0007     0.367     0.131     0.123  0.9011 -0.3677  0.2297
 
              Baa    -0.0052    -0.702    -0.250    -0.234  0.2720  0.9049 -0.3274
    44 C(13)  Bbb    -0.0030    -0.406    -0.145    -0.135  0.9552 -0.2125  0.2060
              Bcc     0.0083     1.108     0.395     0.369 -0.1168  0.3688  0.9221
 
              Baa    -0.0035    -0.471    -0.168    -0.157 -0.2467  0.3986  0.8833
    45 C(13)  Bbb     0.0006     0.082     0.029     0.028 -0.4937  0.7327 -0.4685
              Bcc     0.0029     0.389     0.139     0.130  0.8339  0.5517 -0.0160
 
              Baa    -0.0050    -0.676    -0.241    -0.225  0.0297  0.3292  0.9438
    46 C(13)  Bbb     0.0015     0.201     0.072     0.067  0.7586  0.6074 -0.2357
              Bcc     0.0035     0.475     0.170     0.159 -0.6509  0.7230 -0.2317
 
              Baa    -0.0135    -0.519    -0.185    -0.173 -0.1314  0.9484 -0.2885
    47 N(14)  Bbb    -0.0122    -0.470    -0.168    -0.157  0.9903  0.1385  0.0044
              Bcc     0.0256     0.989     0.353     0.330 -0.0441  0.2851  0.9575
 
              Baa    -0.0161    -0.621    -0.222    -0.207  0.1514  0.9554 -0.2536
    48 N(14)  Bbb    -0.0148    -0.570    -0.203    -0.190  0.9778 -0.1071  0.1802
              Bcc     0.0309     1.191     0.425     0.397 -0.1450  0.2752  0.9504
 
              Baa    -0.0009    -0.121    -0.043    -0.040  0.4878 -0.4591  0.7425
    49 C(13)  Bbb    -0.0002    -0.033    -0.012    -0.011  0.1854  0.8856  0.4257
              Bcc     0.0011     0.153     0.055     0.051  0.8531  0.0700 -0.5171
 
              Baa    -0.0005    -0.288    -0.103    -0.096 -0.2719  0.7399  0.6154
    50 H(1)   Bbb    -0.0002    -0.106    -0.038    -0.035  0.6090 -0.3628  0.7053
              Bcc     0.0007     0.394     0.141     0.132  0.7451  0.5665 -0.3520
 
              Baa    -0.0012    -0.623    -0.222    -0.208 -0.1146  0.0819  0.9900
    51 H(1)   Bbb    -0.0009    -0.476    -0.170    -0.159 -0.5122  0.8490 -0.1295
              Bcc     0.0021     1.100     0.392     0.367  0.8512  0.5220  0.0554
 
              Baa    -0.0005    -0.274    -0.098    -0.091 -0.0977 -0.0570  0.9936
    52 H(1)   Bbb    -0.0003    -0.165    -0.059    -0.055 -0.6535  0.7566 -0.0208
              Bcc     0.0008     0.439     0.157     0.146  0.7506  0.6513  0.1111
 
              Baa    -0.0007    -0.092    -0.033    -0.031 -0.0778  0.9429 -0.3239
    53 C(13)  Bbb     0.0002     0.024     0.009     0.008  0.3709  0.3290  0.8685
              Bcc     0.0005     0.067     0.024     0.022  0.9254 -0.0526 -0.3753
 
              Baa    -0.0004    -0.196    -0.070    -0.065  0.0294  0.5788  0.8150
    54 H(1)   Bbb    -0.0002    -0.129    -0.046    -0.043 -0.3742  0.7624 -0.5279
              Bcc     0.0006     0.325     0.116     0.108  0.9269  0.2895 -0.2390
 
              Baa    -0.0003    -0.180    -0.064    -0.060 -0.1678  0.9054 -0.3900
    55 H(1)   Bbb    -0.0003    -0.146    -0.052    -0.049 -0.3726  0.3080  0.8754
              Bcc     0.0006     0.326     0.116     0.109  0.9127  0.2922  0.2856
 
              Baa    -0.0004    -0.205    -0.073    -0.068  0.0474  0.3431  0.9381
    56 H(1)   Bbb    -0.0001    -0.072    -0.026    -0.024  0.0681  0.9359 -0.3457
              Bcc     0.0005     0.277     0.099     0.092  0.9966 -0.0802 -0.0210
 
              Baa    -0.0006    -0.080    -0.029    -0.027  0.0240 -0.5702  0.8212
    57 C(13)  Bbb    -0.0005    -0.061    -0.022    -0.020  0.5874  0.6727  0.4499
              Bcc     0.0011     0.141     0.050     0.047  0.8089 -0.4716 -0.3511
 
              Baa    -0.0007    -0.374    -0.134    -0.125  0.0755  0.6744  0.7345
    58 H(1)   Bbb    -0.0002    -0.090    -0.032    -0.030 -0.5640 -0.5785  0.5892
              Bcc     0.0009     0.464     0.166     0.155  0.8223 -0.4587  0.3367
 
              Baa    -0.0011    -0.568    -0.203    -0.190  0.0825  0.2680  0.9599
    59 H(1)   Bbb    -0.0007    -0.374    -0.134    -0.125  0.3913  0.8771 -0.2786
              Bcc     0.0018     0.943     0.336     0.314  0.9166 -0.3986  0.0325
 
              Baa    -0.0006    -0.309    -0.110    -0.103 -0.0403 -0.1630  0.9858
    60 H(1)   Bbb    -0.0002    -0.097    -0.035    -0.032  0.6367  0.7562  0.1511
              Bcc     0.0008     0.406     0.145     0.136  0.7700 -0.6338 -0.0733
 
              Baa    -0.0008    -0.109    -0.039    -0.036  0.1898  0.9708 -0.1465
    61 C(13)  Bbb     0.0003     0.047     0.017     0.016 -0.3379  0.2047  0.9186
              Bcc     0.0005     0.062     0.022     0.021  0.9218 -0.1249  0.3669
 
              Baa    -0.0004    -0.232    -0.083    -0.078 -0.0512  0.6589  0.7505
    62 H(1)   Bbb    -0.0002    -0.115    -0.041    -0.038  0.5190  0.6596 -0.5437
              Bcc     0.0007     0.347     0.124     0.116  0.8532 -0.3617  0.3757
 
              Baa    -0.0004    -0.205    -0.073    -0.068 -0.1170 -0.6351  0.7635
    63 H(1)   Bbb    -0.0003    -0.157    -0.056    -0.052  0.3643  0.6877  0.6280
              Bcc     0.0007     0.361     0.129     0.121  0.9239 -0.3516 -0.1509
 
              Baa    -0.0004    -0.213    -0.076    -0.071 -0.1596  0.3661  0.9168
    64 H(1)   Bbb    -0.0002    -0.105    -0.038    -0.035 -0.0207  0.9272 -0.3739
              Bcc     0.0006     0.318     0.113     0.106  0.9870  0.0787  0.1404
 

 ---------------------------------------------------------------------------------

 No NMR shielding tensors so no spin-rotation constants.
 Leave Link  601 at Wed Jan 27 05:21:58 2021, MaxMem=  4026531840 cpu:              10.6 elap:               1.4
 (Enter /opt/ohpc/pub/libs/gaussian/g16-A.03/sandybridge/g16/l9999.exe)

 Test job not archived.
 1\1\GINC-CNODE145\SP\ULC-wHPBE\TZVP\C26H32N4S2(3+,2)\RDU230\27-Jan-202
 1\0\\#P LC-wHPBE/TZVP iop(3/107=0156200000, 3/108=0156200000) scf=(con
 ver=6,fermi,ndamp=35,noincfock,novaracc,vshift=500,xqc)\\H32 C26 S2 N4
 \\3,2\C,0,-2.928949,-0.209586,-0.466429\C,0,-1.563914,-0.061175,-0.303
 79\S,0,-0.549634,-0.92994,-1.465043\C,0,-1.080492,0.744795,0.70659\C,0
 ,1.720975,-1.178026,0.124019\C,0,1.104728,-0.556786,-0.961278\C,0,-3.8
 04439,0.453059,0.37376\C,0,-1.957571,1.39872,1.546095\H,0,-0.017059,0.
 867388,0.843825\C,0,3.05531,-0.905897,0.375396\C,0,1.834379,0.303673,-
 1.763498\C,0,3.157322,0.57014,-1.506853\C,0,3.772824,-0.043708,-0.4294
 35\H,0,3.535939,-1.385849,1.215765\H,0,1.346414,0.763075,-2.610001\H,0
 ,3.71103,1.227115,-2.160412\C,0,-3.316329,1.26263,1.386512\H,0,-3.3099
 64,-0.825983,-1.268943\H,0,-0.12139,-2.546838,0.437504\H,0,-1.570409,2
 .020933,2.339064\H,0,-3.993957,1.766527,2.059405\S,0,0.923466,-2.27951
 2,1.229412\C,0,5.179371,0.186625,-0.15991\C,0,6.258258,1.013194,-0.194
 238\C,0,6.373984,-0.291545,0.281001\N,0,6.778879,2.1722,-0.466391\N,0,
 7.085837,-1.264246,0.765069\C,0,5.943792,3.274283,-0.907684\H,0,6.1879
 51,3.5455,-1.931936\H,0,4.898805,2.994168,-0.846509\H,0,6.108951,4.134
 804,-0.264794\C,0,8.194976,2.451187,-0.318309\H,0,8.537142,3.011091,-1
 .183702\H,0,8.380874,3.039067,0.577705\H,0,8.758216,1.527533,-0.273817
 \C,0,6.515968,-2.589608,0.931428\H,0,6.460524,-2.846499,1.986434\H,0,5
 .524243,-2.624805,0.496396\H,0,7.140387,-3.318442,0.421721\C,0,8.48492
 9,-1.112006,1.118438\H,0,8.667734,-1.621246,2.059984\H,0,9.125917,-1.5
 45202,0.353886\H,0,8.728287,-0.065327,1.25212\C,0,-5.234909,0.301436,0
 .192555\C,0,-6.482207,0.837696,0.274291\C,0,-6.296202,-0.469144,-0.166
 373\N,0,-7.258316,1.842942,0.55157\N,0,-6.771609,-1.601745,-0.593499\C
 ,0,-6.699705,3.135271,0.904858\H,0,-6.943427,3.382636,1.935256\H,0,-5.
 623434,3.119821,0.780416\H,0,-7.111169,3.899344,0.250646\C,0,-8.704916
 ,1.757804,0.486526\H,0,-9.127537,2.25749,1.353238\H,0,-9.080352,2.2381
 57,-0.414316\H,0,-9.022841,0.722915,0.509579\C,0,-5.902929,-2.750782,-
 0.768792\H,0,-5.850729,-3.027562,-1.819029\H,0,-4.908582,-2.521281,-0.
 40444\H,0,-6.292204,-3.59128,-0.200176\C,0,-8.181475,-1.806186,-0.8668
 23\H,0,-8.283723,-2.375263,-1.7861\H,0,-8.657299,-2.356258,-0.057912\H
 ,0,-8.67988,-0.85495,-1.00634\\Version=EM64L-G16RevA.03\State=2-A\HF=-
 2023.2530605\S2=0.756963\S2-1=0.\S2A=0.750041\RMSD=1.686e-08\Dipole=0.
 2286896,0.8174656,0.1426138\Quadrupole=259.0656241,-110.1195981,-148.9
 460259,4.8098028,2.9355853,0.8321558\PG=C01 [X(C26H32N4S2)]\\@


 WORK FAITHFULLY FOR EIGHT HOURS A DAY AND DON'T WORRY.
 IN TIME YOU MAY BECOME BOSS AND WORK TWELVE HOURS A DAY
 AND HAVE ALL THE WORRY.
 Job cpu time:       0 days 13 hours  4 minutes 32.0 seconds.
 Elapsed time:       0 days  1 hours 39 minutes 31.1 seconds.
 File lengths (MBytes):  RWF=    636 Int=      0 D2E=      0 Chk=     52 Scr=      8
 Normal termination of Gaussian 16 at Wed Jan 27 05:21:58 2021.
