 Entering Gaussian System, Link 0=g16
 Input=mol_bp_cp_half_tune_c5.gjf
 Output=mol_bp_cp_half_tune_c5.log
 Initial command:
 /opt/ohpc/pub/libs/gaussian/g16-A.03/sandybridge/g16/l1.exe "/mnt/gpfs2_4m/scratch/rdu230/ondemand/projects/init_structures/wtuning/mol_bp_cp_half/tuning_mol_bp_cp_half_ocycle0/Gau-262895.inp" -scrdir="/mnt/gpfs2_4m/scratch/rdu230/ondemand/projects/init_structures/wtuning/mol_bp_cp_half/tuning_mol_bp_cp_half_ocycle0/"
 Entering Link 1 = /opt/ohpc/pub/libs/gaussian/g16-A.03/sandybridge/g16/l1.exe PID=    262896.
  
 Copyright (c) 1988,1990,1992,1993,1995,1998,2003,2009,2016,
            Gaussian, Inc.  All Rights Reserved.
  
 This is part of the Gaussian(R) 16 program.  It is based on
 the Gaussian(R) 09 system (copyright 2009, Gaussian, Inc.),
 the Gaussian(R) 03 system (copyright 2003, Gaussian, Inc.),
 the Gaussian(R) 98 system (copyright 1998, Gaussian, Inc.),
 the Gaussian(R) 94 system (copyright 1995, Gaussian, Inc.),
 the Gaussian 92(TM) system (copyright 1992, Gaussian, Inc.),
 the Gaussian 90(TM) system (copyright 1990, Gaussian, Inc.),
 the Gaussian 88(TM) system (copyright 1988, Gaussian, Inc.),
 the Gaussian 86(TM) system (copyright 1986, Carnegie Mellon
 University), and the Gaussian 82(TM) system (copyright 1983,
 Carnegie Mellon University). Gaussian is a federally registered
 trademark of Gaussian, Inc.
  
 This software contains proprietary and confidential information,
 including trade secrets, belonging to Gaussian, Inc.
  
 This software is provided under written license and may be
 used, copied, transmitted, or stored only in accord with that
 written license.
  
 The following legend is applicable only to US Government
 contracts under FAR:
  
                    RESTRICTED RIGHTS LEGEND
  
 Use, reproduction and disclosure by the US Government is
 subject to restrictions as set forth in subparagraphs (a)
 and (c) of the Commercial Computer Software - Restricted
 Rights clause in FAR 52.227-19.
  
 Gaussian, Inc.
 340 Quinnipiac St., Bldg. 40, Wallingford CT 06492
  
  
 ---------------------------------------------------------------
 Warning -- This program may not be used in any manner that
 competes with the business of Gaussian, Inc. or will provide
 assistance to any competitor of Gaussian, Inc.  The licensee
 of this program is prohibited from giving any competitor of
 Gaussian, Inc. access to this program.  By using this program,
 the user acknowledges that Gaussian, Inc. is engaged in the
 business of creating and licensing software in the field of
 computational chemistry and represents and warrants to the
 licensee that it is not a competitor of Gaussian, Inc. and that
 it will not use this program in any manner prohibited above.
 ---------------------------------------------------------------
  

 Cite this work as:
 Gaussian 16, Revision A.03,
 M. J. Frisch, G. W. Trucks, H. B. Schlegel, G. E. Scuseria, 
 M. A. Robb, J. R. Cheeseman, G. Scalmani, V. Barone, 
 G. A. Petersson, H. Nakatsuji, X. Li, M. Caricato, A. V. Marenich, 
 J. Bloino, B. G. Janesko, R. Gomperts, B. Mennucci, H. P. Hratchian, 
 J. V. Ortiz, A. F. Izmaylov, J. L. Sonnenberg, D. Williams-Young, 
 F. Ding, F. Lipparini, F. Egidi, J. Goings, B. Peng, A. Petrone, 
 T. Henderson, D. Ranasinghe, V. G. Zakrzewski, J. Gao, N. Rega, 
 G. Zheng, W. Liang, M. Hada, M. Ehara, K. Toyota, R. Fukuda, 
 J. Hasegawa, M. Ishida, T. Nakajima, Y. Honda, O. Kitao, H. Nakai, 
 T. Vreven, K. Throssell, J. A. Montgomery, Jr., J. E. Peralta, 
 F. Ogliaro, M. J. Bearpark, J. J. Heyd, E. N. Brothers, K. N. Kudin, 
 V. N. Staroverov, T. A. Keith, R. Kobayashi, J. Normand, 
 K. Raghavachari, A. P. Rendell, J. C. Burant, S. S. Iyengar, 
 J. Tomasi, M. Cossi, J. M. Millam, M. Klene, C. Adamo, R. Cammi, 
 J. W. Ochterski, R. L. Martin, K. Morokuma, O. Farkas, 
 J. B. Foresman, and D. J. Fox, Gaussian, Inc., Wallingford CT, 2016.
 
 ******************************************
 Gaussian 16:  EM64L-G16RevA.03 25-Dec-2016
                21-Jan-2021 
 ******************************************
 %mem=30GB
 %nproc=8
 Will use up to    8 processors via shared memory.
 ----------------------------------------------------------------------
 #P LC-wHPBE/TZVP iop(3/107=0186400000, 3/108=0186400000) scf=(conver=6
 ,fermi,ndamp=35,noincfock,novaracc,vshift=500,xqc)
 ----------------------------------------------------------------------
 1/38=1,172=1/1;
 2/12=2,17=6,18=5,40=1/2;
 3/5=19,7=101,11=2,25=1,30=1,74=-71,107=186400000,108=186400000/1,2,3;
 4//1;
 5/5=100002,6=6,8=3,10=500,13=1,18=-1,22=13,38=1,93=35/2,8;
 6/7=2,8=2,9=2,10=2,28=1/1;
 99/5=1,9=1/99;
 Leave Link    1 at Thu Jan 21 03:12:05 2021, MaxMem=  4026531840 cpu:               1.7 elap:               0.3
 (Enter /opt/ohpc/pub/libs/gaussian/g16-A.03/sandybridge/g16/l101.exe)
 ----------
 H21 C19 N2
 ----------
 Symbolic Z-matrix:
 Charge =  2 Multiplicity = 2
 C                     5.9243   -1.17518   0.28256 
 C                     6.62563   0.00003  -0.00025 
 C                     4.53032  -1.17747   0.27821 
 C                     5.92421   1.1752   -0.28295 
 C                     3.81094  -0.00004  -0.00002 
 C                     4.53023   1.17744  -0.27837 
 H                     7.71655   0.00006  -0.00033 
 H                     3.99406  -2.09497   0.52794 
 H                     6.4663    2.09321  -0.51475 
 H                     3.99388   2.0949   -0.52801 
 C                     2.33372  -0.00006   0.00011 
 C                     1.60478   1.11928   0.45271 
 C                     1.60475  -1.11943  -0.45234 
 C                     0.21685   1.12577   0.44924 
 C                     0.21681  -1.12598  -0.44867 
 C                    -0.50492  -0.00011   0.00031 
 H                     2.14167   1.98573   0.84084 
 H                     2.1416   -1.98589  -0.84051 
 H                    -0.31569   1.9952    0.83819 
 H                    -0.31575  -1.99547  -0.83748 
 H                     6.46648  -2.09316   0.51427 
 C                    -1.94287  -0.00009   0.0004 
 C                    -3.14332  -0.70264  -0.00339 
 C                    -3.14313   0.7028    0.00392 
 N                    -3.78708  -1.85502   0.00167 
 N                    -3.78677   1.85525  -0.0011 
 C                    -3.06841  -3.12252   0.16773 
 H                    -3.18789  -3.74858  -0.7286 
 H                    -2.00579  -2.92761   0.34104 
 H                    -3.47116  -3.66355   1.03624 
 C                    -5.24512  -1.94416  -0.10028 
 H                    -5.50915  -2.714    -0.83867 
 H                    -5.68895  -2.21726   0.86911 
 H                    -5.65925  -0.98959  -0.43909 
 C                    -3.06805   3.12262  -0.16813 
 H                    -3.18812   3.7496    0.72746 
 H                    -2.0053    2.92754  -0.34053 
 H                    -3.47019   3.66271  -1.03751 
 C                    -5.24495   1.94423   0.09939 
 H                    -5.50954   2.71844   0.83295 
 H                    -5.68863   2.21126  -0.87177 
 H                    -5.65878   0.99164   0.44414 
 
 ITRead=  0  0  0  0  0  0  0  0  0  0  0  0  0  0  0  0  0  0  0  0
 ITRead=  0  0  0  0  0  0  0  0  0  0  0  0  0  0  0  0  0  0  0  0
 ITRead=  0  0
 MicOpt= -1 -1 -1 -1 -1 -1 -1 -1 -1 -1 -1 -1 -1 -1 -1 -1 -1 -1 -1 -1
 MicOpt= -1 -1 -1 -1 -1 -1 -1 -1 -1 -1 -1 -1 -1 -1 -1 -1 -1 -1 -1 -1
 MicOpt= -1 -1
 NAtoms=     42 NQM=       42 NQMF=       0 NMMI=      0 NMMIF=      0
                NMic=       0 NMicF=      0.
                    Isotopes and Nuclear Properties:
 (Nuclear quadrupole moments (NQMom) in fm**2, nuclear magnetic moments (NMagM)
  in nuclear magnetons)

  Atom         1           2           3           4           5           6           7           8           9          10
 IAtWgt=          12          12          12          12          12          12           1           1           1           1
 AtmWgt=  12.0000000  12.0000000  12.0000000  12.0000000  12.0000000  12.0000000   1.0078250   1.0078250   1.0078250   1.0078250
 NucSpn=           0           0           0           0           0           0           1           1           1           1
 AtZEff=  -0.0000000  -0.0000000  -0.0000000  -0.0000000  -0.0000000  -0.0000000  -0.0000000  -0.0000000  -0.0000000  -0.0000000
 NQMom=    0.0000000   0.0000000   0.0000000   0.0000000   0.0000000   0.0000000   0.0000000   0.0000000   0.0000000   0.0000000
 NMagM=    0.0000000   0.0000000   0.0000000   0.0000000   0.0000000   0.0000000   2.7928460   2.7928460   2.7928460   2.7928460
 AtZNuc=   6.0000000   6.0000000   6.0000000   6.0000000   6.0000000   6.0000000   1.0000000   1.0000000   1.0000000   1.0000000

  Atom        11          12          13          14          15          16          17          18          19          20
 IAtWgt=          12          12          12          12          12          12           1           1           1           1
 AtmWgt=  12.0000000  12.0000000  12.0000000  12.0000000  12.0000000  12.0000000   1.0078250   1.0078250   1.0078250   1.0078250
 NucSpn=           0           0           0           0           0           0           1           1           1           1
 AtZEff=  -0.0000000  -0.0000000  -0.0000000  -0.0000000  -0.0000000  -0.0000000  -0.0000000  -0.0000000  -0.0000000  -0.0000000
 NQMom=    0.0000000   0.0000000   0.0000000   0.0000000   0.0000000   0.0000000   0.0000000   0.0000000   0.0000000   0.0000000
 NMagM=    0.0000000   0.0000000   0.0000000   0.0000000   0.0000000   0.0000000   2.7928460   2.7928460   2.7928460   2.7928460
 AtZNuc=   6.0000000   6.0000000   6.0000000   6.0000000   6.0000000   6.0000000   1.0000000   1.0000000   1.0000000   1.0000000

  Atom        21          22          23          24          25          26          27          28          29          30
 IAtWgt=           1          12          12          12          14          14          12           1           1           1
 AtmWgt=   1.0078250  12.0000000  12.0000000  12.0000000  14.0030740  14.0030740  12.0000000   1.0078250   1.0078250   1.0078250
 NucSpn=           1           0           0           0           2           2           0           1           1           1
 AtZEff=  -0.0000000  -0.0000000  -0.0000000  -0.0000000  -0.0000000  -0.0000000  -0.0000000  -0.0000000  -0.0000000  -0.0000000
 NQMom=    0.0000000   0.0000000   0.0000000   0.0000000   2.0440000   2.0440000   0.0000000   0.0000000   0.0000000   0.0000000
 NMagM=    2.7928460   0.0000000   0.0000000   0.0000000   0.4037610   0.4037610   0.0000000   2.7928460   2.7928460   2.7928460
 AtZNuc=   1.0000000   6.0000000   6.0000000   6.0000000   7.0000000   7.0000000   6.0000000   1.0000000   1.0000000   1.0000000

  Atom        31          32          33          34          35          36          37          38          39          40
 IAtWgt=          12           1           1           1          12           1           1           1          12           1
 AtmWgt=  12.0000000   1.0078250   1.0078250   1.0078250  12.0000000   1.0078250   1.0078250   1.0078250  12.0000000   1.0078250
 NucSpn=           0           1           1           1           0           1           1           1           0           1
 AtZEff=  -0.0000000  -0.0000000  -0.0000000  -0.0000000  -0.0000000  -0.0000000  -0.0000000  -0.0000000  -0.0000000  -0.0000000
 NQMom=    0.0000000   0.0000000   0.0000000   0.0000000   0.0000000   0.0000000   0.0000000   0.0000000   0.0000000   0.0000000
 NMagM=    0.0000000   2.7928460   2.7928460   2.7928460   0.0000000   2.7928460   2.7928460   2.7928460   0.0000000   2.7928460
 AtZNuc=   6.0000000   1.0000000   1.0000000   1.0000000   6.0000000   1.0000000   1.0000000   1.0000000   6.0000000   1.0000000

  Atom        41          42
 IAtWgt=           1           1
 AtmWgt=   1.0078250   1.0078250
 NucSpn=           1           1
 AtZEff=  -0.0000000  -0.0000000
 NQMom=    0.0000000   0.0000000
 NMagM=    2.7928460   2.7928460
 AtZNuc=   1.0000000   1.0000000
 Leave Link  101 at Thu Jan 21 03:12:05 2021, MaxMem=  4026531840 cpu:               0.7 elap:               0.1
 (Enter /opt/ohpc/pub/libs/gaussian/g16-A.03/sandybridge/g16/l202.exe)
                          Input orientation:                          
 ---------------------------------------------------------------------
 Center     Atomic      Atomic             Coordinates (Angstroms)
 Number     Number       Type             X           Y           Z
 ---------------------------------------------------------------------
      1          6           0        5.924302   -1.175178    0.282560
      2          6           0        6.625626    0.000025   -0.000251
      3          6           0        4.530324   -1.177472    0.278212
      4          6           0        5.924206    1.175202   -0.282951
      5          6           0        3.810936   -0.000036   -0.000021
      6          6           0        4.530233    1.177435   -0.278371
      7          1           0        7.716547    0.000056   -0.000331
      8          1           0        3.994064   -2.094974    0.527939
      9          1           0        6.466302    2.093210   -0.514746
     10          1           0        3.993880    2.094904   -0.528010
     11          6           0        2.333716   -0.000062    0.000109
     12          6           0        1.604784    1.119278    0.452707
     13          6           0        1.604752   -1.119433   -0.452341
     14          6           0        0.216850    1.125770    0.449243
     15          6           0        0.216813   -1.125977   -0.448670
     16          6           0       -0.504919   -0.000106    0.000309
     17          1           0        2.141671    1.985727    0.840835
     18          1           0        2.141597   -1.985891   -0.840507
     19          1           0       -0.315693    1.995203    0.838189
     20          1           0       -0.315745   -1.995465   -0.837475
     21          1           0        6.466484   -2.093156    0.514265
     22          6           0       -1.942874   -0.000086    0.000402
     23          6           0       -3.143323   -0.702637   -0.003392
     24          6           0       -3.143127    0.702801    0.003915
     25          7           0       -3.787080   -1.855019    0.001668
     26          7           0       -3.786774    1.855252   -0.001097
     27          6           0       -3.068411   -3.122520    0.167733
     28          1           0       -3.187886   -3.748580   -0.728596
     29          1           0       -2.005788   -2.927607    0.341041
     30          1           0       -3.471162   -3.663551    1.036238
     31          6           0       -5.245121   -1.944160   -0.100275
     32          1           0       -5.509149   -2.713998   -0.838669
     33          1           0       -5.688951   -2.217262    0.869111
     34          1           0       -5.659251   -0.989594   -0.439085
     35          6           0       -3.068047    3.122616   -0.168130
     36          1           0       -3.188116    3.749602    0.727455
     37          1           0       -2.005304    2.927538   -0.340531
     38          1           0       -3.470192    3.662707   -1.037509
     39          6           0       -5.244950    1.944232    0.099391
     40          1           0       -5.509538    2.718440    0.832954
     41          1           0       -5.688631    2.211256   -0.871774
     42          1           0       -5.658779    0.991638    0.444142
 ---------------------------------------------------------------------
                    Distance matrix (angstroms):
                    1          2          3          4          5
     1  C    0.000000
     2  C    1.397476   0.000000
     3  C    1.393987   2.419573   0.000000
     4  C    2.417455   1.397480   2.791574   0.000000
     5  C    2.434569   2.814690   1.407582   2.434573   0.000000
     6  C    2.791569   2.419570   2.419788   1.393982   1.407588
     7  H    2.161792   1.090921   3.408251   2.161788   3.905611
     8  H    2.152221   3.404868   1.091672   3.882917   2.168189
     9  H    3.407612   2.161368   3.882545   1.091025   3.420174
    10  H    3.882910   3.404869   3.412655   2.152223   2.168182
    11  C    3.788533   4.291910   2.507733   3.788534   1.477220
    12  C    4.894049   5.163986   3.723479   4.381977   2.514942
    13  C    4.381974   5.163986   3.015965   4.894050   2.514934
    14  C    6.156066   6.522404   4.892876   5.754343   3.792985
    15  C    5.754350   6.522411   4.374630   6.156072   3.792987
    16  C    6.541815   7.130545   5.178522   6.541807   4.315855
    17  H    4.960977   4.975569   4.003503   4.028327   2.727039
    18  H    4.028324   4.975581   2.758820   4.960999   2.727037
    19  H    7.021223   7.270875   5.819220   6.392628   4.659683
    20  H    6.392616   7.270870   5.039668   7.021226   4.659674
    21  H    1.091023   2.161356   2.154742   3.407607   3.420172
    22  C    7.959454   8.568500   6.585265   7.959431   5.753810
    23  C    9.084431   9.794187   7.693480   9.264152   6.989662
    24  C    9.264055   9.794001   7.905221   9.084161   6.989491
    25  N    9.739200  10.576655   8.349536  10.177049   7.821177
    26  N   10.176884  10.576386   8.857175   9.738842   7.820952
    27  C    9.201859  10.185915   7.844501   9.977008   7.556683
    28  H    9.522437  10.530315   8.197257  10.366892   7.972823
    29  H    8.121623   9.120790   6.766659   8.950263   6.520834
    30  H    9.748578  10.790794   8.413024  10.650199   8.217307
    31  C   11.202406  12.029318   9.812767  11.598175   9.262928
    32  H   11.590898  12.462810  10.217600  12.089512   9.743352
    33  H   11.674657  12.542765  10.289019  12.153250   9.793842
    34  H   11.607494  12.332482  10.216519  11.785041   9.531865
    35  C    9.976798  10.185581   8.742152   9.201425   7.556429
    36  H   10.367620  10.530832   9.167998   9.522755   7.973439
    37  H    8.949814   9.120256   7.742634   8.121030   6.520375
    38  H   10.649142  10.789656   9.442813   9.747397   8.216258
    39  C   11.598123  12.029150  10.263186  11.202127   9.262782
    40  H   12.091149  12.463796  10.783538  11.591261   9.744496
    41  H   12.151569  12.541532  10.827418  11.673821   9.792423
    42  H   11.785116  12.332372  10.418752  11.607235   9.531852
                    6          7          8          9         10
     6  C    0.000000
     7  H    3.408244   0.000000
     8  H    3.412664   4.304079   0.000000
     9  H    2.154734   2.491792   4.973936   0.000000
    10  H    1.091670   4.304077   4.320892   2.472458   0.000000
    11  C    2.507735   5.382831   2.724705   4.661022   2.724690
    12  C    3.015976   6.229892   4.005713   5.051620   2.760694
    13  C    3.723481   6.229896   2.760696   5.827490   4.005699
    14  C    4.374627   7.597026   4.964547   6.396942   4.019975
    15  C    4.892883   7.597037   4.019993   7.030195   4.964535
    16  C    5.178515   8.221466   4.990763   7.296929   4.990729
    17  H    2.758838   5.977432   4.492370   4.533386   2.305718
    18  H    4.003525   5.977453   2.305684   5.953844   4.492382
    19  H    5.039687   8.318690   5.949774   6.916321   4.522042
    20  H    5.819226   8.318692   4.522025   7.925754   5.949769
    21  H    3.882539   2.491787   2.472458   4.310977   4.973927
    22  C    6.585240   9.659421   6.317759   8.681101   6.317693
    23  C    7.905299  10.882581   7.291310  10.021134   7.683822
    24  C    7.693206  10.882389   7.683856   9.723342   7.290937
    25  N    8.857307  11.652242   7.802611  10.999411   8.742184
    26  N    8.349187  11.651959   8.742174  10.268692   7.802157
    27  C    8.742312  11.229160   7.145919  10.889461   8.808038
    28  H    9.167207  11.553757   7.476209  11.286079   9.260902
    29  H    7.743036  10.159308   6.060234   9.885205   7.872540
    30  H    9.443816  11.817839   7.645155  11.588746   9.556858
    31  C   10.263217  13.107052   9.261746  12.394740  10.092380
    32  H   10.781761  13.527303   9.620908  12.908354  10.655027
    33  H   10.829238  13.615425   9.689795  12.970945  10.691302
    34  H   10.418610  13.419534   9.764399  12.511532  10.134346
    35  C    7.844090  11.228802   8.808017   9.596022   7.145384
    36  H    8.197600  11.554239   9.261889   9.873930   7.476315
    37  H    6.766090  10.158754   7.872248   8.514374   6.059590
    38  H    8.411877  11.816678   9.555974  10.073257   7.643950
    39  C    9.812486  13.106875  10.092483  11.728290   9.261334
    40  H   10.217962  13.528241  10.657412  12.067641   9.620602
    41  H   10.288153  13.614243  10.689125  12.160748   9.689310
    42  H   10.216287  13.419394  10.134672  12.212719   9.764021
                   11         12         13         14         15
    11  C    0.000000
    12  C    1.410358   0.000000
    13  C    1.410351   2.414734   0.000000
    14  C    2.439332   1.387954   2.789276   0.000000
    15  C    2.439337   2.789286   1.387959   2.424172   0.000000
    16  C    2.838635   2.430747   2.430740   1.410705   1.410697
    17  H    2.164962   1.090699   3.406260   2.144250   3.879511
    18  H    2.164962   3.406266   1.090699   3.879503   2.144244
    19  H    3.420940   2.145710   3.880017   1.091235   3.417797
    20  H    3.420939   3.880029   2.145709   3.417808   1.091236
    21  H    4.661027   5.827491   5.051624   7.030195   6.396958
    22  C    4.276590   3.747457   3.747474   2.476574   2.476599
    23  C    5.521918   5.106067   4.787430   3.852105   3.415846
    24  C    5.521761   4.787225   5.105983   3.415650   3.852072
    25  N    6.395703   6.174308   5.460683   5.011675   4.094565
    26  N    6.395513   5.460448   6.174214   4.094381   5.011662
    27  C    6.241860   6.317659   5.122041   5.377746   3.893435
    28  H    6.713456   6.932619   5.473400   6.061256   4.306783
    29  H    5.245765   5.424572   4.115209   4.624034   2.968075
    30  H    6.941997   6.998656   5.869694   6.073186   4.716502
    31  C    7.824856   7.524071   6.908320   6.289640   5.533853
    32  H    8.341434   8.183502   7.300649   7.013530   5.954876
    33  H    8.368651   8.031467   7.493301   6.799312   6.148618
    34  H    8.065952   7.616353   7.265175   6.308126   5.877654
    35  C    6.241672   5.121928   6.317500   3.893468   5.377690
    36  H    6.714137   5.474119   6.933326   4.307632   6.062020
    37  H    5.245376   4.114823   5.424295   2.967841   4.623903
    38  H    6.941028   5.869000   6.997595   4.716011   6.072251
    39  C    7.824725   6.908273   7.523887   5.533854   6.289468
    40  H    8.342692   7.301745   8.185009   5.956119   7.015212
    41  H    8.367088   7.492701   8.028876   6.148014   6.796353
    42  H    8.066016   7.264689   7.617033   5.877162   6.309040
                   16         17         18         19         20
    16  C    0.000000
    17  H    3.413862   0.000000
    18  H    3.413848   4.312848   0.000000
    19  H    2.172351   2.457384   4.970453   0.000000
    20  H    2.172355   4.970464   2.457363   4.328196   0.000000
    21  H    7.296949   5.953817   4.533383   7.925751   6.916312
    22  C    1.437955   4.618797   4.618815   2.707542   2.707605
    23  C    2.730337   5.989256   5.502534   3.997761   3.219052
    24  C    2.730244   5.502311   5.989192   3.218804   3.997833
    25  N    3.770051   7.113763   5.989624   5.251143   3.574081
    26  N    3.770004   5.989352   7.113689   3.573848   5.251247
    27  C    4.043389   7.327497   5.427030   5.849620   3.139724
    28  H    4.666977   7.984333   5.614533   6.610246   3.366669
    29  H    3.307411   6.449191   4.414033   5.228540   2.261423
    30  H    4.826238   7.965954   6.151405   6.482107   4.031125
    31  C    5.124351   8.419881   7.423832   6.379542   4.984460
    32  H    5.754252   9.134725   7.685314   7.208357   5.242875
    33  H    5.704804   8.887326   8.018342   6.827717   5.642072
    34  H    5.266810   8.446604   7.874451   6.252524   5.451931
    35  C    4.043438   5.426941   7.327300   3.139935   5.849610
    36  H    4.667826   5.615224   7.985000   3.367639   6.611000
    37  H    3.307329   4.413619   6.448918   2.261286   5.228530
    38  H    4.825568   6.150890   7.964775   4.031089   6.481162
    39  C    5.124272   7.423856   8.419641   4.984576   6.379341
    40  H    5.755867   7.686217   9.136250   5.243961   7.210182
    41  H    5.702764   8.018574   8.884227   5.642616   6.823898
    42  H    5.267145   7.873538   8.447595   5.450778   6.254066
                   21         22         23         24         25
    21  H    0.000000
    22  C    8.681146   0.000000
    23  C    9.723677   1.390924   0.000000
    24  C   10.021101   1.390924   1.405457   0.000000
    25  N   10.269130   2.615698   1.320012   2.637636   0.000000
    26  N   10.999310   2.615769   2.637580   1.320019   3.710272
    27  C    9.596557   3.323316   2.427082   3.829556   1.466500
    28  H    9.873803   4.016553   3.131402   4.511471   2.116103
    29  H    8.515028   2.947944   2.522521   3.819300   2.106803
    30  H   10.074493   4.102389   3.155205   4.498703   2.107351
    31  C   11.728664   3.833327   2.443015   3.381662   1.464316
    32  H   12.067794   4.559350   3.215648   4.240581   2.099889
    33  H   12.161247   4.438876   3.087972   3.969452   2.121507
    34  H   12.213115   3.870883   2.569449   3.064528   2.109087
    35  C   10.889317   3.323505   3.829539   2.427085   5.032166
    36  H   11.286920   4.017386   4.512048   3.131857   5.683071
    37  H    9.884798   2.948070   3.819283   2.522447   5.115142
    38  H   11.587730   4.101952   4.498052   3.154771   5.623665
    39  C   12.394769   3.833259   3.381319   2.442934   4.070533
    40  H   12.910388   4.561208   4.242902   3.217143   4.957260
    41  H   12.969036   4.436375   3.965281   3.085751   4.573116
    42  H   12.511709   3.871482   3.065677   2.570162   3.435476
                   26         27         28         29         30
    26  N    0.000000
    27  C    5.032173   0.000000
    28  H    5.682504   1.099832   0.000000
    29  H    5.115145   1.094164   1.793175   0.000000
    30  H    5.624310   1.099647   1.789445   1.781076   0.000000
    31  C    4.070890   2.489664   2.807656   3.413972   2.719356
    32  H    4.954407   2.671505   2.543765   3.702821   2.927511
    33  H    4.578309   2.859834   3.339600   3.788026   2.652974
    34  H    3.433825   3.410286   3.715302   4.208596   3.756908
    35  C    1.466520   6.254161   6.895058   6.163834   6.903989
    36  H    2.116067   6.895918   7.638247   6.792079   7.424978
    37  H    2.106810   6.163743   6.791145   5.894681   6.891058
    38  H    2.107432   6.903140   7.423092   6.890364   7.614098
    39  C    1.464340   5.514886   6.109434   5.855372   5.955773
    40  H    2.099679   6.365409   7.046336   6.663039   6.702694
    41  H    2.121763   6.032851   6.464818   6.437559   6.562853
    42  H    2.109140   4.869569   5.472686   5.358680   5.177551
                   31         32         33         34         35
    31  C    0.000000
    32  H    1.098903   0.000000
    33  H    1.100581   1.787621   0.000000
    34  H    1.094300   1.776448   1.794276   0.000000
    35  C    5.515113   6.361970   6.038154   4.868062   0.000000
    36  H    6.110264   7.044009   6.471299   5.470585   1.099818
    37  H    5.855560   6.659730   6.442162   5.357701   1.094166
    38  H    5.955312   6.697705   6.567505   5.176292   1.099654
    39  C    3.893515   4.759082   4.255307   3.011468   2.489792
    40  H    4.762423   5.683811   4.939094   3.923011   2.669533
    41  H    4.249635   4.928634   4.758409   3.230097   2.862368
    42  H    3.014368   3.924249   3.237059   2.169187   3.409961
                   36         37         38         39         40
    36  H    0.000000
    37  H    1.793161   0.000000
    38  H    1.789474   1.781053   0.000000
    39  C    2.807916   3.414049   2.719460   0.000000
    40  H    2.542327   3.701411   2.923902   1.098872   0.000000
    41  H    3.343145   3.789746   2.656247   1.100598   1.787570
    42  H    3.713598   4.208480   3.757634   1.094323   1.776314
                   41         42
    41  H    0.000000
    42  H    1.794434   0.000000
 Stoichiometry    C19H21N2(2+,2)
 Framework group  C1[X(C19H21N2)]
 Deg. of freedom   120
 Full point group                 C1      NOp   1
 Largest Abelian subgroup         C1      NOp   1
 Largest concise Abelian subgroup C1      NOp   1
                         Standard orientation:                         
 ---------------------------------------------------------------------
 Center     Atomic      Atomic             Coordinates (Angstroms)
 Number     Number       Type             X           Y           Z
 ---------------------------------------------------------------------
      1          6           0       -5.924302   -1.175178   -0.282560
      2          6           0       -6.625626    0.000025    0.000251
      3          6           0       -4.530324   -1.177472   -0.278212
      4          6           0       -5.924206    1.175202    0.282951
      5          6           0       -3.810936   -0.000036    0.000021
      6          6           0       -4.530233    1.177435    0.278371
      7          1           0       -7.716547    0.000056    0.000331
      8          1           0       -3.994064   -2.094974   -0.527939
      9          1           0       -6.466302    2.093210    0.514746
     10          1           0       -3.993880    2.094904    0.528010
     11          6           0       -2.333716   -0.000062   -0.000109
     12          6           0       -1.604784    1.119278   -0.452707
     13          6           0       -1.604752   -1.119433    0.452341
     14          6           0       -0.216850    1.125770   -0.449243
     15          6           0       -0.216813   -1.125977    0.448670
     16          6           0        0.504919   -0.000106   -0.000309
     17          1           0       -2.141671    1.985727   -0.840835
     18          1           0       -2.141597   -1.985891    0.840507
     19          1           0        0.315693    1.995203   -0.838189
     20          1           0        0.315745   -1.995465    0.837475
     21          1           0       -6.466484   -2.093156   -0.514265
     22          6           0        1.942874   -0.000086   -0.000402
     23          6           0        3.143323   -0.702637    0.003392
     24          6           0        3.143127    0.702801   -0.003915
     25          7           0        3.787080   -1.855019   -0.001668
     26          7           0        3.786774    1.855252    0.001097
     27          6           0        3.068411   -3.122520   -0.167733
     28          1           0        3.187886   -3.748580    0.728596
     29          1           0        2.005788   -2.927607   -0.341041
     30          1           0        3.471162   -3.663551   -1.036238
     31          6           0        5.245121   -1.944160    0.100275
     32          1           0        5.509149   -2.713998    0.838669
     33          1           0        5.688951   -2.217262   -0.869111
     34          1           0        5.659251   -0.989594    0.439085
     35          6           0        3.068047    3.122616    0.168130
     36          1           0        3.188116    3.749602   -0.727455
     37          1           0        2.005304    2.927538    0.340531
     38          1           0        3.470192    3.662707    1.037509
     39          6           0        5.244950    1.944232   -0.099391
     40          1           0        5.509538    2.718440   -0.832954
     41          1           0        5.688631    2.211256    0.871774
     42          1           0        5.658779    0.991638   -0.444142
 ---------------------------------------------------------------------
 Rotational constants (GHZ):           0.7037808           0.1205812           0.1040104
 Leave Link  202 at Thu Jan 21 03:12:05 2021, MaxMem=  4026531840 cpu:               0.3 elap:               0.1
 (Enter /opt/ohpc/pub/libs/gaussian/g16-A.03/sandybridge/g16/l301.exe)
 Standard basis: TZVP (5D, 7F)
 Ernie: Thresh=  0.10000D-02 Tol=  0.10000D-05 Strict=F.
 There are   546 symmetry adapted cartesian basis functions of A   symmetry.
 There are   525 symmetry adapted basis functions of A   symmetry.
   525 basis functions,   903 primitive gaussians,   546 cartesian basis functions
    74 alpha electrons       73 beta electrons
       nuclear repulsion energy      1487.4602048397 Hartrees.
 IExCor=33909 DFT=T Ex+Corr=LC-wHPBE ExCW=0 ScaHFX=  1.000000
 ScaDFX=  1.000000  1.000000  1.000000  1.000000 ScalE2=  1.000000  1.000000
 IRadAn=      5 IRanWt=     -1 IRanGd=            0 ICorTp=0 IEmpDi=  4
 HFx  wShort=  0.000000 wLong=  0.186400 cFull=  0.000000 cShort=  0.000000 cLong=  1.000000
 DFx  wShort=  0.000000 wLong=  0.186400 cFull=  0.000000 cShort=  1.000000 cLong=  0.000000
 NAtoms=   42 NActive=   42 NUniq=   42 SFac= 1.00D+00 NAtFMM=   60 NAOKFM=F Big=F
 Integral buffers will be    131072 words long.
 Raffenetti 2 integral format.
 Two-electron integral symmetry is turned on.
 Leave Link  301 at Thu Jan 21 03:12:05 2021, MaxMem=  4026531840 cpu:               0.4 elap:               0.1
 (Enter /opt/ohpc/pub/libs/gaussian/g16-A.03/sandybridge/g16/l302.exe)
 NPDir=0 NMtPBC=     1 NCelOv=     1 NCel=       1 NClECP=     1 NCelD=      1
         NCelK=      1 NCelE2=     1 NClLst=     1 CellRange=     0.0.
 One-electron integrals computed using PRISM.
 One-electron integral symmetry used in STVInt
 NBasis=   525 RedAO= T EigKep=  8.06D-06  NBF=   525
 NBsUse=   525 1.00D-06 EigRej= -1.00D+00 NBFU=   525
 Precomputing XC quadrature grid using
 IXCGrd= 4 IRadAn=           5 IRanWt=          -1 IRanGd=           0 AccXCQ= 0.00D+00.
 Generated NRdTot=       0 NPtTot=           0 NUsed=           0 NTot=          32
 NSgBfM=   523   523   523   523   523 MxSgAt=    42 MxSgA2=    42.
 Leave Link  302 at Thu Jan 21 03:12:06 2021, MaxMem=  4026531840 cpu:               7.0 elap:               0.9
 (Enter /opt/ohpc/pub/libs/gaussian/g16-A.03/sandybridge/g16/l303.exe)
 DipDrv:  MaxL=1.
 Leave Link  303 at Thu Jan 21 03:12:06 2021, MaxMem=  4026531840 cpu:               0.6 elap:               0.1
 (Enter /opt/ohpc/pub/libs/gaussian/g16-A.03/sandybridge/g16/l401.exe)
 ExpMin= 9.52D-02 ExpMax= 1.97D+04 ExpMxC= 6.73D+02 IAcc=3 IRadAn=         5 AccDes= 0.00D+00
 Harris functional with IExCor=33909 and IRadAn=       5 diagonalized for initial guess.
 HarFok:  IExCor=33909 AccDes= 0.00D+00 IRadAn=         5 IDoV= 1 UseB2=F ITyADJ=14
 ICtDFT=  3500011 ScaDFX=  1.000000  1.000000  1.000000  1.000000
 FoFCou: FMM=F IPFlag=           0 FMFlag=      100000 FMFlg1=           0
         NFxFlg=           0 DoJE=T BraDBF=F KetDBF=T FulRan=T
         wScrn=  0.000000 ICntrl=       500 IOpCl=  0 I1Cent=   200000004 NGrid=           0
         NMat0=    1 NMatS0=      1 NMatT0=    0 NMatD0=    1 NMtDS0=    0 NMtDT0=    0
 Petite list used in FoFCou.
 Harris En= -830.464253971273    
 JPrj=0 DoOrth=F DoCkMO=F.
 Initial guess <Sx>= 0.0000 <Sy>= 0.0000 <Sz>= 0.5000 <S**2>= 0.7500 S= 0.5000
 Leave Link  401 at Thu Jan 21 03:12:11 2021, MaxMem=  4026531840 cpu:              39.8 elap:               5.0
 (Enter /opt/ohpc/pub/libs/gaussian/g16-A.03/sandybridge/g16/l502.exe)
 Integral symmetry usage will be decided dynamically.
 UHF open shell SCF:
 Using DIIS extrapolation, IDIIS=    10.
 NGot=  4026531840 LenX=  4025925692 LenY=  4025627030
 Requested convergence on RMS density matrix=1.00D-06 within  32 cycles.
 Requested convergence on MAX density matrix=1.00D-04.
 Requested convergence on             energy=1.00D-04.
 Virtual orbitals will be shifted by   0.500 hartree.
 No special actions if energy rises.
 Dynamic level shift is on during FON iterations.

 Cycle   1  Pass 1  IDiag  1:
 FoFJK:  IHMeth= 1 ICntrl=       0 DoSepK=T KAlg= 0 I1Cent=           0 FoldK=F
 IRaf=         1 NMat=       1 IRICut=       1 DoRegI=T DoRafI=F ISym2E= 0 IDoP0=0 IntGTp=1.
 FoFCou: FMM=F IPFlag=           0 FMFlag=      100000 FMFlg1=           0
         NFxFlg=           0 DoJE=T BraDBF=F KetDBF=F FulRan=T
         wScrn=  0.000000 ICntrl=       500 IOpCl=  0 I1Cent=           0 NGrid=           0
         NMat0=    1 NMatS0=      1 NMatT0=    0 NMatD0=    1 NMtDS0=    0 NMtDT0=    0
 Symmetry not used in FoFCou.
 E= -844.606666848496    
 DIIS: error= 2.80D-02 at cycle   1 NSaved=   1.
 NSaved= 1 IEnMin= 1 EnMin= -844.606666848496     IErMin= 1 ErrMin= 2.80D-02
 ErrMax= 2.80D-02  0.00D+00 EMaxC= 1.00D+00 BMatC= 1.28D+00 BMatP= 1.28D+00
 IDIUse=1 WtCom= 1.00D+00 WtEn= 0.00D+00
 Coeff-Com:  0.100D+01
 Coeff:      0.100D+01
 Gap=     0.441 Goal=   None    Shift=    0.500
 T= 1455. Gap= 0.515 NK=0 IS=   75 IE=  525 IFin=   74
          NO(<0.9)=   0  NV(>0.1)=   0     74.00e < EF      0.00e >EF  Err=0.0D+00
 Gap=    -0.049 Goal=   None    Shift=    0.500
 T= 1455. Gap= 0.368 NK=0 IS=   74 IE=  525 IFin=   73
          NO(<0.9)=   0  NV(>0.1)=   0     73.00e < EF      0.00e >EF  Err=0.0D+00
 GapD=   -0.049 DampG=0.250 DampE=0.500 DampFc=0.1250 IDamp=-1.
 Damping current iteration by 1.25D-01
 RMSDP=3.04D-03 MaxDP=2.82D-01              OVMax= 1.08D-01

 Cycle   2  Pass 1  IDiag  1:
 E= -844.668053843509     Delta-E=       -0.061386995013 Rises=F Damp=T
 DIIS: error= 2.48D-02 at cycle   2 NSaved=   2.
 NSaved= 2 IEnMin= 2 EnMin= -844.668053843509     IErMin= 2 ErrMin= 2.48D-02
 ErrMax= 2.48D-02  0.00D+00 EMaxC= 1.00D+00 BMatC= 9.16D-01 BMatP= 1.28D+00
 IDIUse=1 WtCom= 1.00D+00 WtEn= 0.00D+00
 Coeff-Com: -0.508D+01 0.608D+01
 Coeff:     -0.508D+01 0.608D+01
 Gap=     0.179 Goal=   None    Shift=    0.500
 T= 1431. Gap= 0.669 NK=0 IS=   75 IE=  525 IFin=   74
          NO(<0.9)=   0  NV(>0.1)=   0     74.00e < EF      0.00e >EF  Err=0.0D+00
 Gap=     0.052 Goal=   None    Shift=    0.500
 T= 1431. Gap= 0.545 NK=0 IS=   74 IE=  525 IFin=   73
          NO(<0.9)=   0  NV(>0.1)=   0     73.00e < EF      0.00e >EF  Err=0.0D+00
 GapD=    0.052 DampG=0.500 DampE=0.500 DampFc=0.2500 IDamp=-1.
 Damping current iteration by 2.50D-01
 RMSDP=2.75D-03 MaxDP=2.45D-01 DE=-6.14D-02 OVMax= 4.31D-02

 Cycle   3  Pass 1  IDiag  1:
 E= -844.758348372811     Delta-E=       -0.090294529302 Rises=F Damp=T
 DIIS: error= 1.92D-02 at cycle   3 NSaved=   3.
 NSaved= 3 IEnMin= 3 EnMin= -844.758348372811     IErMin= 3 ErrMin= 1.92D-02
 ErrMax= 1.92D-02  0.00D+00 EMaxC= 1.00D+00 BMatC= 4.85D-01 BMatP= 9.16D-01
 IDIUse=1 WtCom= 1.00D+00 WtEn= 0.00D+00
 Coeff-Com:  0.261D+00-0.306D+01 0.380D+01
 Coeff:      0.261D+00-0.306D+01 0.380D+01
 Gap=     0.202 Goal=   None    Shift=    0.500
 T= 1362. Gap= 0.701 NK=4 IS=   75 IE=   90 IFin=   74
          NO(<0.9)=   0  NV(>0.1)=   0     74.00e < EF      0.00e >EF  Err=0.0D+00
 Gap=     0.071 Goal=   None    Shift=    0.500
 T= 1362. Gap= 0.572 NK=4 IS=   74 IE=   87 IFin=   73
          NO(<0.9)=   0  NV(>0.1)=   0     73.00e < EF      0.00e >EF  Err=0.0D+00
 GapD=    0.071 DampG=0.500 DampE=0.500 DampFc=0.2500 IDamp=-1.
 Damping current iteration by 2.50D-01
 RMSDP=1.95D-03 MaxDP=1.64D-01 DE=-9.03D-02 OVMax= 3.55D-02

 Cycle   4  Pass 1  IDiag  1:
 E= -844.816161549335     Delta-E=       -0.057813176524 Rises=F Damp=T
 DIIS: error= 1.49D-02 at cycle   4 NSaved=   4.
 NSaved= 4 IEnMin= 4 EnMin= -844.816161549335     IErMin= 4 ErrMin= 1.49D-02
 ErrMax= 1.49D-02  0.00D+00 EMaxC= 1.00D+00 BMatC= 2.65D-01 BMatP= 4.85D-01
 IDIUse=1 WtCom= 1.00D+00 WtEn= 0.00D+00
 Coeff-Com:  0.679D+00-0.102D+01-0.262D+01 0.396D+01
 Coeff:      0.679D+00-0.102D+01-0.262D+01 0.396D+01
 Gap=     0.209 Goal=   None    Shift=    0.500
 T= 1241. Gap= 0.709 NK=4 IS=   75 IE=   89 IFin=   74
          NO(<0.9)=   0  NV(>0.1)=   0     74.00e < EF      0.00e >EF  Err=0.0D+00
 Gap=     0.085 Goal=   None    Shift=    0.500
 T= 1241. Gap= 0.586 NK=4 IS=   74 IE=   87 IFin=   73
          NO(<0.9)=   0  NV(>0.1)=   0     73.00e < EF      0.00e >EF  Err=0.0D+00
 GapD=    0.085 DampG=0.500 DampE=0.500 DampFc=0.2500 IDamp=-1.
 Damping current iteration by 2.50D-01
 RMSDP=1.41D-03 MaxDP=1.06D-01 DE=-5.78D-02 OVMax= 3.28D-02

 Cycle   5  Pass 1  IDiag  1:
 E= -844.855010221775     Delta-E=       -0.038848672439 Rises=F Damp=T
 DIIS: error= 1.23D-02 at cycle   5 NSaved=   5.
 NSaved= 5 IEnMin= 5 EnMin= -844.855010221775     IErMin= 5 ErrMin= 1.23D-02
 ErrMax= 1.23D-02  0.00D+00 EMaxC= 1.00D+00 BMatC= 1.47D-01 BMatP= 2.65D-01
 IDIUse=1 WtCom= 1.00D+00 WtEn= 0.00D+00
 Coeff-Com: -0.320D-01 0.739D+00 0.321D+00-0.671D+01 0.668D+01
 Coeff:     -0.320D-01 0.739D+00 0.321D+00-0.671D+01 0.668D+01
 Gap=     0.221 Goal=   None    Shift=    0.500
 T= 1099. Gap= 0.721 NK=4 IS=   75 IE=   88 IFin=   74
          NO(<0.9)=   0  NV(>0.1)=   0     74.00e < EF      0.00e >EF  Err=0.0D+00
 Gap=     0.098 Goal=   None    Shift=    0.500
 T= 1099. Gap= 0.598 NK=4 IS=   74 IE=   87 IFin=   73
          NO(<0.9)=   0  NV(>0.1)=   0     73.00e < EF      0.00e >EF  Err=0.0D+00
 GapD=    0.098 DampG=0.500 DampE=0.500 DampFc=0.2500 IDamp=-1.
 Damping current iteration by 2.50D-01
 RMSDP=1.01D-03 MaxDP=6.29D-02 DE=-3.88D-02 OVMax= 3.39D-02

 Cycle   6  Pass 1  IDiag  1:
 E= -844.881986198026     Delta-E=       -0.026975976251 Rises=F Damp=T
 DIIS: error= 1.07D-02 at cycle   6 NSaved=   6.
 NSaved= 6 IEnMin= 6 EnMin= -844.881986198026     IErMin= 6 ErrMin= 1.07D-02
 ErrMax= 1.07D-02  0.00D+00 EMaxC= 1.00D+00 BMatC= 8.32D-02 BMatP= 1.47D-01
 IDIUse=1 WtCom= 1.00D+00 WtEn= 0.00D+00
 Coeff-Com: -0.347D+00 0.639D+00 0.139D+01-0.141D+01-0.699D+01 0.771D+01
 Coeff:     -0.347D+00 0.639D+00 0.139D+01-0.141D+01-0.699D+01 0.771D+01
 Gap=     0.228 Goal=   None    Shift=    0.500
 T=  977. Gap= 0.728 NK=4 IS=   75 IE=   88 IFin=   74
          NO(<0.9)=   0  NV(>0.1)=   0     74.00e < EF      0.00e >EF  Err=0.0D+00
 Gap=     0.104 Goal=   None    Shift=    0.500
 T=  977. Gap= 0.606 NK=4 IS=   74 IE=   87 IFin=   73
          NO(<0.9)=   0  NV(>0.1)=   0     73.00e < EF      0.00e >EF  Err=0.0D+00
 GapD=    0.104 DampG=1.000 DampE=0.500 DampFc=0.5000 IDamp=-1.
 Damping current iteration by 5.00D-01
 RMSDP=7.49D-04 MaxDP=3.54D-02 DE=-2.70D-02 OVMax= 3.55D-02

 Cycle   7  Pass 1  IDiag  1:
 E= -844.919681021052     Delta-E=       -0.037694823027 Rises=F Damp=T
 DIIS: error= 7.95D-03 at cycle   7 NSaved=   7.
 NSaved= 7 IEnMin= 7 EnMin= -844.919681021052     IErMin= 7 ErrMin= 7.95D-03
 ErrMax= 7.95D-03  0.00D+00 EMaxC= 1.00D+00 BMatC= 2.18D-02 BMatP= 8.32D-02
 IDIUse=1 WtCom= 1.00D+00 WtEn= 0.00D+00
 Coeff-Com: -0.142D+00 0.380D-01 0.212D+00 0.249D+01-0.249D+01-0.337D+01
 Coeff-Com:  0.427D+01
 Coeff:     -0.142D+00 0.380D-01 0.212D+00 0.249D+01-0.249D+01-0.337D+01
 Coeff:      0.427D+01
 Gap=     0.233 Goal=   None    Shift=    0.500
 T=  856. Gap= 0.733 NK=4 IS=   75 IE=   88 IFin=   74
          NO(<0.9)=   0  NV(>0.1)=   0     74.00e < EF      0.00e >EF  Err=0.0D+00
 Gap=     0.109 Goal=   None    Shift=    0.500
 T=  856. Gap= 0.610 NK=4 IS=   74 IE=   87 IFin=   73
          NO(<0.9)=   0  NV(>0.1)=   0     73.00e < EF      0.00e >EF  Err=0.0D+00
 GapD=    0.109 DampG=1.000 DampE=1.000 DampFc=1.0000 IDamp=-1.
 RMSDP=4.12D-04 MaxDP=1.84D-02 DE=-3.77D-02 OVMax= 3.67D-02

 Cycle   8  Pass 1  IDiag  1:
 E= -844.955586129357     Delta-E=       -0.035905108305 Rises=F Damp=F
 DIIS: error= 4.49D-03 at cycle   8 NSaved=   8.
 NSaved= 8 IEnMin= 8 EnMin= -844.955586129357     IErMin= 8 ErrMin= 4.49D-03
 ErrMax= 4.49D-03  0.00D+00 EMaxC= 1.00D+00 BMatC= 7.05D-04 BMatP= 2.18D-02
 IDIUse=1 WtCom= 1.00D+00 WtEn= 0.00D+00
 Coeff-Com:  0.217D-01 0.652D-01-0.728D+00 0.240D+00 0.477D+01-0.482D+01
 Coeff-Com: -0.108D+01 0.253D+01
 Coeff:      0.217D-01 0.652D-01-0.728D+00 0.240D+00 0.477D+01-0.482D+01
 Coeff:     -0.108D+01 0.253D+01
 Gap=     0.239 Goal=   None    Shift=    0.500
 T=  681. Gap= 0.739 NK=4 IS=   75 IE=   87 IFin=   74
          NO(<0.9)=   0  NV(>0.1)=   0     74.00e < EF      0.00e >EF  Err=0.0D+00
 Gap=     0.114 Goal=   None    Shift=    0.500
 T=  681. Gap= 0.616 NK=4 IS=   74 IE=   87 IFin=   73
          NO(<0.9)=   0  NV(>0.1)=   0     73.00e < EF      0.00e >EF  Err=0.0D+00
 GapD=    0.114 DampG=1.000 DampE=1.000 DampFc=1.0000 IDamp=-1.
 RMSDP=1.59D-04 MaxDP=1.29D-02 DE=-3.59D-02 OVMax= 3.67D-02

 Cycle   9  Pass 1  IDiag  1:
 E= -844.957106236671     Delta-E=       -0.001520107314 Rises=F Damp=F
 DIIS: error= 4.17D-03 at cycle   9 NSaved=   9.
 NSaved= 9 IEnMin= 9 EnMin= -844.957106236671     IErMin= 9 ErrMin= 4.17D-03
 ErrMax= 4.17D-03  0.00D+00 EMaxC= 1.00D+00 BMatC= 6.39D-04 BMatP= 7.05D-04
 IDIUse=1 WtCom= 1.00D+00 WtEn= 0.00D+00
 Coeff-Com:  0.336D-02 0.189D+00-0.682D+00-0.106D+01 0.544D+01-0.300D+01
 Coeff-Com: -0.274D+01 0.190D+01 0.963D+00
 Coeff:      0.336D-02 0.189D+00-0.682D+00-0.106D+01 0.544D+01-0.300D+01
 Coeff:     -0.274D+01 0.190D+01 0.963D+00
 Gap=     0.241 Goal=   None    Shift=    0.500
 T=  482. Gap= 0.741 NK=4 IS=   75 IE=   87 IFin=   74
          NO(<0.9)=   0  NV(>0.1)=   0     74.00e < EF      0.00e >EF  Err=0.0D+00
 Gap=     0.118 Goal=   None    Shift=    0.500
 T=  482. Gap= 0.620 NK=4 IS=   74 IE=   87 IFin=   73
          NO(<0.9)=   0  NV(>0.1)=   0     73.00e < EF      0.00e >EF  Err=0.0D+00
 GapD=    0.118 DampG=1.000 DampE=1.000 DampFc=1.0000 IDamp=-1.
 RMSDP=1.13D-04 MaxDP=8.56D-03 DE=-1.52D-03 OVMax= 3.36D-02

 Cycle  10  Pass 1  IDiag  1:
 E= -844.958331452735     Delta-E=       -0.001225216064 Rises=F Damp=F
 DIIS: error= 3.76D-03 at cycle  10 NSaved=  10.
 NSaved=10 IEnMin=10 EnMin= -844.958331452735     IErMin=10 ErrMin= 3.76D-03
 ErrMax= 3.76D-03  0.00D+00 EMaxC= 1.00D+00 BMatC= 5.31D-04 BMatP= 6.39D-04
 IDIUse=1 WtCom= 1.00D+00 WtEn= 0.00D+00
 Coeff-Com: -0.906D-02 0.127D+00-0.223D+00-0.114D+01 0.300D+01-0.830D+00
 Coeff-Com: -0.199D+01 0.113D+01-0.222D+01 0.316D+01
 Coeff:     -0.906D-02 0.127D+00-0.223D+00-0.114D+01 0.300D+01-0.830D+00
 Coeff:     -0.199D+01 0.113D+01-0.222D+01 0.316D+01
 Gap=     0.249 Goal=   None    Shift=    0.500
 T=  307. Gap= 0.748 NK=4 IS=   75 IE=   86 IFin=   74
          NO(<0.9)=   0  NV(>0.1)=   0     74.00e < EF      0.00e >EF  Err=0.0D+00
 Gap=     0.124 Goal=   None    Shift=    0.500
 T=  307. Gap= 0.626 NK=4 IS=   74 IE=   87 IFin=   73
          NO(<0.9)=   0  NV(>0.1)=   0     73.00e < EF      0.00e >EF  Err=0.0D+00
 GapD=    0.124 DampG=1.000 DampE=1.000 DampFc=1.0000 IDamp=-1.
 RMSDP=1.57D-04 MaxDP=1.19D-02 DE=-1.23D-03 OVMax= 3.75D-02

 Cycle  11  Pass 1  IDiag  1:
 E= -844.959495376579     Delta-E=       -0.001163923843 Rises=F Damp=F
 DIIS: error= 3.66D-03 at cycle  11 NSaved=  11.
 NSaved=11 IEnMin=11 EnMin= -844.959495376579     IErMin=11 ErrMin= 3.66D-03
 ErrMax= 3.66D-03  0.00D+00 EMaxC= 1.00D+00 BMatC= 6.88D-04 BMatP= 5.31D-04
 IDIUse=1 WtCom= 1.00D+00 WtEn= 0.00D+00
 Coeff-Com: -0.100D-01 0.124D+00-0.224D+00-0.106D+01 0.286D+01-0.832D+00
 Coeff-Com: -0.187D+01 0.120D+01-0.245D+01 0.316D+01 0.108D+00
 Coeff:     -0.100D-01 0.124D+00-0.224D+00-0.106D+01 0.286D+01-0.832D+00
 Coeff:     -0.187D+01 0.120D+01-0.245D+01 0.316D+01 0.108D+00
 Gap=     0.249 Goal=   None    Shift=    0.500
 T=  266. Gap= 0.749 NK=4 IS=   75 IE=   86 IFin=   74
          NO(<0.9)=   0  NV(>0.1)=   0     74.00e < EF      0.00e >EF  Err=0.0D+00
 Gap=     0.127 Goal=   None    Shift=    0.500
 T=  266. Gap= 0.628 NK=4 IS=   74 IE=   87 IFin=   73
          NO(<0.9)=   0  NV(>0.1)=   0     73.00e < EF      0.00e >EF  Err=0.0D+00
 GapD=    0.127 DampG=1.000 DampE=1.000 DampFc=1.0000 IDamp=-1.
 RMSDP=8.44D-05 MaxDP=6.65D-03 DE=-1.16D-03 OVMax= 2.99D-02

 Cycle  12  Pass 1  IDiag  1:
 E= -844.960369841795     Delta-E=       -0.000874465216 Rises=F Damp=F
 DIIS: error= 3.26D-03 at cycle  12 NSaved=  12.
 NSaved=12 IEnMin=12 EnMin= -844.960369841795     IErMin=12 ErrMin= 3.26D-03
 ErrMax= 3.26D-03  0.00D+00 EMaxC= 1.00D+00 BMatC= 5.58D-04 BMatP= 5.31D-04
 IDIUse=1 WtCom= 1.00D+00 WtEn= 0.00D+00
 Coeff-Com:  0.974D-01-0.170D+00-0.265D+00 0.190D+00 0.289D+01-0.352D+01
 Coeff-Com:  0.288D+00 0.178D+01-0.137D+01 0.139D+00-0.374D+01 0.468D+01
 Coeff:      0.974D-01-0.170D+00-0.265D+00 0.190D+00 0.289D+01-0.352D+01
 Coeff:      0.288D+00 0.178D+01-0.137D+01 0.139D+00-0.374D+01 0.468D+01
 Gap=     0.253 Goal=   None    Shift=    0.500
 T=  217. Gap= 0.753 NK=4 IS=   75 IE=   85 IFin=   74
          NO(<0.9)=   0  NV(>0.1)=   0     74.00e < EF      0.00e >EF  Err=0.0D+00
 Gap=     0.127 Goal=   None    Shift=    0.500
 T=  217. Gap= 0.629 NK=4 IS=   74 IE=   87 IFin=   73
          NO(<0.9)=   0  NV(>0.1)=   0     73.00e < EF      0.00e >EF  Err=0.0D+00
 GapD=    0.127 DampG=1.000 DampE=1.000 DampFc=1.0000 IDamp=-1.
 RMSDP=1.11D-04 MaxDP=7.43D-03 DE=-8.74D-04 OVMax= 3.32D-02

 Cycle  13  Pass 1  IDiag  1:
 E= -844.961234695605     Delta-E=       -0.000864853810 Rises=F Damp=F
 DIIS: error= 3.03D-03 at cycle  13 NSaved=  13.
 NSaved=13 IEnMin=13 EnMin= -844.961234695605     IErMin=13 ErrMin= 3.03D-03
 ErrMax= 3.03D-03  0.00D+00 EMaxC= 1.00D+00 BMatC= 5.81D-04 BMatP= 5.31D-04
 IDIUse=1 WtCom= 1.00D+00 WtEn= 0.00D+00
 Coeff-Com:  0.118D+00-0.202D+00-0.394D+00 0.535D+00 0.324D+01-0.433D+01
 Coeff-Com:  0.430D+00 0.191D+01 0.103D+01-0.210D+01-0.629D+01 0.545D+01
 Coeff-Com:  0.161D+01
 Coeff:      0.118D+00-0.202D+00-0.394D+00 0.535D+00 0.324D+01-0.433D+01
 Coeff:      0.430D+00 0.191D+01 0.103D+01-0.210D+01-0.629D+01 0.545D+01
 Coeff:      0.161D+01
 Gap=     0.255 Goal=   None    Shift=    0.500
 T=  174. Gap= 0.755 NK=4 IS=   75 IE=   86 IFin=   74
          NO(<0.9)=   0  NV(>0.1)=   0     74.00e < EF      0.00e >EF  Err=0.0D+00
 Gap=     0.128 Goal=   None    Shift=    0.500
 T=  174. Gap= 0.630 NK=4 IS=   74 IE=   87 IFin=   73
          NO(<0.9)=   0  NV(>0.1)=   0     73.00e < EF      0.00e >EF  Err=0.0D+00
 GapD=    0.128 DampG=1.000 DampE=1.000 DampFc=1.0000 IDamp=-1.
 RMSDP=1.13D-04 MaxDP=7.78D-03 DE=-8.65D-04 OVMax= 3.46D-02

 Cycle  14  Pass 1  IDiag  1:
 E= -844.962050832198     Delta-E=       -0.000816136593 Rises=F Damp=F
 DIIS: error= 2.81D-03 at cycle  14 NSaved=  14.
 NSaved=14 IEnMin=14 EnMin= -844.962050832198     IErMin=14 ErrMin= 2.81D-03
 ErrMax= 2.81D-03  0.00D+00 EMaxC= 1.00D+00 BMatC= 5.86D-04 BMatP= 5.31D-04
 IDIUse=1 WtCom= 1.00D+00 WtEn= 0.00D+00
 Coeff-Com:  0.647D-01-0.181D-01-0.518D+00-0.692D-01 0.314D+01-0.235D+01
 Coeff-Com: -0.133D+01 0.131D+01 0.246D+01-0.133D+01-0.606D+01 0.382D+01
 Coeff-Com: -0.753D+00 0.264D+01
 Coeff:      0.647D-01-0.181D-01-0.518D+00-0.692D-01 0.314D+01-0.235D+01
 Coeff:     -0.133D+01 0.131D+01 0.246D+01-0.133D+01-0.606D+01 0.382D+01
 Coeff:     -0.753D+00 0.264D+01
 Gap=     0.258 Goal=   None    Shift=    0.500
 T=  121. Gap= 0.757 NK=4 IS=   75 IE=   86 IFin=   74
          NO(<0.9)=   0  NV(>0.1)=   0     74.00e < EF      0.00e >EF  Err=0.0D+00
 Gap=     0.131 Goal=   None    Shift=    0.500
 T=  121. Gap= 0.632 NK=4 IS=   74 IE=   86 IFin=   73
          NO(<0.9)=   0  NV(>0.1)=   0     73.00e < EF      0.00e >EF  Err=0.0D+00
 GapD=    0.131 DampG=1.000 DampE=1.000 DampFc=1.0000 IDamp=-1.
 RMSDP=1.25D-04 MaxDP=8.02D-03 DE=-8.16D-04 OVMax= 3.56D-02

 Cycle  15  Pass 1  IDiag  1:
 E= -844.962781258706     Delta-E=       -0.000730426508 Rises=F Damp=F
 DIIS: error= 2.63D-03 at cycle  15 NSaved=  15.
 NSaved=15 IEnMin=15 EnMin= -844.962781258706     IErMin=15 ErrMin= 2.63D-03
 ErrMax= 2.63D-03  0.00D+00 EMaxC= 1.00D+00 BMatC= 6.69D-04 BMatP= 5.31D-04
 IDIUse=1 WtCom= 1.00D+00 WtEn= 0.00D+00
 Coeff-Com:  0.587D-01-0.129D-01-0.396D+00-0.246D+00 0.283D+01-0.189D+01
 Coeff-Com: -0.139D+01 0.122D+01 0.156D+01-0.843D-01-0.564D+01 0.371D+01
 Coeff-Com: -0.754D+00 0.406D+00 0.161D+01
 Coeff:      0.587D-01-0.129D-01-0.396D+00-0.246D+00 0.283D+01-0.189D+01
 Coeff:     -0.139D+01 0.122D+01 0.156D+01-0.843D-01-0.564D+01 0.371D+01
 Coeff:     -0.754D+00 0.406D+00 0.161D+01
 Gap=     0.258 Goal=   None    Shift=    0.500
 T=   78. Gap= 0.758 NK=4 IS=   75 IE=   87 IFin=   74
          NO(<0.9)=   0  NV(>0.1)=   0     74.00e < EF      0.00e >EF  Err=0.0D+00
 Gap=     0.134 Goal=   None    Shift=    0.500
 T=   78. Gap= 0.635 NK=4 IS=   74 IE=   86 IFin=   73
          NO(<0.9)=   0  NV(>0.1)=   0     73.00e < EF      0.00e >EF  Err=0.0D+00
 GapD=    0.134 DampG=1.000 DampE=1.000 DampFc=1.0000 IDamp=-1.
 RMSDP=8.45D-05 MaxDP=4.99D-03 DE=-7.30D-04 OVMax= 2.97D-02

 Cycle  16  Pass 1  IDiag  1:
 E= -844.963360388289     Delta-E=       -0.000579129583 Rises=F Damp=F
 DIIS: error= 2.33D-03 at cycle  16 NSaved=  16.
 NSaved=16 IEnMin=16 EnMin= -844.963360388289     IErMin=16 ErrMin= 2.33D-03
 ErrMax= 2.33D-03  0.00D+00 EMaxC= 1.00D+00 BMatC= 5.46D-04 BMatP= 5.31D-04
 IDIUse=1 WtCom= 1.00D+00 WtEn= 0.00D+00
 Coeff-Com:  0.598D-01-0.714D-01-0.850D-01-0.527D+00 0.245D+01-0.171D+01
 Coeff-Com: -0.816D+00 0.849D+00 0.286D+00 0.647D+00-0.270D+01 0.214D+01
 Coeff-Com:  0.707D+00-0.288D+01-0.152D+01 0.417D+01
 Coeff:      0.598D-01-0.714D-01-0.850D-01-0.527D+00 0.245D+01-0.171D+01
 Coeff:     -0.816D+00 0.849D+00 0.286D+00 0.647D+00-0.270D+01 0.214D+01
 Coeff:      0.707D+00-0.288D+01-0.152D+01 0.417D+01
 Gap=     0.258 Goal=   None    Shift=    0.500
 T=   26. Gap= 0.758 NK=4 IS=   75 IE=   86 IFin=   74
          NO(<0.9)=   0  NV(>0.1)=   0     74.00e < EF      0.00e >EF  Err=0.0D+00
 Gap=     0.133 Goal=   None    Shift=    0.500
 T=   26. Gap= 0.635 NK=4 IS=   74 IE=   85 IFin=   73
          NO(<0.9)=   0  NV(>0.1)=   0     73.00e < EF      0.00e >EF  Err=0.0D+00
 GapD=    0.133 DampG=1.000 DampE=1.000 DampFc=1.0000 IDamp=-1.
 RMSDP=1.06D-04 MaxDP=6.19D-03 DE=-5.79D-04 OVMax= 3.06D-02

 Cycle  17  Pass 1  IDiag  1:
 E= -844.963850054990     Delta-E=       -0.000489666701 Rises=F Damp=F
 DIIS: error= 2.14D-03 at cycle  17 NSaved=  17.
 NSaved=17 IEnMin=17 EnMin= -844.963850054990     IErMin=17 ErrMin= 2.14D-03
 ErrMax= 2.14D-03  0.00D+00 EMaxC= 1.00D+00 BMatC= 6.02D-04 BMatP= 5.31D-04
 IDIUse=1 WtCom= 1.00D+00 WtEn= 0.00D+00
 Coeff-Com:  0.608D-01-0.996D-01-0.709D-01-0.273D+00 0.211D+01-0.184D+01
 Coeff-Com: -0.458D+00 0.118D+01-0.691D+00 0.580D+00-0.191D+01 0.220D+01
 Coeff-Com:  0.719D+00-0.187D+01-0.331D+01 0.314D+01 0.153D+01
 Coeff:      0.608D-01-0.996D-01-0.709D-01-0.273D+00 0.211D+01-0.184D+01
 Coeff:     -0.458D+00 0.118D+01-0.691D+00 0.580D+00-0.191D+01 0.220D+01
 Coeff:      0.719D+00-0.187D+01-0.331D+01 0.314D+01 0.153D+01
 Gap=     0.258 Goal=   None    Shift=    0.500
 Gap=     0.134 Goal=   None    Shift=    0.500
 GapD=    0.134 DampG=1.000 DampE=1.000 DampFc=1.0000 IDamp=-1.
 RMSDP=7.26D-05 MaxDP=3.65D-03 DE=-4.90D-04 OVMax= 2.60D-02

 Cycle  18  Pass 1  IDiag  1:
 E= -844.964250705360     Delta-E=       -0.000400650370 Rises=F Damp=F
 DIIS: error= 1.88D-03 at cycle  18 NSaved=  18.
 NSaved=18 IEnMin=18 EnMin= -844.964250705360     IErMin=18 ErrMin= 1.88D-03
 ErrMax= 1.88D-03  0.00D+00 EMaxC= 1.00D+00 BMatC= 4.88D-04 BMatP= 5.31D-04
 IDIUse=1 WtCom= 1.00D+00 WtEn= 0.00D+00
 Coeff-Com:  0.417D-01-0.601D-01-0.140D+00 0.418D-01 0.137D+01-0.139D+01
 Coeff-Com: -0.278D+00 0.131D+01-0.866D+00-0.303D+00-0.100D+01 0.176D+01
 Coeff-Com: -0.451D-01 0.150D+01-0.377D+01 0.271D+00-0.903D+00 0.346D+01
 Coeff:      0.417D-01-0.601D-01-0.140D+00 0.418D-01 0.137D+01-0.139D+01
 Coeff:     -0.278D+00 0.131D+01-0.866D+00-0.303D+00-0.100D+01 0.176D+01
 Coeff:     -0.451D-01 0.150D+01-0.377D+01 0.271D+00-0.903D+00 0.346D+01
 Gap=     0.258 Goal=   None    Shift=    0.500
 Gap=     0.134 Goal=   None    Shift=    0.500
 GapD=    0.134 DampG=1.000 DampE=1.000 DampFc=1.0000 IDamp=-1.
 RMSDP=8.51D-05 MaxDP=5.12D-03 DE=-4.01D-04 OVMax= 2.62D-02

 Cycle  19  Pass 1  IDiag  1:
 E= -844.964572172921     Delta-E=       -0.000321467561 Rises=F Damp=F
 DIIS: error= 1.71D-03 at cycle  19 NSaved=  19.
 NSaved=19 IEnMin=19 EnMin= -844.964572172921     IErMin=19 ErrMin= 1.71D-03
 ErrMax= 1.71D-03  0.00D+00 EMaxC= 1.00D+00 BMatC= 5.01D-04 BMatP= 4.88D-04
 IDIUse=1 WtCom= 1.00D+00 WtEn= 0.00D+00
 Coeff-Com:  0.338D-01-0.311D-01-0.133D+00-0.418D-01 0.109D+01-0.851D+00
 Coeff-Com: -0.484D+00 0.994D+00-0.464D+00 0.660D-01-0.173D+01 0.194D+01
 Coeff-Com: -0.586D+00 0.120D+01-0.607D+00-0.113D+00-0.396D+01 0.279D+01
 Coeff-Com:  0.187D+01
 Coeff:      0.338D-01-0.311D-01-0.133D+00-0.418D-01 0.109D+01-0.851D+00
 Coeff:     -0.484D+00 0.994D+00-0.464D+00 0.660D-01-0.173D+01 0.194D+01
 Coeff:     -0.586D+00 0.120D+01-0.607D+00-0.113D+00-0.396D+01 0.279D+01
 Coeff:      0.187D+01
 Gap=     0.257 Goal=   None    Shift=    0.500
 Gap=     0.135 Goal=   None    Shift=    0.500
 GapD=    0.135 DampG=1.000 DampE=1.000 DampFc=1.0000 IDamp=-1.
 RMSDP=6.29D-05 MaxDP=3.48D-03 DE=-3.21D-04 OVMax= 2.25D-02

 Cycle  20  Pass 1  IDiag  1:
 E= -844.964829970295     Delta-E=       -0.000257797374 Rises=F Damp=F
 DIIS: error= 1.50D-03 at cycle  20 NSaved=  20.
 NSaved=20 IEnMin=20 EnMin= -844.964829970295     IErMin=20 ErrMin= 1.50D-03
 ErrMax= 1.50D-03  0.00D+00 EMaxC= 1.00D+00 BMatC= 4.26D-04 BMatP= 4.88D-04
 IDIUse=1 WtCom= 1.00D+00 WtEn= 0.00D+00
 Coeff-Com:  0.245D-01-0.622D-02-0.684D-01-0.300D+00 0.105D+01-0.444D+00
 Coeff-Com: -0.669D+00 0.568D+00 0.307D-01 0.408D+00-0.189D+01 0.159D+01
 Coeff-Com: -0.450D+00-0.746D-01 0.117D+01 0.291D+00-0.369D+01 0.195D+01
 Coeff-Com: -0.137D+01 0.287D+01
 Coeff:      0.245D-01-0.622D-02-0.684D-01-0.300D+00 0.105D+01-0.444D+00
 Coeff:     -0.669D+00 0.568D+00 0.307D-01 0.408D+00-0.189D+01 0.159D+01
 Coeff:     -0.450D+00-0.746D-01 0.117D+01 0.291D+00-0.369D+01 0.195D+01
 Coeff:     -0.137D+01 0.287D+01
 Gap=     0.257 Goal=   None    Shift=    0.500
 Gap=     0.136 Goal=   None    Shift=    0.500
 GapD=    0.136 DampG=1.000 DampE=1.000 DampFc=1.0000 IDamp=-1.
 RMSDP=5.33D-05 MaxDP=2.81D-03 DE=-2.58D-04 OVMax= 1.97D-02

 Cycle  21  Pass 1  IDiag  1:
 E= -844.965030816232     Delta-E=       -0.000200845937 Rises=F Damp=F
 DIIS: error= 1.30D-03 at cycle  21 NSaved=  20.
 NSaved=20 IEnMin=20 EnMin= -844.965030816232     IErMin=20 ErrMin= 1.30D-03
 ErrMax= 1.30D-03  0.00D+00 EMaxC= 1.00D+00 BMatC= 3.48D-04 BMatP= 4.26D-04
 IDIUse=1 WtCom= 1.00D+00 WtEn= 0.00D+00
 Coeff-Com:  0.101D-01 0.143D+00-0.521D+00 0.523D+00 0.541D-01-0.408D+00
 Coeff-Com:  0.276D+00-0.440D+00 0.693D+00-0.415D+00 0.487D+00 0.363D+00
 Coeff-Com: -0.151D+01-0.541D+00 0.112D+01 0.194D+01 0.727D+00-0.664D+01
 Coeff-Com:  0.111D+01 0.403D+01
 Coeff:      0.101D-01 0.143D+00-0.521D+00 0.523D+00 0.541D-01-0.408D+00
 Coeff:      0.276D+00-0.440D+00 0.693D+00-0.415D+00 0.487D+00 0.363D+00
 Coeff:     -0.151D+01-0.541D+00 0.112D+01 0.194D+01 0.727D+00-0.664D+01
 Coeff:      0.111D+01 0.403D+01
 Gap=     0.257 Goal=   None    Shift=    0.500
 Gap=     0.135 Goal=   None    Shift=    0.500
 GapD=    0.135 DampG=1.000 DampE=1.000 DampFc=1.0000 IDamp=-1.
 RMSDP=6.09D-05 MaxDP=2.74D-03 DE=-2.01D-04 OVMax= 1.89D-02

 Cycle  22  Pass 1  IDiag  1:
 E= -844.965179645750     Delta-E=       -0.000148829518 Rises=F Damp=F
 DIIS: error= 1.16D-03 at cycle  22 NSaved=  20.
 NSaved=20 IEnMin=20 EnMin= -844.965179645750     IErMin=20 ErrMin= 1.16D-03
 ErrMax= 1.16D-03  0.00D+00 EMaxC= 1.00D+00 BMatC= 3.40D-04 BMatP= 3.48D-04
 IDIUse=1 WtCom= 1.00D+00 WtEn= 0.00D+00
 Coeff-Com:  0.137D+00-0.336D+00 0.217D+00 0.963D-01-0.240D+00 0.568D+00
 Coeff-Com: -0.134D+01 0.897D+00 0.184D+00 0.559D+00 0.209D+00-0.138D+01
 Coeff-Com: -0.156D+01 0.135D+01 0.254D+01 0.722D+00-0.530D+01-0.758D+00
 Coeff-Com:  0.307D+01 0.136D+01
 Coeff:      0.137D+00-0.336D+00 0.217D+00 0.963D-01-0.240D+00 0.568D+00
 Coeff:     -0.134D+01 0.897D+00 0.184D+00 0.559D+00 0.209D+00-0.138D+01
 Coeff:     -0.156D+01 0.135D+01 0.254D+01 0.722D+00-0.530D+01-0.758D+00
 Coeff:      0.307D+01 0.136D+01
 Gap=     0.256 Goal=   None    Shift=    0.500
 Gap=     0.135 Goal=   None    Shift=    0.500
 GapD=    0.135 DampG=1.000 DampE=1.000 DampFc=1.0000 IDamp=-1.
 RMSDP=4.16D-05 MaxDP=1.63D-03 DE=-1.49D-04 OVMax= 1.56D-02

 Cycle  23  Pass 1  IDiag  1:
 E= -844.965302304597     Delta-E=       -0.000122658847 Rises=F Damp=F
 DIIS: error= 9.98D-04 at cycle  23 NSaved=  20.
 NSaved=20 IEnMin=20 EnMin= -844.965302304597     IErMin=20 ErrMin= 9.98D-04
 ErrMax= 9.98D-04  0.00D+00 EMaxC= 1.00D+00 BMatC= 2.66D-04 BMatP= 3.40D-04
 IDIUse=1 WtCom= 1.00D+00 WtEn= 0.00D+00
 Coeff-Com:  0.670D-01-0.363D-01-0.481D-01-0.528D-01 0.534D+00-0.120D+01
 Coeff-Com:  0.536D+00 0.271D+00 0.525D+00-0.365D+00 0.142D+00-0.118D+01
 Coeff-Com:  0.518D+00-0.304D+00 0.938D+00 0.875D+00-0.186D+01 0.645D+00
 Coeff-Com: -0.390D+01 0.489D+01
 Coeff:      0.670D-01-0.363D-01-0.481D-01-0.528D-01 0.534D+00-0.120D+01
 Coeff:      0.536D+00 0.271D+00 0.525D+00-0.365D+00 0.142D+00-0.118D+01
 Coeff:      0.518D+00-0.304D+00 0.938D+00 0.875D+00-0.186D+01 0.645D+00
 Coeff:     -0.390D+01 0.489D+01
 Gap=     0.256 Goal=   None    Shift=    0.500
 Gap=     0.135 Goal=   None    Shift=    0.500
 RMSDP=3.78D-05 MaxDP=1.51D-03 DE=-1.23D-04 OVMax= 1.38D-02

 Cycle  24  Pass 1  IDiag  1:
 E= -844.965388903438     Delta-E=       -0.000086598841 Rises=F Damp=F
 DIIS: error= 8.66D-04 at cycle  24 NSaved=  20.
 NSaved=20 IEnMin=20 EnMin= -844.965388903438     IErMin=20 ErrMin= 8.66D-04
 ErrMax= 8.66D-04  0.00D+00 EMaxC= 1.00D+00 BMatC= 2.27D-04 BMatP= 2.66D-04
 IDIUse=1 WtCom= 1.00D+00 WtEn= 0.00D+00
 Coeff-Com:  0.528D-01-0.245D-01-0.971D-01 0.221D+00-0.556D+00 0.393D+00
 Coeff-Com: -0.954D-01 0.473D+00-0.362D+00 0.253D+00-0.144D+00 0.212D-01
 Coeff-Com: -0.176D+01 0.118D+01 0.186D+01-0.502D+00 0.202D+00-0.610D+01
 Coeff-Com:  0.461D+01 0.138D+01
 Coeff:      0.528D-01-0.245D-01-0.971D-01 0.221D+00-0.556D+00 0.393D+00
 Coeff:     -0.954D-01 0.473D+00-0.362D+00 0.253D+00-0.144D+00 0.212D-01
 Coeff:     -0.176D+01 0.118D+01 0.186D+01-0.502D+00 0.202D+00-0.610D+01
 Coeff:      0.461D+01 0.138D+01
 Gap=     0.256 Goal=   None    Shift=    0.500
 Gap=     0.135 Goal=   None    Shift=    0.500
 RMSDP=2.98D-05 MaxDP=1.32D-03 DE=-8.66D-05 OVMax= 1.14D-02

 Cycle  25  Pass 1  IDiag  1:
 E= -844.965453746888     Delta-E=       -0.000064843450 Rises=F Damp=F
 DIIS: error= 7.37D-04 at cycle  25 NSaved=  20.
 NSaved=20 IEnMin=20 EnMin= -844.965453746888     IErMin=20 ErrMin= 7.37D-04
 ErrMax= 7.37D-04  0.00D+00 EMaxC= 1.00D+00 BMatC= 1.77D-04 BMatP= 2.27D-04
 IDIUse=1 WtCom= 1.00D+00 WtEn= 0.00D+00
 Coeff-Com:  0.746D-01-0.156D+00 0.136D+00-0.283D+00 0.447D+00-0.564D+00
 Coeff-Com:  0.505D+00-0.364D+00 0.294D+00 0.993D+00-0.868D+00-0.182D+01
 Coeff-Com:  0.131D+01 0.485D+00 0.613D+00 0.316D+00-0.328D+01 0.172D+01
 Coeff-Com: -0.154D+01 0.299D+01
 Coeff:      0.746D-01-0.156D+00 0.136D+00-0.283D+00 0.447D+00-0.564D+00
 Coeff:      0.505D+00-0.364D+00 0.294D+00 0.993D+00-0.868D+00-0.182D+01
 Coeff:      0.131D+01 0.485D+00 0.613D+00 0.316D+00-0.328D+01 0.172D+01
 Coeff:     -0.154D+01 0.299D+01
 Gap=     0.256 Goal=   None    Shift=    0.500
 Gap=     0.135 Goal=   None    Shift=    0.500
 RMSDP=2.24D-05 MaxDP=1.02D-03 DE=-6.48D-05 OVMax= 9.36D-03

 Cycle  26  Pass 1  IDiag  1:
 E= -844.965502845921     Delta-E=       -0.000049099033 Rises=F Damp=F
 DIIS: error= 6.13D-04 at cycle  26 NSaved=  20.
 NSaved=20 IEnMin=20 EnMin= -844.965502845921     IErMin=20 ErrMin= 6.13D-04
 ErrMax= 6.13D-04  0.00D+00 EMaxC= 1.00D+00 BMatC= 1.26D-04 BMatP= 1.77D-04
 IDIUse=1 WtCom= 1.00D+00 WtEn= 0.00D+00
 Coeff-Com: -0.438D-02 0.127D+00-0.567D+00 0.463D+00 0.339D-03 0.208D+00
 Coeff-Com:  0.775D-01-0.476D+00 0.167D+00-0.147D+00 0.618D-01 0.728D+00
 Coeff-Com: -0.158D+01 0.375D+00 0.974D+00 0.258D+00-0.378D+00-0.188D+01
 Coeff-Com: -0.543D+00 0.314D+01
 Coeff:     -0.438D-02 0.127D+00-0.567D+00 0.463D+00 0.339D-03 0.208D+00
 Coeff:      0.775D-01-0.476D+00 0.167D+00-0.147D+00 0.618D-01 0.728D+00
 Coeff:     -0.158D+01 0.375D+00 0.974D+00 0.258D+00-0.378D+00-0.188D+01
 Coeff:     -0.543D+00 0.314D+01
 Gap=     0.256 Goal=   None    Shift=    0.500
 Gap=     0.135 Goal=   None    Shift=    0.500
 RMSDP=1.94D-05 MaxDP=9.11D-04 DE=-4.91D-05 OVMax= 8.04D-03

 Cycle  27  Pass 1  IDiag  1:
 E= -844.965535432847     Delta-E=       -0.000032586926 Rises=F Damp=F
 DIIS: error= 5.12D-04 at cycle  27 NSaved=  20.
 NSaved=20 IEnMin=20 EnMin= -844.965535432847     IErMin=20 ErrMin= 5.12D-04
 ErrMax= 5.12D-04  0.00D+00 EMaxC= 1.00D+00 BMatC= 9.38D-05 BMatP= 1.26D-04
 IDIUse=1 WtCom= 1.00D+00 WtEn= 0.00D+00
 Coeff-Com:  0.144D+00-0.588D+00 0.281D+00 0.390D+00 0.830D-01-0.101D+00
 Coeff-Com: -0.113D+00-0.898D+00 0.677D+00 0.288D+00 0.142D+00-0.640D-01
 Coeff-Com: -0.940D+00 0.828D+00-0.910D+00 0.144D+01 0.106D+01-0.397D+01
 Coeff-Com:  0.525D-01 0.320D+01
 Coeff:      0.144D+00-0.588D+00 0.281D+00 0.390D+00 0.830D-01-0.101D+00
 Coeff:     -0.113D+00-0.898D+00 0.677D+00 0.288D+00 0.142D+00-0.640D-01
 Coeff:     -0.940D+00 0.828D+00-0.910D+00 0.144D+01 0.106D+01-0.397D+01
 Coeff:      0.525D-01 0.320D+01
 Gap=     0.256 Goal=   None    Shift=    0.500
 Gap=     0.135 Goal=   None    Shift=    0.500
 RMSDP=1.55D-05 MaxDP=7.31D-04 DE=-3.26D-05 OVMax= 6.57D-03

 Cycle  28  Pass 1  IDiag  1:
 E= -844.965556738604     Delta-E=       -0.000021305757 Rises=F Damp=F
 DIIS: error= 4.29D-04 at cycle  28 NSaved=  20.
 NSaved=20 IEnMin=20 EnMin= -844.965556738604     IErMin=20 ErrMin= 4.29D-04
 ErrMax= 4.29D-04  0.00D+00 EMaxC= 1.00D+00 BMatC= 7.15D-05 BMatP= 9.38D-05
 IDIUse=1 WtCom= 1.00D+00 WtEn= 0.00D+00
 Coeff-Com: -0.220D+00 0.252D+00 0.389D-01 0.125D+00-0.303D+00 0.194D+00
 Coeff-Com: -0.360D+00 0.514D+00-0.603D+00 0.368D-01 0.121D+01-0.766D+00
 Coeff-Com:  0.291D+00-0.270D+01 0.254D+01 0.212D+01-0.286D+01-0.237D+01
 Coeff-Com:  0.212D+01 0.175D+01
 Coeff:     -0.220D+00 0.252D+00 0.389D-01 0.125D+00-0.303D+00 0.194D+00
 Coeff:     -0.360D+00 0.514D+00-0.603D+00 0.368D-01 0.121D+01-0.766D+00
 Coeff:      0.291D+00-0.270D+01 0.254D+01 0.212D+01-0.286D+01-0.237D+01
 Coeff:      0.212D+01 0.175D+01
 Gap=     0.256 Goal=   None    Shift=    0.500
 Gap=     0.135 Goal=   None    Shift=    0.500
 RMSDP=1.10D-05 MaxDP=4.83D-04 DE=-2.13D-05 OVMax= 5.21D-03

 Cycle  29  Pass 1  IDiag  1:
 E= -844.965573075712     Delta-E=       -0.000016337108 Rises=F Damp=F
 DIIS: error= 3.50D-04 at cycle  29 NSaved=  20.
 NSaved=20 IEnMin=20 EnMin= -844.965573075712     IErMin=20 ErrMin= 3.50D-04
 ErrMax= 3.50D-04  0.00D+00 EMaxC= 1.00D+00 BMatC= 4.87D-05 BMatP= 7.15D-05
 IDIUse=1 WtCom= 1.00D+00 WtEn= 0.00D+00
 Coeff-Com:  0.465D-01-0.274D+00 0.301D+00-0.262D+00 0.444D+00-0.511D-01
 Coeff-Com: -0.814D-01-0.104D+01 0.475D+00 0.155D+01-0.371D+00-0.320D+00
 Coeff-Com: -0.286D+01 0.230D+01 0.132D+01 0.388D+00-0.293D+01 0.225D+00
 Coeff-Com: -0.804D+00 0.295D+01
 Coeff:      0.465D-01-0.274D+00 0.301D+00-0.262D+00 0.444D+00-0.511D-01
 Coeff:     -0.814D-01-0.104D+01 0.475D+00 0.155D+01-0.371D+00-0.320D+00
 Coeff:     -0.286D+01 0.230D+01 0.132D+01 0.388D+00-0.293D+01 0.225D+00
 Coeff:     -0.804D+00 0.295D+01
 Gap=     0.256 Goal=   None    Shift=    0.500
 Gap=     0.134 Goal=   None    Shift=    0.500
 RMSDP=8.45D-06 MaxDP=3.86D-04 DE=-1.63D-05 OVMax= 4.06D-03

 Cycle  30  Pass 1  IDiag  1:
 E= -844.965584982842     Delta-E=       -0.000011907130 Rises=F Damp=F
 DIIS: error= 2.79D-04 at cycle  30 NSaved=  20.
 NSaved=20 IEnMin=20 EnMin= -844.965584982842     IErMin=20 ErrMin= 2.79D-04
 ErrMax= 2.79D-04  0.00D+00 EMaxC= 1.00D+00 BMatC= 2.96D-05 BMatP= 4.87D-05
 IDIUse=1 WtCom= 1.00D+00 WtEn= 0.00D+00
 Coeff-Com: -0.164D+00 0.180D+00-0.821D-02 0.242D-01 0.254D+00-0.265D+00
 Coeff-Com: -0.614D+00 0.485D+00 0.367D+00 0.709D-01-0.146D+00-0.666D+00
 Coeff-Com:  0.423D+00-0.292D+00 0.640D+00 0.196D+00-0.135D+00-0.200D+01
 Coeff-Com: -0.701D-01 0.272D+01
 Coeff:     -0.164D+00 0.180D+00-0.821D-02 0.242D-01 0.254D+00-0.265D+00
 Coeff:     -0.614D+00 0.485D+00 0.367D+00 0.709D-01-0.146D+00-0.666D+00
 Coeff:      0.423D+00-0.292D+00 0.640D+00 0.196D+00-0.135D+00-0.200D+01
 Coeff:     -0.701D-01 0.272D+01
 Gap=     0.256 Goal=   None    Shift=    0.500
 Gap=     0.134 Goal=   None    Shift=    0.500
 RMSDP=6.30D-06 MaxDP=3.04D-04 DE=-1.19D-05 OVMax= 3.15D-03

 Cycle  31  Pass 1  IDiag  1:
 E= -844.965592426349     Delta-E=       -0.000007443507 Rises=F Damp=F
 DIIS: error= 2.24D-04 at cycle  31 NSaved=  20.
 NSaved=20 IEnMin=20 EnMin= -844.965592426349     IErMin=20 ErrMin= 2.24D-04
 ErrMax= 2.24D-04  0.00D+00 EMaxC= 1.00D+00 BMatC= 1.86D-05 BMatP= 2.96D-05
 IDIUse=1 WtCom= 1.00D+00 WtEn= 0.00D+00
 Coeff-Com: -0.174D-01 0.282D-01-0.112D-01 0.474D-01-0.626D-01-0.441D-01
 Coeff-Com:  0.876D-01-0.132D+00-0.789D-01 0.262D+00 0.964D-01-0.126D+00
 Coeff-Com:  0.664D-02-0.989D+00 0.938D+00 0.734D+00-0.357D+00-0.148D+01
 Coeff-Com: -0.754D+00 0.285D+01
 Coeff:     -0.174D-01 0.282D-01-0.112D-01 0.474D-01-0.626D-01-0.441D-01
 Coeff:      0.876D-01-0.132D+00-0.789D-01 0.262D+00 0.964D-01-0.126D+00
 Coeff:      0.664D-02-0.989D+00 0.938D+00 0.734D+00-0.357D+00-0.148D+01
 Coeff:     -0.754D+00 0.285D+01
 Gap=     0.256 Goal=   None    Shift=    0.500
 Gap=     0.134 Goal=   None    Shift=    0.500
 RMSDP=6.21D-06 MaxDP=2.66D-04 DE=-7.44D-06 OVMax= 2.74D-03

 Cycle  32  Pass 1  IDiag  1:
 E= -844.965597123597     Delta-E=       -0.000004697248 Rises=F Damp=F
 DIIS: error= 1.79D-04 at cycle  32 NSaved=  20.
 NSaved=20 IEnMin=20 EnMin= -844.965597123597     IErMin=20 ErrMin= 1.79D-04
 ErrMax= 1.79D-04  0.00D+00 EMaxC= 1.00D+00 BMatC= 1.25D-05 BMatP= 1.86D-05
 IDIUse=1 WtCom= 1.00D+00 WtEn= 0.00D+00
 Coeff-Com: -0.612D-01 0.820D-01-0.106D+00 0.253D+00-0.135D+00-0.142D-01
 Coeff-Com: -0.119D+00-0.231D-01 0.328D+00-0.548D+00 0.388D+00 0.660D+00
 Coeff-Com: -0.131D+01-0.241D+00 0.102D+01 0.670D+00-0.760D-01-0.235D+01
 Coeff-Com: -0.270D+00 0.285D+01
 Coeff:     -0.612D-01 0.820D-01-0.106D+00 0.253D+00-0.135D+00-0.142D-01
 Coeff:     -0.119D+00-0.231D-01 0.328D+00-0.548D+00 0.388D+00 0.660D+00
 Coeff:     -0.131D+01-0.241D+00 0.102D+01 0.670D+00-0.760D-01-0.235D+01
 Coeff:     -0.270D+00 0.285D+01
 Gap=     0.256 Goal=   None    Shift=    0.500
 Gap=     0.134 Goal=   None    Shift=    0.500
 RMSDP=4.10D-06 MaxDP=1.60D-04 DE=-4.70D-06 OVMax= 1.91D-03

 >>>>>>>>>> Convergence criterion not met.
 SCF Done:  E(ULC-wHPBE) =  -844.965597124     A.U. after   33 cycles
            NFock= 32  Conv=0.41D-05     -V/T= 2.0052
 <Sx>= 0.0000 <Sy>= 0.0000 <Sz>= 0.5000 <S**2>= 0.7754 S= 0.5126
 <L.S>= 0.000000000000E+00
 KE= 8.406363049762D+02 PE=-4.898904001849D+03 EE= 1.725841894909D+03
 Annihilation of the first spin contaminant:
 S**2 before annihilation     0.7754,   after     0.7504
 Leave Link  502 at Thu Jan 21 03:31:05 2021, MaxMem=  4026531840 cpu:            9046.1 elap:            1133.7
 (Enter /opt/ohpc/pub/libs/gaussian/g16-A.03/sandybridge/g16/l508.exe)
 Integral symmetry usage will be decided dynamically.
 Tight linear equation convergence will be used.
 ULC-wHPBE wavefunction.
 Quadratic Convergence SCF Method.
 Line search only if initial step raises energy.
 FoFJK:  IHMeth= 1 ICntrl=       0 DoSepK=T KAlg= 0 I1Cent=           0 FoldK=F
 IRaf=         1 NMat=       1 IRICut=       1 DoRegI=T DoRafI=F ISym2E= 1 IDoP0=0 IntGTp=1.
 FoFCou: FMM=F IPFlag=           0 FMFlag=      100000 FMFlg1=           0
         NFxFlg=           0 DoJE=T BraDBF=F KetDBF=F FulRan=T
         wScrn=  0.000000 ICntrl=       500 IOpCl=  0 I1Cent=           0 NGrid=           0
         NMat0=    1 NMatS0=      1 NMatT0=    0 NMatD0=    1 NMtDS0=    0 NMtDT0=    0
 Petite list used in FoFCou.
 Iteration   1 EE= -844.965600481226                                    Grad=1.891D-03 Max rot=    0.0365 deg.
 QCNR:  CnvC1=1.89D-08 CnvC2=1.89D-07
 LinEq1:  Iter=  0 NonCon=     1 RMS=2.14D-05 Max=4.75D-03 NDo=     1
 AX will form     1 AO Fock derivatives at one time.
 LinEq1:  Iter=  1 NonCon=     1 RMS=9.60D-06 Max=7.53D-04 NDo=     1
 LinEq1:  Iter=  2 NonCon=     1 RMS=5.21D-06 Max=3.58D-04 NDo=     1
 LinEq1:  Iter=  3 NonCon=     1 RMS=4.55D-06 Max=4.47D-04 NDo=     1
 LinEq1:  Iter=  4 NonCon=     1 RMS=2.15D-06 Max=1.27D-04 NDo=     1
 LinEq1:  Iter=  5 NonCon=     1 RMS=1.61D-06 Max=1.71D-04 NDo=     1
 LinEq1:  Iter=  6 NonCon=     1 RMS=7.21D-07 Max=5.44D-05 NDo=     1
 LinEq1:  Iter=  7 NonCon=     1 RMS=5.26D-07 Max=3.58D-05 NDo=     1
 LinEq1:  Iter=  8 NonCon=     1 RMS=2.37D-07 Max=1.44D-05 NDo=     1
 LinEq1:  Iter=  9 NonCon=     1 RMS=1.27D-07 Max=8.13D-06 NDo=     1
 LinEq1:  Iter= 10 NonCon=     1 RMS=9.08D-08 Max=9.48D-06 NDo=     1
 LinEq1:  Iter= 11 NonCon=     1 RMS=4.84D-08 Max=3.64D-06 NDo=     1
 LinEq1:  Iter= 12 NonCon=     1 RMS=3.90D-08 Max=2.20D-06 NDo=     1
 LinEq1:  Iter= 13 NonCon=     1 RMS=1.94D-08 Max=1.52D-06 NDo=     1
 LinEq1:  Iter= 14 NonCon=     1 RMS=1.28D-08 Max=5.75D-07 NDo=     1
 LinEq1:  Iter= 15 NonCon=     1 RMS=7.71D-09 Max=4.19D-07 NDo=     1
 LinEq1:  Iter= 16 NonCon=     1 RMS=5.08D-09 Max=3.67D-07 NDo=     1
 LinEq1:  Iter= 17 NonCon=     0 RMS=2.79D-09 Max=1.87D-07 NDo=     1
 Linear equations converged to 1.891D-08 1.891D-07 after    17 iterations.
 Angle between quadratic step and gradient=  67.73 degrees.
     ILin= 1 X=0.000D+00 Y=-8.449656004812D+02 DE= 0.00D+00 F= -1.01D-05
     ILin= 2 X=1.000D+00 Y=-8.449656055523D+02 DE=-5.07D-06
 Iteration   2 EE= -844.965605552253     Delta-E=       -0.000005071028 Grad=7.883D-06 Max rot=    0.0002 deg.
 Rotation gradient small -- convergence achieved.
 SCF Done:  E(ULC-wHPBE) =  -844.965605552     a.u. after    2 cycles
            Convg  =    0.7883D-05                    19 Fock formations.
              S**2 =  0.7759                  -V/T =  2.0051
 <Sx>= 0.0000 <Sy>= 0.0000 <Sz>= 0.5000 <S**2>= 0.7759 S= 0.5129
 <L.S>= 0.000000000000E+00
 Annihilation of the first spin contaminant:
 S**2 before annihilation     0.7759,   after     0.7504
 Leave Link  508 at Thu Jan 21 03:41:11 2021, MaxMem=  4026531840 cpu:            4829.8 elap:             606.1
 (Enter /opt/ohpc/pub/libs/gaussian/g16-A.03/sandybridge/g16/l601.exe)
 Copying SCF densities to generalized density rwf, IOpCl= 1 IROHF=0.

 **********************************************************************

            Population analysis using the SCF density.

 **********************************************************************

 Orbital symmetries:
 Alpha Orbitals:
       Occupied  (A) (A) (A) (A) (A) (A) (A) (A) (A) (A) (A) (A)
                 (A) (A) (A) (A) (A) (A) (A) (A) (A) (A) (A) (A)
                 (A) (A) (A) (A) (A) (A) (A) (A) (A) (A) (A) (A)
                 (A) (A) (A) (A) (A) (A) (A) (A) (A) (A) (A) (A)
                 (A) (A) (A) (A) (A) (A) (A) (A) (A) (A) (A) (A)
                 (A) (A) (A) (A) (A) (A) (A) (A) (A) (A) (A) (A)
                 (A) (A)
       Virtual   (A) (A) (A) (A) (A) (A) (A) (A) (A) (A) (A) (A)
                 (A) (A) (A) (A) (A) (A) (A) (A) (A) (A) (A) (A)
                 (A) (A) (A) (A) (A) (A) (A) (A) (A) (A) (A) (A)
                 (A) (A) (A) (A) (A) (A) (A) (A) (A) (A) (A) (A)
                 (A) (A) (A) (A) (A) (A) (A) (A) (A) (A) (A) (A)
                 (A) (A) (A) (A) (A) (A) (A) (A) (A) (A) (A) (A)
                 (A) (A) (A) (A) (A) (A) (A) (A) (A) (A) (A) (A)
                 (A) (A) (A) (A) (A) (A) (A) (A) (A) (A) (A) (A)
                 (A) (A) (A) (A) (A) (A) (A) (A) (A) (A) (A) (A)
                 (A) (A) (A) (A) (A) (A) (A) (A) (A) (A) (A) (A)
                 (A) (A) (A) (A) (A) (A) (A) (A) (A) (A) (A) (A)
                 (A) (A) (A) (A) (A) (A) (A) (A) (A) (A) (A) (A)
                 (A) (A) (A) (A) (A) (A) (A) (A) (A) (A) (A) (A)
                 (A) (A) (A) (A) (A) (A) (A) (A) (A) (A) (A) (A)
                 (A) (A) (A) (A) (A) (A) (A) (A) (A) (A) (A) (A)
                 (A) (A) (A) (A) (A) (A) (A) (A) (A) (A) (A) (A)
                 (A) (A) (A) (A) (A) (A) (A) (A) (A) (A) (A) (A)
                 (A) (A) (A) (A) (A) (A) (A) (A) (A) (A) (A) (A)
                 (A) (A) (A) (A) (A) (A) (A) (A) (A) (A) (A) (A)
                 (A) (A) (A) (A) (A) (A) (A) (A) (A) (A) (A) (A)
                 (A) (A) (A) (A) (A) (A) (A) (A) (A) (A) (A) (A)
                 (A) (A) (A) (A) (A) (A) (A) (A) (A) (A) (A) (A)
                 (A) (A) (A) (A) (A) (A) (A) (A) (A) (A) (A) (A)
                 (A) (A) (A) (A) (A) (A) (A) (A) (A) (A) (A) (A)
                 (A) (A) (A) (A) (A) (A) (A) (A) (A) (A) (A) (A)
                 (A) (A) (A) (A) (A) (A) (A) (A) (A) (A) (A) (A)
                 (A) (A) (A) (A) (A) (A) (A) (A) (A) (A) (A) (A)
                 (A) (A) (A) (A) (A) (A) (A) (A) (A) (A) (A) (A)
                 (A) (A) (A) (A) (A) (A) (A) (A) (A) (A) (A) (A)
                 (A) (A) (A) (A) (A) (A) (A) (A) (A) (A) (A) (A)
                 (A) (A) (A) (A) (A) (A) (A) (A) (A) (A) (A) (A)
                 (A) (A) (A) (A) (A) (A) (A) (A) (A) (A) (A) (A)
                 (A) (A) (A) (A) (A) (A) (A) (A) (A) (A) (A) (A)
                 (A) (A) (A) (A) (A) (A) (A) (A) (A) (A) (A) (A)
                 (A) (A) (A) (A) (A) (A) (A) (A) (A) (A) (A) (A)
                 (A) (A) (A) (A) (A) (A) (A) (A) (A) (A) (A) (A)
                 (A) (A) (A) (A) (A) (A) (A) (A) (A) (A) (A) (A)
                 (A) (A) (A) (A) (A) (A) (A)
 Beta  Orbitals:
       Occupied  (A) (A) (A) (A) (A) (A) (A) (A) (A) (A) (A) (A)
                 (A) (A) (A) (A) (A) (A) (A) (A) (A) (A) (A) (A)
                 (A) (A) (A) (A) (A) (A) (A) (A) (A) (A) (A) (A)
                 (A) (A) (A) (A) (A) (A) (A) (A) (A) (A) (A) (A)
                 (A) (A) (A) (A) (A) (A) (A) (A) (A) (A) (A) (A)
                 (A) (A) (A) (A) (A) (A) (A) (A) (A) (A) (A) (A)
                 (A)
       Virtual   (A) (A) (A) (A) (A) (A) (A) (A) (A) (A) (A) (A)
                 (A) (A) (A) (A) (A) (A) (A) (A) (A) (A) (A) (A)
                 (A) (A) (A) (A) (A) (A) (A) (A) (A) (A) (A) (A)
                 (A) (A) (A) (A) (A) (A) (A) (A) (A) (A) (A) (A)
                 (A) (A) (A) (A) (A) (A) (A) (A) (A) (A) (A) (A)
                 (A) (A) (A) (A) (A) (A) (A) (A) (A) (A) (A) (A)
                 (A) (A) (A) (A) (A) (A) (A) (A) (A) (A) (A) (A)
                 (A) (A) (A) (A) (A) (A) (A) (A) (A) (A) (A) (A)
                 (A) (A) (A) (A) (A) (A) (A) (A) (A) (A) (A) (A)
                 (A) (A) (A) (A) (A) (A) (A) (A) (A) (A) (A) (A)
                 (A) (A) (A) (A) (A) (A) (A) (A) (A) (A) (A) (A)
                 (A) (A) (A) (A) (A) (A) (A) (A) (A) (A) (A) (A)
                 (A) (A) (A) (A) (A) (A) (A) (A) (A) (A) (A) (A)
                 (A) (A) (A) (A) (A) (A) (A) (A) (A) (A) (A) (A)
                 (A) (A) (A) (A) (A) (A) (A) (A) (A) (A) (A) (A)
                 (A) (A) (A) (A) (A) (A) (A) (A) (A) (A) (A) (A)
                 (A) (A) (A) (A) (A) (A) (A) (A) (A) (A) (A) (A)
                 (A) (A) (A) (A) (A) (A) (A) (A) (A) (A) (A) (A)
                 (A) (A) (A) (A) (A) (A) (A) (A) (A) (A) (A) (A)
                 (A) (A) (A) (A) (A) (A) (A) (A) (A) (A) (A) (A)
                 (A) (A) (A) (A) (A) (A) (A) (A) (A) (A) (A) (A)
                 (A) (A) (A) (A) (A) (A) (A) (A) (A) (A) (A) (A)
                 (A) (A) (A) (A) (A) (A) (A) (A) (A) (A) (A) (A)
                 (A) (A) (A) (A) (A) (A) (A) (A) (A) (A) (A) (A)
                 (A) (A) (A) (A) (A) (A) (A) (A) (A) (A) (A) (A)
                 (A) (A) (A) (A) (A) (A) (A) (A) (A) (A) (A) (A)
                 (A) (A) (A) (A) (A) (A) (A) (A) (A) (A) (A) (A)
                 (A) (A) (A) (A) (A) (A) (A) (A) (A) (A) (A) (A)
                 (A) (A) (A) (A) (A) (A) (A) (A) (A) (A) (A) (A)
                 (A) (A) (A) (A) (A) (A) (A) (A) (A) (A) (A) (A)
                 (A) (A) (A) (A) (A) (A) (A) (A) (A) (A) (A) (A)
                 (A) (A) (A) (A) (A) (A) (A) (A) (A) (A) (A) (A)
                 (A) (A) (A) (A) (A) (A) (A) (A) (A) (A) (A) (A)
                 (A) (A) (A) (A) (A) (A) (A) (A) (A) (A) (A) (A)
                 (A) (A) (A) (A) (A) (A) (A) (A) (A) (A) (A) (A)
                 (A) (A) (A) (A) (A) (A) (A) (A) (A) (A) (A) (A)
                 (A) (A) (A) (A) (A) (A) (A) (A) (A) (A) (A) (A)
                 (A) (A) (A) (A) (A) (A) (A) (A)
 The electronic state is 2-A.
 Alpha  occ. eigenvalues --  -14.40860 -14.40859 -10.33390 -10.33357 -10.29564
[...]
    28  H(1)               0.00220       9.81537       3.50237       3.27406
    29  H(1)               0.00005       0.20548       0.07332       0.06854
    30  H(1)               0.00206       9.22816       3.29284       3.07818
    31  C(13)             -0.00204      -2.29381      -0.81849      -0.76513
    32  H(1)               0.00177       7.90924       2.82221       2.63824
    33  H(1)               0.00222       9.90556       3.53455       3.30414
    34  H(1)               0.00013       0.57825       0.20634       0.19289
    35  C(13)             -0.00218      -2.45066      -0.87446      -0.81745
    36  H(1)               0.00219       9.80220       3.49767       3.26966
    37  H(1)               0.00005       0.20297       0.07242       0.06770
    38  H(1)               0.00207       9.24600       3.29920       3.08413
    39  C(13)             -0.00204      -2.29499      -0.81891      -0.76553
    40  H(1)               0.00175       7.83728       2.79654       2.61424
    41  H(1)               0.00223       9.94990       3.55037       3.31893
    42  H(1)               0.00014       0.60632       0.21635       0.20225
 --------------------------------------------------------
       Center         ----  Spin Dipole Couplings  ----
                      3XX-RR        3YY-RR        3ZZ-RR
 --------------------------------------------------------
     1   Atom        0.011830      0.010749     -0.022578
     2   Atom       -0.144770     -0.128255      0.273026
     3   Atom       -0.053960     -0.035388      0.089348
     4   Atom        0.011832      0.010748     -0.022580
     5   Atom       -0.107648     -0.106028      0.213676
     6   Atom       -0.053952     -0.035386      0.089338
     7   Atom        0.020777     -0.017311     -0.003466
     8   Atom       -0.005561      0.009650     -0.004089
     9   Atom       -0.001487      0.004387     -0.002900
    10   Atom       -0.005560      0.009649     -0.004089
    11   Atom       -0.047440     -0.049853      0.097293
    12   Atom       -0.053824     -0.016148      0.069972
    13   Atom       -0.053832     -0.016155      0.069987
    14   Atom        0.022513      0.013077     -0.035589
    15   Atom        0.022512      0.013079     -0.035592
    16   Atom       -0.101242     -0.070160      0.171401
    17   Atom       -0.004183      0.007210     -0.003027
    18   Atom       -0.004183      0.007211     -0.003028
    19   Atom        0.001065      0.000923     -0.001989
    20   Atom        0.001065      0.000923     -0.001989
    21   Atom       -0.001487      0.004387     -0.002900
    22   Atom        0.030612      0.012741     -0.043353
    23   Atom       -0.004706     -0.002832      0.007538
    24   Atom       -0.004700     -0.002841      0.007541
    25   Atom       -0.102590     -0.101919      0.204509
    26   Atom       -0.102602     -0.101905      0.204506
    27   Atom       -0.001675      0.000240      0.001434
    28   Atom       -0.000592      0.001537     -0.000945
    29   Atom        0.001377      0.000276     -0.001653
    30   Atom       -0.000407      0.001173     -0.000766
    31   Atom        0.001846     -0.002582      0.000737
    32   Atom        0.001092     -0.000134     -0.000958
    33   Atom        0.001518     -0.000835     -0.000684
    34   Atom        0.001474     -0.000197     -0.001277
    35   Atom       -0.001678      0.000238      0.001440
    36   Atom       -0.000593      0.001541     -0.000948
    37   Atom        0.001377      0.000276     -0.001653
    38   Atom       -0.000407      0.001169     -0.000762
    39   Atom        0.001849     -0.002576      0.000727
    40   Atom        0.001096     -0.000128     -0.000967
    41   Atom        0.001517     -0.000840     -0.000677
    42   Atom        0.001474     -0.000197     -0.001278
 --------------------------------------------------------
                        XY            XZ            YZ
 --------------------------------------------------------
     1   Atom        0.000178     -0.009026      0.004122
     2   Atom       -0.000007      0.000028     -0.099335
     3   Atom        0.007799     -0.019676     -0.047087
     4   Atom       -0.000177      0.009020      0.004122
     5   Atom       -0.000004      0.000030     -0.041029
     6   Atom       -0.007806      0.019697     -0.047083
     7   Atom       -0.000001     -0.000002     -0.003646
     8   Atom       -0.003947     -0.000367      0.002048
     9   Atom        0.000125      0.000091      0.002450
    10   Atom        0.003948      0.000368      0.002047
    11   Atom        0.000003      0.000015      0.029007
    12   Atom        0.010066      0.015318      0.067288
    13   Atom       -0.010054     -0.015298      0.067290
    14   Atom        0.002319      0.006429     -0.019602
    15   Atom       -0.002323     -0.006439     -0.019601
    16   Atom        0.000004      0.000013      0.100042
    17   Atom       -0.002867      0.000610     -0.003250
    18   Atom        0.002867     -0.000610     -0.003250
    19   Atom       -0.000730      0.000632     -0.001805
    20   Atom        0.000730     -0.000632     -0.001805
    21   Atom       -0.000125     -0.000091      0.002450
    22   Atom        0.000001     -0.000001     -0.000176
    23   Atom       -0.003909      0.013014      0.000886
    24   Atom        0.003914     -0.013036      0.000854
    25   Atom        0.001021     -0.014562     -0.025187
    26   Atom       -0.001015      0.014436     -0.025291
    27   Atom        0.001240      0.000963      0.001011
    28   Atom        0.000245     -0.000049     -0.001160
    29   Atom        0.000114      0.000138      0.000337
    30   Atom       -0.000198     -0.000249      0.001343
    31   Atom       -0.000704      0.001103     -0.000802
    32   Atom       -0.001092      0.000875     -0.000687
    33   Atom       -0.000772     -0.001164      0.000498
    34   Atom        0.000493      0.000540      0.000042
    35   Atom       -0.001241     -0.000971      0.001020
    36   Atom       -0.000245      0.000048     -0.001159
    37   Atom       -0.000114     -0.000139      0.000337
    38   Atom        0.000198      0.000250      0.001345
    39   Atom        0.000702     -0.001086     -0.000808
    40   Atom        0.001098     -0.000869     -0.000680
    41   Atom        0.000764      0.001168      0.000495
    42   Atom       -0.000491     -0.000544      0.000043
 --------------------------------------------------------


 ---------------------------------------------------------------------------------
              Anisotropic Spin Dipole Couplings in Principal Axis System
 ---------------------------------------------------------------------------------

       Atom             a.u.   MegaHertz   Gauss  10(-4) cm-1        Axes

              Baa    -0.0253    -3.389    -1.209    -1.131  0.2355 -0.1117  0.9654
     1 C(13)  Bbb     0.0110     1.475     0.526     0.492  0.2736  0.9608  0.0444
              Bcc     0.0143     1.914     0.683     0.639  0.9326 -0.2537 -0.2568
 
              Baa    -0.1515   -20.330    -7.254    -6.781  0.0000  0.9737  0.2278
     2 C(13)  Bbb    -0.1448   -19.427    -6.932    -6.480  1.0000 -0.0000 -0.0001
              Bcc     0.2963    39.756    14.186    13.261  0.0001 -0.2278  0.9737
 
              Baa    -0.0569    -7.641    -2.727    -2.549  0.9730 -0.2230  0.0591
     3 C(13)  Bbb    -0.0509    -6.836    -2.439    -2.280  0.1909  0.9222  0.3363
              Bcc     0.1079    14.477     5.166     4.829 -0.1295 -0.3159  0.9399
 
              Baa    -0.0253    -3.389    -1.209    -1.130 -0.2354 -0.1117  0.9655
     4 C(13)  Bbb     0.0110     1.475     0.526     0.492 -0.2736  0.9608  0.0445
              Bcc     0.0143     1.914     0.683     0.639  0.9326  0.2537  0.2567
 
              Baa    -0.1112   -14.923    -5.325    -4.978  0.0000  0.9921  0.1253
     5 C(13)  Bbb    -0.1076   -14.445    -5.154    -4.818  1.0000 -0.0000 -0.0001
              Bcc     0.2189    29.369    10.479     9.796  0.0001 -0.1253  0.9921
 
              Baa    -0.0569    -7.641    -2.726    -2.549  0.9730  0.2229 -0.0593
     6 C(13)  Bbb    -0.0509    -6.836    -2.439    -2.280 -0.1908  0.9222  0.3363
              Bcc     0.1079    14.477     5.166     4.829  0.1296 -0.3159  0.9399
 
              Baa    -0.0182    -9.717    -3.467    -3.241  0.0000  0.9708  0.2400
     7 H(1)   Bbb    -0.0026    -1.368    -0.488    -0.456  0.0001 -0.2400  0.9708
              Bcc     0.0208    11.086     3.956     3.698  1.0000 -0.0000 -0.0001
 
              Baa    -0.0065    -3.485    -1.244    -1.163  0.9681  0.2435 -0.0585
     8 H(1)   Bbb    -0.0044    -2.331    -0.832    -0.778  0.0898 -0.1192  0.9888
              Bcc     0.0109     5.816     2.075     1.940 -0.2338  0.9625  0.1372
 
              Baa    -0.0036    -1.946    -0.695    -0.649 -0.0234 -0.2913  0.9564
     9 H(1)   Bbb    -0.0015    -0.795    -0.284    -0.265  0.9995 -0.0280  0.0159
              Bcc     0.0051     2.741     0.978     0.914  0.0221  0.9562  0.2918
 
              Baa    -0.0065    -3.485    -1.244    -1.162  0.9681 -0.2436  0.0584
    10 H(1)   Bbb    -0.0044    -2.331    -0.832    -0.778 -0.0896 -0.1192  0.9888
              Bcc     0.0109     5.816     2.075     1.940  0.2339  0.9625  0.1372
 
              Baa    -0.0554    -7.429    -2.651    -2.478 -0.0000  0.9824 -0.1867
    11 C(13)  Bbb    -0.0474    -6.366    -2.272    -2.123  1.0000 -0.0000 -0.0001
              Bcc     0.1028    13.795     4.923     4.602  0.0001  0.1867  0.9824
 
              Baa    -0.0565    -7.580    -2.705    -2.528  0.9171 -0.3872  0.0949
    12 C(13)  Bbb    -0.0524    -7.026    -2.507    -2.344  0.3827  0.7884 -0.4816
              Bcc     0.1088    14.607     5.212     4.872  0.1116  0.4780  0.8712
 
              Baa    -0.0565    -7.581    -2.705    -2.529  0.9171  0.3872 -0.0950
    13 C(13)  Bbb    -0.0524    -7.027    -2.507    -2.344 -0.3827  0.7885 -0.4815
              Bcc     0.1089    14.607     5.212     4.873 -0.1115  0.4780  0.8713
 
              Baa    -0.0432    -5.799    -2.069    -1.934 -0.1034  0.3309  0.9380
    14 C(13)  Bbb     0.0200     2.682     0.957     0.895 -0.0150  0.9424 -0.3341
              Bcc     0.0232     3.116     1.112     1.040  0.9945  0.0486  0.0925
 
              Baa    -0.0432    -5.799    -2.069    -1.934  0.1036  0.3309  0.9380
    15 C(13)  Bbb     0.0200     2.683     0.957     0.895  0.0150  0.9424 -0.3341
              Bcc     0.0232     3.117     1.112     1.040  0.9945 -0.0487 -0.0927
 
              Baa    -0.1062   -14.253    -5.086    -4.754  0.0000  0.9408 -0.3390
    16 C(13)  Bbb    -0.1012   -13.586    -4.848    -4.532  1.0000 -0.0000 -0.0000
              Bcc     0.2075    27.838     9.933     9.286  0.0000  0.3390  0.9408
 
              Baa    -0.0049    -2.608    -0.931    -0.870  0.9513  0.2669  0.1543
    17 H(1)   Bbb    -0.0039    -2.094    -0.747    -0.698 -0.2164  0.2218  0.9508
              Bcc     0.0088     4.702     1.678     1.568 -0.2195  0.9379 -0.2688
 
              Baa    -0.0049    -2.608    -0.931    -0.870  0.9513 -0.2669 -0.1544
    18 H(1)   Bbb    -0.0039    -2.094    -0.747    -0.698  0.2166  0.2218  0.9507
              Bcc     0.0088     4.702     1.678     1.568  0.2195  0.9379 -0.2688
 
              Baa    -0.0029    -1.531    -0.546    -0.511 -0.0678  0.4182  0.9058
    19 H(1)   Bbb     0.0004     0.235     0.084     0.078  0.8207  0.5397 -0.1877
              Bcc     0.0024     1.296     0.462     0.432 -0.5673  0.7307 -0.3798
 
              Baa    -0.0029    -1.531    -0.546    -0.511  0.0679  0.4181  0.9058
    20 H(1)   Bbb     0.0004     0.235     0.084     0.078  0.8207 -0.5397  0.1876
              Bcc     0.0024     1.296     0.462     0.432  0.5673  0.7307 -0.3798
 
              Baa    -0.0036    -1.946    -0.695    -0.649  0.0235 -0.2913  0.9564
    21 H(1)   Bbb    -0.0015    -0.795    -0.284    -0.265  0.9995  0.0279 -0.0161
              Bcc     0.0051     2.741     0.978     0.914 -0.0220  0.9562  0.2918
 
              Baa    -0.0434    -5.818    -2.076    -1.941  0.0000  0.0031  1.0000
    22 C(13)  Bbb     0.0127     1.710     0.610     0.570 -0.0000  1.0000 -0.0031
              Bcc     0.0306     4.108     1.466     1.370  1.0000  0.0000 -0.0000
 
              Baa    -0.0142    -1.909    -0.681    -0.637  0.8085  0.3160 -0.4964
    23 C(13)  Bbb    -0.0017    -0.225    -0.080    -0.075 -0.2279  0.9459  0.2310
              Bcc     0.0159     2.133     0.761     0.712  0.5425 -0.0736  0.8368
 
              Baa    -0.0142    -1.910    -0.681    -0.637  0.8087 -0.3151  0.4966
    24 C(13)  Bbb    -0.0017    -0.228    -0.081    -0.076  0.2263  0.9461  0.2319
              Bcc     0.0159     2.137     0.763     0.713 -0.5429 -0.0752  0.8364
 
              Baa    -0.1040    -4.012    -1.431    -1.338  0.2212  0.9711  0.0897
    25 N(14)  Bbb    -0.1032    -3.982    -1.421    -1.328  0.9741 -0.2244  0.0277
              Bcc     0.2073     7.993     2.852     2.666 -0.0471 -0.0813  0.9956
 
              Baa    -0.1040    -4.012    -1.431    -1.338 -0.2213  0.9711  0.0900
    26 N(14)  Bbb    -0.1032    -3.982    -1.421    -1.328  0.9741  0.2245 -0.0272
              Bcc     0.2073     7.993     2.852     2.666  0.0466 -0.0816  0.9956
 
              Baa    -0.0023    -0.314    -0.112    -0.105  0.9124 -0.3884 -0.1289
    27 C(13)  Bbb    -0.0002    -0.025    -0.009    -0.008  0.2356  0.7562 -0.6105
              Bcc     0.0025     0.339     0.121     0.113  0.3346  0.5267  0.7815
 
              Baa    -0.0014    -0.750    -0.268    -0.250 -0.0563  0.3703  0.9272
    28 H(1)   Bbb    -0.0006    -0.327    -0.117    -0.109  0.9940 -0.0666  0.0870
              Bcc     0.0020     1.077     0.384     0.359  0.0939  0.9265 -0.3643
 
              Baa    -0.0017    -0.915    -0.326    -0.305 -0.0381 -0.1646  0.9856
    29 H(1)   Bbb     0.0003     0.168     0.060     0.056 -0.1259  0.9793  0.1587
              Bcc     0.0014     0.746     0.266     0.249  0.9913  0.1181  0.0580
 
              Baa    -0.0015    -0.784    -0.280    -0.262  0.1258 -0.4421  0.8881
    30 H(1)   Bbb    -0.0004    -0.228    -0.081    -0.076  0.9842  0.1684 -0.0556
              Bcc     0.0019     1.012     0.361     0.338 -0.1250  0.8810  0.4562
 
              Baa    -0.0028    -0.377    -0.135    -0.126  0.1029  0.9766  0.1889
    31 C(13)  Bbb     0.0001     0.012     0.004     0.004 -0.5575 -0.1007  0.8241
              Bcc     0.0027     0.365     0.130     0.122  0.8238 -0.1901  0.5341
 
              Baa    -0.0014    -0.739    -0.264    -0.246 -0.1658  0.3595  0.9183
    32 H(1)   Bbb    -0.0007    -0.395    -0.141    -0.132  0.5717  0.7938 -0.2075
              Bcc     0.0021     1.134     0.405     0.378  0.8035 -0.4906  0.3371
 
              Baa    -0.0013    -0.691    -0.246    -0.230  0.1725 -0.5761  0.7990
    33 H(1)   Bbb    -0.0010    -0.528    -0.188    -0.176  0.4486  0.7681  0.4569
              Bcc     0.0023     1.218     0.435     0.406  0.8769 -0.2797 -0.3909
 
              Baa    -0.0014    -0.737    -0.263    -0.246 -0.1932  0.0458  0.9801
    34 H(1)   Bbb    -0.0003    -0.172    -0.061    -0.057 -0.2379  0.9669 -0.0921
              Bcc     0.0017     0.909     0.324     0.303  0.9519  0.2510  0.1759
 
              Baa    -0.0023    -0.314    -0.112    -0.105  0.9126  0.3877  0.1296
    35 C(13)  Bbb    -0.0002    -0.027    -0.010    -0.009 -0.2348  0.7568 -0.6100
              Bcc     0.0025     0.341     0.122     0.114 -0.3346  0.5263  0.7817
 
              Baa    -0.0014    -0.750    -0.268    -0.250  0.0561  0.3693  0.9276
    36 H(1)   Bbb    -0.0006    -0.328    -0.117    -0.109  0.9940  0.0665 -0.0866
              Bcc     0.0020     1.078     0.385     0.360 -0.0937  0.9269 -0.3634
 
              Baa    -0.0017    -0.915    -0.326    -0.305  0.0382 -0.1649  0.9856
    37 H(1)   Bbb     0.0003     0.168     0.060     0.056  0.1256  0.9793  0.1590
              Bcc     0.0014     0.746     0.266     0.249  0.9913 -0.1177 -0.0581
 
              Baa    -0.0015    -0.784    -0.280    -0.261 -0.1267 -0.4431  0.8875
    38 H(1)   Bbb    -0.0004    -0.228    -0.081    -0.076  0.9840 -0.1691  0.0560
              Bcc     0.0019     1.011     0.361     0.337  0.1253  0.8804  0.4574
 
              Baa    -0.0028    -0.377    -0.134    -0.126 -0.1024  0.9761  0.1916
    39 C(13)  Bbb     0.0001     0.013     0.005     0.004  0.5544 -0.1039  0.8257
              Bcc     0.0027     0.364     0.130     0.121  0.8259  0.1908 -0.5305
 
              Baa    -0.0014    -0.739    -0.264    -0.246  0.1664  0.3528  0.9208
    40 H(1)   Bbb    -0.0007    -0.397    -0.141    -0.132 -0.5707  0.7960 -0.2018
              Bcc     0.0021     1.135     0.405     0.379  0.8042  0.4919 -0.3338
 
              Baa    -0.0013    -0.689    -0.246    -0.230 -0.1734 -0.5798  0.7961
    41 H(1)   Bbb    -0.0010    -0.528    -0.188    -0.176 -0.4481  0.7663  0.4605
              Bcc     0.0023     1.217     0.434     0.406  0.8770  0.2768  0.3927
 
              Baa    -0.0014    -0.738    -0.263    -0.246  0.1943  0.0453  0.9799
    42 H(1)   Bbb    -0.0003    -0.171    -0.061    -0.057  0.2369  0.9672 -0.0917
              Bcc     0.0017     0.910     0.325     0.303  0.9519 -0.2500 -0.1772
 

 ---------------------------------------------------------------------------------

 No NMR shielding tensors so no spin-rotation constants.
 Leave Link  601 at Thu Jan 21 03:41:12 2021, MaxMem=  4026531840 cpu:               4.3 elap:               0.6
 (Enter /opt/ohpc/pub/libs/gaussian/g16-A.03/sandybridge/g16/l9999.exe)

 Test job not archived.
 1\1\GINC-CASCADEB025\SP\ULC-wHPBE\TZVP\C19H21N2(2+,2)\RDU230\21-Jan-20
 21\0\\#P LC-wHPBE/TZVP iop(3/107=0186400000, 3/108=0186400000) scf=(co
 nver=6,fermi,ndamp=35,noincfock,novaracc,vshift=500,xqc)\\H21 C19 N2\\
 2,2\C,0,5.924302,-1.175178,0.28256\C,0,6.625626,0.000025,-0.000251\C,0
 ,4.530324,-1.177472,0.278212\C,0,5.924206,1.175202,-0.282951\C,0,3.810
 936,-0.000036,-0.000021\C,0,4.530233,1.177435,-0.278371\H,0,7.716547,0
 .000056,-0.000331\H,0,3.994064,-2.094974,0.527939\H,0,6.466302,2.09321
 ,-0.514746\H,0,3.99388,2.094904,-0.52801\C,0,2.333716,-0.000062,0.0001
 09\C,0,1.604784,1.119278,0.452707\C,0,1.604752,-1.119433,-0.452341\C,0
 ,0.21685,1.12577,0.449243\C,0,0.216813,-1.125977,-0.44867\C,0,-0.50491
 9,-0.000106,0.000309\H,0,2.141671,1.985727,0.840835\H,0,2.141597,-1.98
 5891,-0.840507\H,0,-0.315693,1.995203,0.838189\H,0,-0.315745,-1.995465
 ,-0.837475\H,0,6.466484,-2.093156,0.514265\C,0,-1.942874,-0.000086,0.0
 00402\C,0,-3.143323,-0.702637,-0.003392\C,0,-3.143127,0.702801,0.00391
 5\N,0,-3.78708,-1.855019,0.001668\N,0,-3.786774,1.855252,-0.001097\C,0
 ,-3.068411,-3.12252,0.167733\H,0,-3.187886,-3.74858,-0.728596\H,0,-2.0
 05788,-2.927607,0.341041\H,0,-3.471162,-3.663551,1.036238\C,0,-5.24512
 1,-1.94416,-0.100275\H,0,-5.509149,-2.713998,-0.838669\H,0,-5.688951,-
 2.217262,0.869111\H,0,-5.659251,-0.989594,-0.439085\C,0,-3.068047,3.12
 2616,-0.16813\H,0,-3.188116,3.749602,0.727455\H,0,-2.005304,2.927538,-
 0.340531\H,0,-3.470192,3.662707,-1.037509\C,0,-5.24495,1.944232,0.0993
 91\H,0,-5.509538,2.71844,0.832954\H,0,-5.688631,2.211256,-0.871774\H,0
 ,-5.658779,0.991638,0.444142\\Version=EM64L-G16RevA.03\State=2-A\HF=-8
 44.9656056\S2=0.775895\S2-1=0.\S2A=0.750416\RMSD=3.060e-08\Dipole=-1.3
 2611,0.0000433,-0.0008398\Quadrupole=86.6384385,-23.2189672,-63.419471
 3,-0.0000624,0.0047501,0.1899323\PG=C01 [X(C19H21N2)]\\@


 EVERYTHING'S GOT A MORAL, IF ONLY YOU CAN FIND IT.

                                    -- LEWIS CARROL, ALICE IN WONDERLAND
 Job cpu time:       0 days  3 hours 52 minutes 11.3 seconds.
 Elapsed time:       0 days  0 hours 29 minutes  7.0 seconds.
 File lengths (MBytes):  RWF=    188 Int=      0 D2E=      0 Chk=     24 Scr=      8
 Normal termination of Gaussian 16 at Thu Jan 21 03:41:12 2021.
