 Entering Gaussian System, Link 0=g16
 Input=mol_bp_cp_half_tune_n5.gjf
 Output=mol_bp_cp_half_tune_n5.log
 Initial command:
 /opt/ohpc/pub/libs/gaussian/g16-A.03/sandybridge/g16/l1.exe "/mnt/gpfs2_4m/scratch/rdu230/ondemand/projects/init_structures/wtuning/mol_bp_cp_half/tuning_mol_bp_cp_half_ocycle0/Gau-261365.inp" -scrdir="/mnt/gpfs2_4m/scratch/rdu230/ondemand/projects/init_structures/wtuning/mol_bp_cp_half/tuning_mol_bp_cp_half_ocycle0/"
 Entering Link 1 = /opt/ohpc/pub/libs/gaussian/g16-A.03/sandybridge/g16/l1.exe PID=    261366.
  
 Copyright (c) 1988,1990,1992,1993,1995,1998,2003,2009,2016,
            Gaussian, Inc.  All Rights Reserved.
  
 This is part of the Gaussian(R) 16 program.  It is based on
 the Gaussian(R) 09 system (copyright 2009, Gaussian, Inc.),
 the Gaussian(R) 03 system (copyright 2003, Gaussian, Inc.),
 the Gaussian(R) 98 system (copyright 1998, Gaussian, Inc.),
 the Gaussian(R) 94 system (copyright 1995, Gaussian, Inc.),
 the Gaussian 92(TM) system (copyright 1992, Gaussian, Inc.),
 the Gaussian 90(TM) system (copyright 1990, Gaussian, Inc.),
 the Gaussian 88(TM) system (copyright 1988, Gaussian, Inc.),
 the Gaussian 86(TM) system (copyright 1986, Carnegie Mellon
 University), and the Gaussian 82(TM) system (copyright 1983,
 Carnegie Mellon University). Gaussian is a federally registered
 trademark of Gaussian, Inc.
  
 This software contains proprietary and confidential information,
 including trade secrets, belonging to Gaussian, Inc.
  
 This software is provided under written license and may be
 used, copied, transmitted, or stored only in accord with that
 written license.
  
 The following legend is applicable only to US Government
 contracts under FAR:
  
                    RESTRICTED RIGHTS LEGEND
  
 Use, reproduction and disclosure by the US Government is
 subject to restrictions as set forth in subparagraphs (a)
 and (c) of the Commercial Computer Software - Restricted
 Rights clause in FAR 52.227-19.
  
 Gaussian, Inc.
 340 Quinnipiac St., Bldg. 40, Wallingford CT 06492
  
  
 ---------------------------------------------------------------
 Warning -- This program may not be used in any manner that
 competes with the business of Gaussian, Inc. or will provide
 assistance to any competitor of Gaussian, Inc.  The licensee
 of this program is prohibited from giving any competitor of
 Gaussian, Inc. access to this program.  By using this program,
 the user acknowledges that Gaussian, Inc. is engaged in the
 business of creating and licensing software in the field of
 computational chemistry and represents and warrants to the
 licensee that it is not a competitor of Gaussian, Inc. and that
 it will not use this program in any manner prohibited above.
 ---------------------------------------------------------------
  

 Cite this work as:
 Gaussian 16, Revision A.03,
 M. J. Frisch, G. W. Trucks, H. B. Schlegel, G. E. Scuseria, 
 M. A. Robb, J. R. Cheeseman, G. Scalmani, V. Barone, 
 G. A. Petersson, H. Nakatsuji, X. Li, M. Caricato, A. V. Marenich, 
 J. Bloino, B. G. Janesko, R. Gomperts, B. Mennucci, H. P. Hratchian, 
 J. V. Ortiz, A. F. Izmaylov, J. L. Sonnenberg, D. Williams-Young, 
 F. Ding, F. Lipparini, F. Egidi, J. Goings, B. Peng, A. Petrone, 
 T. Henderson, D. Ranasinghe, V. G. Zakrzewski, J. Gao, N. Rega, 
 G. Zheng, W. Liang, M. Hada, M. Ehara, K. Toyota, R. Fukuda, 
 J. Hasegawa, M. Ishida, T. Nakajima, Y. Honda, O. Kitao, H. Nakai, 
 T. Vreven, K. Throssell, J. A. Montgomery, Jr., J. E. Peralta, 
 F. Ogliaro, M. J. Bearpark, J. J. Heyd, E. N. Brothers, K. N. Kudin, 
 V. N. Staroverov, T. A. Keith, R. Kobayashi, J. Normand, 
 K. Raghavachari, A. P. Rendell, J. C. Burant, S. S. Iyengar, 
 J. Tomasi, M. Cossi, J. M. Millam, M. Klene, C. Adamo, R. Cammi, 
 J. W. Ochterski, R. L. Martin, K. Morokuma, O. Farkas, 
 J. B. Foresman, and D. J. Fox, Gaussian, Inc., Wallingford CT, 2016.
 
 ******************************************
 Gaussian 16:  EM64L-G16RevA.03 25-Dec-2016
                21-Jan-2021 
 ******************************************
 %mem=30GB
 %nproc=8
 Will use up to    8 processors via shared memory.
 ----------------------------------------------------------------------
 #P LC-wHPBE/TZVP iop(3/107=0186400000, 3/108=0186400000) scf=(conver=6
 ,fermi,ndamp=35,noincfock,novaracc,vshift=500,xqc)
 ----------------------------------------------------------------------
 1/38=1,172=1/1;
 2/12=2,17=6,18=5,40=1/2;
 3/5=19,7=101,11=2,25=1,30=1,74=-71,107=186400000,108=186400000/1,2,3;
 4//1;
 5/5=100002,6=6,8=3,10=500,13=1,18=-1,22=13,38=1,93=35/2,8;
 6/7=2,8=2,9=2,10=2,28=1/1;
 99/5=1,9=1/99;
 Leave Link    1 at Thu Jan 21 03:04:31 2021, MaxMem=  4026531840 cpu:               0.9 elap:               0.2
 (Enter /opt/ohpc/pub/libs/gaussian/g16-A.03/sandybridge/g16/l101.exe)
 ----------
 H21 C19 N2
 ----------
 Symbolic Z-matrix:
 Charge =  1 Multiplicity = 1
 C                     5.9243   -1.17518   0.28256 
 C                     6.62563   0.00003  -0.00025 
 C                     4.53032  -1.17747   0.27821 
 C                     5.92421   1.1752   -0.28295 
 C                     3.81094  -0.00004  -0.00002 
 C                     4.53023   1.17744  -0.27837 
 H                     7.71655   0.00006  -0.00033 
 H                     3.99406  -2.09497   0.52794 
 H                     6.4663    2.09321  -0.51475 
 H                     3.99388   2.0949   -0.52801 
 C                     2.33372  -0.00006   0.00011 
 C                     1.60478   1.11928   0.45271 
 C                     1.60475  -1.11943  -0.45234 
 C                     0.21685   1.12577   0.44924 
 C                     0.21681  -1.12598  -0.44867 
 C                    -0.50492  -0.00011   0.00031 
 H                     2.14167   1.98573   0.84084 
 H                     2.1416   -1.98589  -0.84051 
 H                    -0.31569   1.9952    0.83819 
 H                    -0.31575  -1.99547  -0.83748 
 H                     6.46648  -2.09316   0.51427 
 C                    -1.94287  -0.00009   0.0004 
 C                    -3.14332  -0.70264  -0.00339 
 C                    -3.14313   0.7028    0.00392 
 N                    -3.78708  -1.85502   0.00167 
 N                    -3.78677   1.85525  -0.0011 
 C                    -3.06841  -3.12252   0.16773 
 H                    -3.18789  -3.74858  -0.7286 
 H                    -2.00579  -2.92761   0.34104 
 H                    -3.47116  -3.66355   1.03624 
 C                    -5.24512  -1.94416  -0.10028 
 H                    -5.50915  -2.714    -0.83867 
 H                    -5.68895  -2.21726   0.86911 
 H                    -5.65925  -0.98959  -0.43909 
 C                    -3.06805   3.12262  -0.16813 
 H                    -3.18812   3.7496    0.72746 
 H                    -2.0053    2.92754  -0.34053 
 H                    -3.47019   3.66271  -1.03751 
 C                    -5.24495   1.94423   0.09939 
 H                    -5.50954   2.71844   0.83295 
 H                    -5.68863   2.21126  -0.87177 
 H                    -5.65878   0.99164   0.44414 
 
 ITRead=  0  0  0  0  0  0  0  0  0  0  0  0  0  0  0  0  0  0  0  0
 ITRead=  0  0  0  0  0  0  0  0  0  0  0  0  0  0  0  0  0  0  0  0
 ITRead=  0  0
 MicOpt= -1 -1 -1 -1 -1 -1 -1 -1 -1 -1 -1 -1 -1 -1 -1 -1 -1 -1 -1 -1
 MicOpt= -1 -1 -1 -1 -1 -1 -1 -1 -1 -1 -1 -1 -1 -1 -1 -1 -1 -1 -1 -1
 MicOpt= -1 -1
 NAtoms=     42 NQM=       42 NQMF=       0 NMMI=      0 NMMIF=      0
                NMic=       0 NMicF=      0.
                    Isotopes and Nuclear Properties:
 (Nuclear quadrupole moments (NQMom) in fm**2, nuclear magnetic moments (NMagM)
  in nuclear magnetons)

  Atom         1           2           3           4           5           6           7           8           9          10
 IAtWgt=          12          12          12          12          12          12           1           1           1           1
 AtmWgt=  12.0000000  12.0000000  12.0000000  12.0000000  12.0000000  12.0000000   1.0078250   1.0078250   1.0078250   1.0078250
 NucSpn=           0           0           0           0           0           0           1           1           1           1
 AtZEff=  -0.0000000  -0.0000000  -0.0000000  -0.0000000  -0.0000000  -0.0000000  -0.0000000  -0.0000000  -0.0000000  -0.0000000
 NQMom=    0.0000000   0.0000000   0.0000000   0.0000000   0.0000000   0.0000000   0.0000000   0.0000000   0.0000000   0.0000000
 NMagM=    0.0000000   0.0000000   0.0000000   0.0000000   0.0000000   0.0000000   2.7928460   2.7928460   2.7928460   2.7928460
 AtZNuc=   6.0000000   6.0000000   6.0000000   6.0000000   6.0000000   6.0000000   1.0000000   1.0000000   1.0000000   1.0000000

  Atom        11          12          13          14          15          16          17          18          19          20
 IAtWgt=          12          12          12          12          12          12           1           1           1           1
 AtmWgt=  12.0000000  12.0000000  12.0000000  12.0000000  12.0000000  12.0000000   1.0078250   1.0078250   1.0078250   1.0078250
 NucSpn=           0           0           0           0           0           0           1           1           1           1
 AtZEff=  -0.0000000  -0.0000000  -0.0000000  -0.0000000  -0.0000000  -0.0000000  -0.0000000  -0.0000000  -0.0000000  -0.0000000
 NQMom=    0.0000000   0.0000000   0.0000000   0.0000000   0.0000000   0.0000000   0.0000000   0.0000000   0.0000000   0.0000000
 NMagM=    0.0000000   0.0000000   0.0000000   0.0000000   0.0000000   0.0000000   2.7928460   2.7928460   2.7928460   2.7928460
 AtZNuc=   6.0000000   6.0000000   6.0000000   6.0000000   6.0000000   6.0000000   1.0000000   1.0000000   1.0000000   1.0000000

  Atom        21          22          23          24          25          26          27          28          29          30
 IAtWgt=           1          12          12          12          14          14          12           1           1           1
 AtmWgt=   1.0078250  12.0000000  12.0000000  12.0000000  14.0030740  14.0030740  12.0000000   1.0078250   1.0078250   1.0078250
 NucSpn=           1           0           0           0           2           2           0           1           1           1
 AtZEff=  -0.0000000  -0.0000000  -0.0000000  -0.0000000  -0.0000000  -0.0000000  -0.0000000  -0.0000000  -0.0000000  -0.0000000
 NQMom=    0.0000000   0.0000000   0.0000000   0.0000000   2.0440000   2.0440000   0.0000000   0.0000000   0.0000000   0.0000000
 NMagM=    2.7928460   0.0000000   0.0000000   0.0000000   0.4037610   0.4037610   0.0000000   2.7928460   2.7928460   2.7928460
 AtZNuc=   1.0000000   6.0000000   6.0000000   6.0000000   7.0000000   7.0000000   6.0000000   1.0000000   1.0000000   1.0000000

  Atom        31          32          33          34          35          36          37          38          39          40
 IAtWgt=          12           1           1           1          12           1           1           1          12           1
 AtmWgt=  12.0000000   1.0078250   1.0078250   1.0078250  12.0000000   1.0078250   1.0078250   1.0078250  12.0000000   1.0078250
 NucSpn=           0           1           1           1           0           1           1           1           0           1
 AtZEff=  -0.0000000  -0.0000000  -0.0000000  -0.0000000  -0.0000000  -0.0000000  -0.0000000  -0.0000000  -0.0000000  -0.0000000
 NQMom=    0.0000000   0.0000000   0.0000000   0.0000000   0.0000000   0.0000000   0.0000000   0.0000000   0.0000000   0.0000000
 NMagM=    0.0000000   2.7928460   2.7928460   2.7928460   0.0000000   2.7928460   2.7928460   2.7928460   0.0000000   2.7928460
 AtZNuc=   6.0000000   1.0000000   1.0000000   1.0000000   6.0000000   1.0000000   1.0000000   1.0000000   6.0000000   1.0000000

  Atom        41          42
 IAtWgt=           1           1
 AtmWgt=   1.0078250   1.0078250
 NucSpn=           1           1
 AtZEff=  -0.0000000  -0.0000000
 NQMom=    0.0000000   0.0000000
 NMagM=    2.7928460   2.7928460
 AtZNuc=   1.0000000   1.0000000
 Leave Link  101 at Thu Jan 21 03:04:31 2021, MaxMem=  4026531840 cpu:               0.6 elap:               0.1
 (Enter /opt/ohpc/pub/libs/gaussian/g16-A.03/sandybridge/g16/l202.exe)
                          Input orientation:                          
 ---------------------------------------------------------------------
 Center     Atomic      Atomic             Coordinates (Angstroms)
 Number     Number       Type             X           Y           Z
 ---------------------------------------------------------------------
      1          6           0        5.924302   -1.175178    0.282560
      2          6           0        6.625626    0.000025   -0.000251
      3          6           0        4.530324   -1.177472    0.278212
      4          6           0        5.924206    1.175202   -0.282951
      5          6           0        3.810936   -0.000036   -0.000021
      6          6           0        4.530233    1.177435   -0.278371
      7          1           0        7.716547    0.000056   -0.000331
      8          1           0        3.994064   -2.094974    0.527939
      9          1           0        6.466302    2.093210   -0.514746
     10          1           0        3.993880    2.094904   -0.528010
     11          6           0        2.333716   -0.000062    0.000109
     12          6           0        1.604784    1.119278    0.452707
     13          6           0        1.604752   -1.119433   -0.452341
     14          6           0        0.216850    1.125770    0.449243
     15          6           0        0.216813   -1.125977   -0.448670
     16          6           0       -0.504919   -0.000106    0.000309
     17          1           0        2.141671    1.985727    0.840835
     18          1           0        2.141597   -1.985891   -0.840507
     19          1           0       -0.315693    1.995203    0.838189
     20          1           0       -0.315745   -1.995465   -0.837475
     21          1           0        6.466484   -2.093156    0.514265
     22          6           0       -1.942874   -0.000086    0.000402
     23          6           0       -3.143323   -0.702637   -0.003392
     24          6           0       -3.143127    0.702801    0.003915
     25          7           0       -3.787080   -1.855019    0.001668
     26          7           0       -3.786774    1.855252   -0.001097
     27          6           0       -3.068411   -3.122520    0.167733
     28          1           0       -3.187886   -3.748580   -0.728596
     29          1           0       -2.005788   -2.927607    0.341041
     30          1           0       -3.471162   -3.663551    1.036238
     31          6           0       -5.245121   -1.944160   -0.100275
     32          1           0       -5.509149   -2.713998   -0.838669
     33          1           0       -5.688951   -2.217262    0.869111
     34          1           0       -5.659251   -0.989594   -0.439085
     35          6           0       -3.068047    3.122616   -0.168130
     36          1           0       -3.188116    3.749602    0.727455
     37          1           0       -2.005304    2.927538   -0.340531
     38          1           0       -3.470192    3.662707   -1.037509
     39          6           0       -5.244950    1.944232    0.099391
     40          1           0       -5.509538    2.718440    0.832954
     41          1           0       -5.688631    2.211256   -0.871774
     42          1           0       -5.658779    0.991638    0.444142
 ---------------------------------------------------------------------
                    Distance matrix (angstroms):
                    1          2          3          4          5
     1  C    0.000000
     2  C    1.397476   0.000000
     3  C    1.393987   2.419573   0.000000
     4  C    2.417455   1.397480   2.791574   0.000000
     5  C    2.434569   2.814690   1.407582   2.434573   0.000000
     6  C    2.791569   2.419570   2.419788   1.393982   1.407588
     7  H    2.161792   1.090921   3.408251   2.161788   3.905611
     8  H    2.152221   3.404868   1.091672   3.882917   2.168189
     9  H    3.407612   2.161368   3.882545   1.091025   3.420174
    10  H    3.882910   3.404869   3.412655   2.152223   2.168182
    11  C    3.788533   4.291910   2.507733   3.788534   1.477220
    12  C    4.894049   5.163986   3.723479   4.381977   2.514942
    13  C    4.381974   5.163986   3.015965   4.894050   2.514934
    14  C    6.156066   6.522404   4.892876   5.754343   3.792985
    15  C    5.754350   6.522411   4.374630   6.156072   3.792987
    16  C    6.541815   7.130545   5.178522   6.541807   4.315855
    17  H    4.960977   4.975569   4.003503   4.028327   2.727039
    18  H    4.028324   4.975581   2.758820   4.960999   2.727037
    19  H    7.021223   7.270875   5.819220   6.392628   4.659683
    20  H    6.392616   7.270870   5.039668   7.021226   4.659674
    21  H    1.091023   2.161356   2.154742   3.407607   3.420172
    22  C    7.959454   8.568500   6.585265   7.959431   5.753810
    23  C    9.084431   9.794187   7.693480   9.264152   6.989662
    24  C    9.264055   9.794001   7.905221   9.084161   6.989491
    25  N    9.739200  10.576655   8.349536  10.177049   7.821177
    26  N   10.176884  10.576386   8.857175   9.738842   7.820952
    27  C    9.201859  10.185915   7.844501   9.977008   7.556683
    28  H    9.522437  10.530315   8.197257  10.366892   7.972823
    29  H    8.121623   9.120790   6.766659   8.950263   6.520834
    30  H    9.748578  10.790794   8.413024  10.650199   8.217307
    31  C   11.202406  12.029318   9.812767  11.598175   9.262928
    32  H   11.590898  12.462810  10.217600  12.089512   9.743352
    33  H   11.674657  12.542765  10.289019  12.153250   9.793842
    34  H   11.607494  12.332482  10.216519  11.785041   9.531865
    35  C    9.976798  10.185581   8.742152   9.201425   7.556429
    36  H   10.367620  10.530832   9.167998   9.522755   7.973439
    37  H    8.949814   9.120256   7.742634   8.121030   6.520375
    38  H   10.649142  10.789656   9.442813   9.747397   8.216258
    39  C   11.598123  12.029150  10.263186  11.202127   9.262782
    40  H   12.091149  12.463796  10.783538  11.591261   9.744496
    41  H   12.151569  12.541532  10.827418  11.673821   9.792423
    42  H   11.785116  12.332372  10.418752  11.607235   9.531852
                    6          7          8          9         10
     6  C    0.000000
     7  H    3.408244   0.000000
     8  H    3.412664   4.304079   0.000000
     9  H    2.154734   2.491792   4.973936   0.000000
    10  H    1.091670   4.304077   4.320892   2.472458   0.000000
    11  C    2.507735   5.382831   2.724705   4.661022   2.724690
    12  C    3.015976   6.229892   4.005713   5.051620   2.760694
    13  C    3.723481   6.229896   2.760696   5.827490   4.005699
    14  C    4.374627   7.597026   4.964547   6.396942   4.019975
    15  C    4.892883   7.597037   4.019993   7.030195   4.964535
    16  C    5.178515   8.221466   4.990763   7.296929   4.990729
    17  H    2.758838   5.977432   4.492370   4.533386   2.305718
    18  H    4.003525   5.977453   2.305684   5.953844   4.492382
    19  H    5.039687   8.318690   5.949774   6.916321   4.522042
    20  H    5.819226   8.318692   4.522025   7.925754   5.949769
    21  H    3.882539   2.491787   2.472458   4.310977   4.973927
    22  C    6.585240   9.659421   6.317759   8.681101   6.317693
    23  C    7.905299  10.882581   7.291310  10.021134   7.683822
    24  C    7.693206  10.882389   7.683856   9.723342   7.290937
    25  N    8.857307  11.652242   7.802611  10.999411   8.742184
    26  N    8.349187  11.651959   8.742174  10.268692   7.802157
    27  C    8.742312  11.229160   7.145919  10.889461   8.808038
    28  H    9.167207  11.553757   7.476209  11.286079   9.260902
    29  H    7.743036  10.159308   6.060234   9.885205   7.872540
    30  H    9.443816  11.817839   7.645155  11.588746   9.556858
    31  C   10.263217  13.107052   9.261746  12.394740  10.092380
    32  H   10.781761  13.527303   9.620908  12.908354  10.655027
    33  H   10.829238  13.615425   9.689795  12.970945  10.691302
    34  H   10.418610  13.419534   9.764399  12.511532  10.134346
    35  C    7.844090  11.228802   8.808017   9.596022   7.145384
    36  H    8.197600  11.554239   9.261889   9.873930   7.476315
    37  H    6.766090  10.158754   7.872248   8.514374   6.059590
    38  H    8.411877  11.816678   9.555974  10.073257   7.643950
    39  C    9.812486  13.106875  10.092483  11.728290   9.261334
    40  H   10.217962  13.528241  10.657412  12.067641   9.620602
    41  H   10.288153  13.614243  10.689125  12.160748   9.689310
    42  H   10.216287  13.419394  10.134672  12.212719   9.764021
                   11         12         13         14         15
    11  C    0.000000
    12  C    1.410358   0.000000
    13  C    1.410351   2.414734   0.000000
    14  C    2.439332   1.387954   2.789276   0.000000
    15  C    2.439337   2.789286   1.387959   2.424172   0.000000
    16  C    2.838635   2.430747   2.430740   1.410705   1.410697
    17  H    2.164962   1.090699   3.406260   2.144250   3.879511
    18  H    2.164962   3.406266   1.090699   3.879503   2.144244
    19  H    3.420940   2.145710   3.880017   1.091235   3.417797
    20  H    3.420939   3.880029   2.145709   3.417808   1.091236
    21  H    4.661027   5.827491   5.051624   7.030195   6.396958
    22  C    4.276590   3.747457   3.747474   2.476574   2.476599
    23  C    5.521918   5.106067   4.787430   3.852105   3.415846
    24  C    5.521761   4.787225   5.105983   3.415650   3.852072
    25  N    6.395703   6.174308   5.460683   5.011675   4.094565
    26  N    6.395513   5.460448   6.174214   4.094381   5.011662
    27  C    6.241860   6.317659   5.122041   5.377746   3.893435
    28  H    6.713456   6.932619   5.473400   6.061256   4.306783
    29  H    5.245765   5.424572   4.115209   4.624034   2.968075
    30  H    6.941997   6.998656   5.869694   6.073186   4.716502
    31  C    7.824856   7.524071   6.908320   6.289640   5.533853
    32  H    8.341434   8.183502   7.300649   7.013530   5.954876
    33  H    8.368651   8.031467   7.493301   6.799312   6.148618
    34  H    8.065952   7.616353   7.265175   6.308126   5.877654
    35  C    6.241672   5.121928   6.317500   3.893468   5.377690
    36  H    6.714137   5.474119   6.933326   4.307632   6.062020
    37  H    5.245376   4.114823   5.424295   2.967841   4.623903
    38  H    6.941028   5.869000   6.997595   4.716011   6.072251
    39  C    7.824725   6.908273   7.523887   5.533854   6.289468
    40  H    8.342692   7.301745   8.185009   5.956119   7.015212
    41  H    8.367088   7.492701   8.028876   6.148014   6.796353
    42  H    8.066016   7.264689   7.617033   5.877162   6.309040
                   16         17         18         19         20
    16  C    0.000000
    17  H    3.413862   0.000000
    18  H    3.413848   4.312848   0.000000
    19  H    2.172351   2.457384   4.970453   0.000000
    20  H    2.172355   4.970464   2.457363   4.328196   0.000000
    21  H    7.296949   5.953817   4.533383   7.925751   6.916312
    22  C    1.437955   4.618797   4.618815   2.707542   2.707605
    23  C    2.730337   5.989256   5.502534   3.997761   3.219052
    24  C    2.730244   5.502311   5.989192   3.218804   3.997833
    25  N    3.770051   7.113763   5.989624   5.251143   3.574081
    26  N    3.770004   5.989352   7.113689   3.573848   5.251247
    27  C    4.043389   7.327497   5.427030   5.849620   3.139724
    28  H    4.666977   7.984333   5.614533   6.610246   3.366669
    29  H    3.307411   6.449191   4.414033   5.228540   2.261423
    30  H    4.826238   7.965954   6.151405   6.482107   4.031125
    31  C    5.124351   8.419881   7.423832   6.379542   4.984460
    32  H    5.754252   9.134725   7.685314   7.208357   5.242875
    33  H    5.704804   8.887326   8.018342   6.827717   5.642072
    34  H    5.266810   8.446604   7.874451   6.252524   5.451931
    35  C    4.043438   5.426941   7.327300   3.139935   5.849610
    36  H    4.667826   5.615224   7.985000   3.367639   6.611000
    37  H    3.307329   4.413619   6.448918   2.261286   5.228530
    38  H    4.825568   6.150890   7.964775   4.031089   6.481162
    39  C    5.124272   7.423856   8.419641   4.984576   6.379341
    40  H    5.755867   7.686217   9.136250   5.243961   7.210182
    41  H    5.702764   8.018574   8.884227   5.642616   6.823898
    42  H    5.267145   7.873538   8.447595   5.450778   6.254066
                   21         22         23         24         25
    21  H    0.000000
    22  C    8.681146   0.000000
    23  C    9.723677   1.390924   0.000000
    24  C   10.021101   1.390924   1.405457   0.000000
    25  N   10.269130   2.615698   1.320012   2.637636   0.000000
    26  N   10.999310   2.615769   2.637580   1.320019   3.710272
    27  C    9.596557   3.323316   2.427082   3.829556   1.466500
    28  H    9.873803   4.016553   3.131402   4.511471   2.116103
    29  H    8.515028   2.947944   2.522521   3.819300   2.106803
    30  H   10.074493   4.102389   3.155205   4.498703   2.107351
    31  C   11.728664   3.833327   2.443015   3.381662   1.464316
    32  H   12.067794   4.559350   3.215648   4.240581   2.099889
    33  H   12.161247   4.438876   3.087972   3.969452   2.121507
    34  H   12.213115   3.870883   2.569449   3.064528   2.109087
    35  C   10.889317   3.323505   3.829539   2.427085   5.032166
    36  H   11.286920   4.017386   4.512048   3.131857   5.683071
    37  H    9.884798   2.948070   3.819283   2.522447   5.115142
    38  H   11.587730   4.101952   4.498052   3.154771   5.623665
    39  C   12.394769   3.833259   3.381319   2.442934   4.070533
    40  H   12.910388   4.561208   4.242902   3.217143   4.957260
    41  H   12.969036   4.436375   3.965281   3.085751   4.573116
    42  H   12.511709   3.871482   3.065677   2.570162   3.435476
                   26         27         28         29         30
    26  N    0.000000
    27  C    5.032173   0.000000
    28  H    5.682504   1.099832   0.000000
    29  H    5.115145   1.094164   1.793175   0.000000
    30  H    5.624310   1.099647   1.789445   1.781076   0.000000
    31  C    4.070890   2.489664   2.807656   3.413972   2.719356
    32  H    4.954407   2.671505   2.543765   3.702821   2.927511
    33  H    4.578309   2.859834   3.339600   3.788026   2.652974
    34  H    3.433825   3.410286   3.715302   4.208596   3.756908
    35  C    1.466520   6.254161   6.895058   6.163834   6.903989
    36  H    2.116067   6.895918   7.638247   6.792079   7.424978
    37  H    2.106810   6.163743   6.791145   5.894681   6.891058
    38  H    2.107432   6.903140   7.423092   6.890364   7.614098
    39  C    1.464340   5.514886   6.109434   5.855372   5.955773
    40  H    2.099679   6.365409   7.046336   6.663039   6.702694
    41  H    2.121763   6.032851   6.464818   6.437559   6.562853
    42  H    2.109140   4.869569   5.472686   5.358680   5.177551
                   31         32         33         34         35
    31  C    0.000000
    32  H    1.098903   0.000000
    33  H    1.100581   1.787621   0.000000
    34  H    1.094300   1.776448   1.794276   0.000000
    35  C    5.515113   6.361970   6.038154   4.868062   0.000000
    36  H    6.110264   7.044009   6.471299   5.470585   1.099818
    37  H    5.855560   6.659730   6.442162   5.357701   1.094166
    38  H    5.955312   6.697705   6.567505   5.176292   1.099654
    39  C    3.893515   4.759082   4.255307   3.011468   2.489792
    40  H    4.762423   5.683811   4.939094   3.923011   2.669533
    41  H    4.249635   4.928634   4.758409   3.230097   2.862368
    42  H    3.014368   3.924249   3.237059   2.169187   3.409961
                   36         37         38         39         40
    36  H    0.000000
    37  H    1.793161   0.000000
    38  H    1.789474   1.781053   0.000000
    39  C    2.807916   3.414049   2.719460   0.000000
    40  H    2.542327   3.701411   2.923902   1.098872   0.000000
    41  H    3.343145   3.789746   2.656247   1.100598   1.787570
    42  H    3.713598   4.208480   3.757634   1.094323   1.776314
                   41         42
    41  H    0.000000
    42  H    1.794434   0.000000
 Stoichiometry    C19H21N2(1+)
 Framework group  C1[X(C19H21N2)]
 Deg. of freedom   120
 Full point group                 C1      NOp   1
 Largest Abelian subgroup         C1      NOp   1
 Largest concise Abelian subgroup C1      NOp   1
                         Standard orientation:                         
 ---------------------------------------------------------------------
 Center     Atomic      Atomic             Coordinates (Angstroms)
 Number     Number       Type             X           Y           Z
 ---------------------------------------------------------------------
      1          6           0       -5.924302   -1.175178   -0.282560
      2          6           0       -6.625626    0.000025    0.000251
      3          6           0       -4.530324   -1.177472   -0.278212
      4          6           0       -5.924206    1.175202    0.282951
      5          6           0       -3.810936   -0.000036    0.000021
      6          6           0       -4.530233    1.177435    0.278371
      7          1           0       -7.716547    0.000056    0.000331
      8          1           0       -3.994064   -2.094974   -0.527939
      9          1           0       -6.466302    2.093210    0.514746
     10          1           0       -3.993880    2.094904    0.528010
     11          6           0       -2.333716   -0.000062   -0.000109
     12          6           0       -1.604784    1.119278   -0.452707
     13          6           0       -1.604752   -1.119433    0.452341
     14          6           0       -0.216850    1.125770   -0.449243
     15          6           0       -0.216813   -1.125977    0.448670
     16          6           0        0.504919   -0.000106   -0.000309
     17          1           0       -2.141671    1.985727   -0.840835
     18          1           0       -2.141597   -1.985891    0.840507
     19          1           0        0.315693    1.995203   -0.838189
     20          1           0        0.315745   -1.995465    0.837475
     21          1           0       -6.466484   -2.093156   -0.514265
     22          6           0        1.942874   -0.000086   -0.000402
     23          6           0        3.143323   -0.702637    0.003392
     24          6           0        3.143127    0.702801   -0.003915
     25          7           0        3.787080   -1.855019   -0.001668
     26          7           0        3.786774    1.855252    0.001097
     27          6           0        3.068411   -3.122520   -0.167733
     28          1           0        3.187886   -3.748580    0.728596
     29          1           0        2.005788   -2.927607   -0.341041
     30          1           0        3.471162   -3.663551   -1.036238
     31          6           0        5.245121   -1.944160    0.100275
     32          1           0        5.509149   -2.713998    0.838669
     33          1           0        5.688951   -2.217262   -0.869111
     34          1           0        5.659251   -0.989594    0.439085
     35          6           0        3.068047    3.122616    0.168130
     36          1           0        3.188116    3.749602   -0.727455
     37          1           0        2.005304    2.927538    0.340531
     38          1           0        3.470192    3.662707    1.037509
     39          6           0        5.244950    1.944232   -0.099391
     40          1           0        5.509538    2.718440   -0.832954
     41          1           0        5.688631    2.211256    0.871774
     42          1           0        5.658779    0.991638   -0.444142
 ---------------------------------------------------------------------
 Rotational constants (GHZ):           0.7037808           0.1205812           0.1040104
 Leave Link  202 at Thu Jan 21 03:04:31 2021, MaxMem=  4026531840 cpu:               0.2 elap:               0.1
 (Enter /opt/ohpc/pub/libs/gaussian/g16-A.03/sandybridge/g16/l301.exe)
 Standard basis: TZVP (5D, 7F)
 Ernie: Thresh=  0.10000D-02 Tol=  0.10000D-05 Strict=F.
 There are   546 symmetry adapted cartesian basis functions of A   symmetry.
 There are   525 symmetry adapted basis functions of A   symmetry.
   525 basis functions,   903 primitive gaussians,   546 cartesian basis functions
    74 alpha electrons       74 beta electrons
       nuclear repulsion energy      1487.4602048397 Hartrees.
 IExCor=33909 DFT=T Ex+Corr=LC-wHPBE ExCW=0 ScaHFX=  1.000000
 ScaDFX=  1.000000  1.000000  1.000000  1.000000 ScalE2=  1.000000  1.000000
 IRadAn=      5 IRanWt=     -1 IRanGd=            0 ICorTp=0 IEmpDi=  4
 HFx  wShort=  0.000000 wLong=  0.186400 cFull=  0.000000 cShort=  0.000000 cLong=  1.000000
 DFx  wShort=  0.000000 wLong=  0.186400 cFull=  0.000000 cShort=  1.000000 cLong=  0.000000
 NAtoms=   42 NActive=   42 NUniq=   42 SFac= 1.00D+00 NAtFMM=   60 NAOKFM=F Big=F
 Integral buffers will be    131072 words long.
 Raffenetti 2 integral format.
 Two-electron integral symmetry is turned on.
 Leave Link  301 at Thu Jan 21 03:04:32 2021, MaxMem=  4026531840 cpu:               0.4 elap:               0.1
 (Enter /opt/ohpc/pub/libs/gaussian/g16-A.03/sandybridge/g16/l302.exe)
 NPDir=0 NMtPBC=     1 NCelOv=     1 NCel=       1 NClECP=     1 NCelD=      1
         NCelK=      1 NCelE2=     1 NClLst=     1 CellRange=     0.0.
 One-electron integrals computed using PRISM.
 One-electron integral symmetry used in STVInt
 NBasis=   525 RedAO= T EigKep=  8.06D-06  NBF=   525
 NBsUse=   525 1.00D-06 EigRej= -1.00D+00 NBFU=   525
 Precomputing XC quadrature grid using
 IXCGrd= 4 IRadAn=           5 IRanWt=          -1 IRanGd=           0 AccXCQ= 0.00D+00.
 Generated NRdTot=       0 NPtTot=           0 NUsed=           0 NTot=          32
 NSgBfM=   523   523   523   523   523 MxSgAt=    42 MxSgA2=    42.
 Leave Link  302 at Thu Jan 21 03:04:32 2021, MaxMem=  4026531840 cpu:               7.0 elap:               0.9
 (Enter /opt/ohpc/pub/libs/gaussian/g16-A.03/sandybridge/g16/l303.exe)
 DipDrv:  MaxL=1.
 Leave Link  303 at Thu Jan 21 03:04:33 2021, MaxMem=  4026531840 cpu:               0.7 elap:               0.2
 (Enter /opt/ohpc/pub/libs/gaussian/g16-A.03/sandybridge/g16/l401.exe)
 ExpMin= 9.52D-02 ExpMax= 1.97D+04 ExpMxC= 6.73D+02 IAcc=3 IRadAn=         5 AccDes= 0.00D+00
 Harris functional with IExCor=33909 and IRadAn=       5 diagonalized for initial guess.
 HarFok:  IExCor=33909 AccDes= 0.00D+00 IRadAn=         5 IDoV= 1 UseB2=F ITyADJ=14
 ICtDFT=  3500011 ScaDFX=  1.000000  1.000000  1.000000  1.000000
 FoFCou: FMM=F IPFlag=           0 FMFlag=      100000 FMFlg1=           0
         NFxFlg=           0 DoJE=T BraDBF=F KetDBF=T FulRan=T
         wScrn=  0.000000 ICntrl=       500 IOpCl=  0 I1Cent=   200000004 NGrid=           0
         NMat0=    1 NMatS0=      1 NMatT0=    0 NMatD0=    1 NMtDS0=    0 NMtDT0=    0
 Petite list used in FoFCou.
 Harris En= -830.649914555528    
 JPrj=0 DoOrth=F DoCkMO=F.
 Leave Link  401 at Thu Jan 21 03:04:38 2021, MaxMem=  4026531840 cpu:              39.0 elap:               4.9
 (Enter /opt/ohpc/pub/libs/gaussian/g16-A.03/sandybridge/g16/l502.exe)
 Integral symmetry usage will be decided dynamically.
 Closed shell SCF:
 Using DIIS extrapolation, IDIIS=    10.
 NGot=  4026531840 LenX=  4025925692 LenY=  4025627030
 Requested convergence on RMS density matrix=1.00D-06 within  32 cycles.
 Requested convergence on MAX density matrix=1.00D-04.
 Requested convergence on             energy=1.00D-04.
 Virtual orbitals will be shifted by   0.500 hartree.
 No special actions if energy rises.
 Dynamic level shift is on during FON iterations.

 Cycle   1  Pass 1  IDiag  1:
 FoFJK:  IHMeth= 1 ICntrl=       0 DoSepK=T KAlg= 0 I1Cent=           0 FoldK=F
 IRaf=         1 NMat=       1 IRICut=       1 DoRegI=T DoRafI=F ISym2E= 0 IDoP0=0 IntGTp=1.
 FoFCou: FMM=F IPFlag=           0 FMFlag=      100000 FMFlg1=           0
         NFxFlg=           0 DoJE=T BraDBF=F KetDBF=F FulRan=T
         wScrn=  0.000000 ICntrl=       500 IOpCl=  0 I1Cent=           0 NGrid=           0
         NMat0=    1 NMatS0=      1 NMatT0=    0 NMatD0=    1 NMtDS0=    0 NMtDT0=    0
 Symmetry not used in FoFCou.
 E= -845.033336591131    
 DIIS: error= 3.08D-02 at cycle   1 NSaved=   1.
 NSaved= 1 IEnMin= 1 EnMin= -845.033336591131     IErMin= 1 ErrMin= 3.08D-02
 ErrMax= 3.08D-02  0.00D+00 EMaxC= 1.00D+00 BMatC= 3.07D-01 BMatP= 3.07D-01
 IDIUse=1 WtCom= 1.00D+00 WtEn= 0.00D+00
 Coeff-Com:  0.100D+01
 Coeff:      0.100D+01
 Gap=     0.354 Goal=   None    Shift=    0.500
 T= 1512. Gap= 0.659 NK=0 IS=   75 IE=  525 IFin=   74
          NO(<0.9)=   0  NV(>0.1)=   0     74.00e < EF      0.00e >EF  Err=0.0D+00
 GapD=    0.354 DampG=1.000 DampE=0.500 DampFc=0.5000 IDamp=-1.
 Damping current iteration by 5.00D-01
 RMSDP=2.39D-03 MaxDP=1.08D-01              OVMax= 6.50D-02

 Cycle   2  Pass 1  IDiag  1:
 E= -845.222876714367     Delta-E=       -0.189540123237 Rises=F Damp=T
 DIIS: error= 1.26D-02 at cycle   2 NSaved=   2.
 NSaved= 2 IEnMin= 2 EnMin= -845.222876714367     IErMin= 2 ErrMin= 1.26D-02
 ErrMax= 1.26D-02  0.00D+00 EMaxC= 1.00D+00 BMatC= 5.56D-02 BMatP= 3.07D-01
 IDIUse=1 WtCom= 1.00D+00 WtEn= 0.00D+00
 Coeff-Com: -0.608D+00 0.161D+01
 Coeff:     -0.608D+00 0.161D+01
 Gap=     0.243 Goal=   None    Shift=    0.500
 T= 1381. Gap= 0.733 NK=0 IS=   75 IE=  525 IFin=   74
          NO(<0.9)=   0  NV(>0.1)=   0     74.00e < EF      0.00e >EF  Err=0.0D+00
 GapD=    0.243 DampG=1.000 DampE=0.500 DampFc=0.5000 IDamp=-1.
 Damping current iteration by 5.00D-01
 RMSDP=1.29D-03 MaxDP=5.05D-02 DE=-1.90D-01 OVMax= 1.84D-02

 Cycle   3  Pass 1  IDiag  1:
 E= -845.290071957055     Delta-E=       -0.067195242688 Rises=F Damp=T
 DIIS: error= 7.59D-03 at cycle   3 NSaved=   3.
 NSaved= 3 IEnMin= 3 EnMin= -845.290071957055     IErMin= 3 ErrMin= 7.59D-03
 ErrMax= 7.59D-03  0.00D+00 EMaxC= 1.00D+00 BMatC= 1.14D-02 BMatP= 5.56D-02
 IDIUse=1 WtCom= 1.00D+00 WtEn= 0.00D+00
 Coeff-Com:  0.832D-01-0.103D+01 0.195D+01
 Coeff:      0.832D-01-0.103D+01 0.195D+01
 Gap=     0.242 Goal=   None    Shift=    0.500
 T= 1156. Gap= 0.742 NK=0 IS=   75 IE=  525 IFin=   74
          NO(<0.9)=   0  NV(>0.1)=   0     74.00e < EF      0.00e >EF  Err=0.0D+00
 GapD=    0.242 DampG=1.000 DampE=1.000 DampFc=1.0000 IDamp=-1.
 RMSDP=7.01D-04 MaxDP=3.05D-02 DE=-6.72D-02 OVMax= 1.33D-02

 Cycle   4  Pass 1  IDiag  1:
 E= -845.346780332521     Delta-E=       -0.056708375466 Rises=F Damp=F
 DIIS: error= 3.11D-03 at cycle   4 NSaved=   4.
 NSaved= 4 IEnMin= 4 EnMin= -845.346780332521     IErMin= 4 ErrMin= 3.11D-03
 ErrMax= 3.11D-03  0.00D+00 EMaxC= 1.00D+00 BMatC= 4.67D-04 BMatP= 1.14D-02
 IDIUse=1 WtCom= 1.00D+00 WtEn= 0.00D+00
 Coeff-Com:  0.852D-01-0.277D+00 0.264D+00 0.927D+00
 Coeff:      0.852D-01-0.277D+00 0.264D+00 0.927D+00
 Gap=     0.243 Goal=   None    Shift=    0.500
 T=  685. Gap= 0.743 NK=0 IS=   75 IE=  525 IFin=   74
          NO(<0.9)=   0  NV(>0.1)=   0     74.00e < EF      0.00e >EF  Err=0.0D+00
 GapD=    0.243 DampG=1.000 DampE=1.000 DampFc=1.0000 IDamp=-1.
 RMSDP=1.26D-04 MaxDP=4.88D-03 DE=-5.67D-02 OVMax= 9.51D-03

 Cycle   5  Pass 1  IDiag  1:
 E= -845.347639358516     Delta-E=       -0.000859025995 Rises=F Damp=F
 DIIS: error= 2.52D-03 at cycle   5 NSaved=   5.
 NSaved= 5 IEnMin= 5 EnMin= -845.347639358516     IErMin= 5 ErrMin= 2.52D-03
 ErrMax= 2.52D-03  0.00D+00 EMaxC= 1.00D+00 BMatC= 1.09D-04 BMatP= 4.67D-04
 IDIUse=1 WtCom= 1.00D+00 WtEn= 0.00D+00
 Coeff-Com: -0.115D-02 0.134D+00-0.287D+00-0.227D+00 0.138D+01
 Coeff:     -0.115D-02 0.134D+00-0.287D+00-0.227D+00 0.138D+01
 Gap=     0.246 Goal=   None    Shift=    0.500
 T=  345. Gap= 0.746 NK=0 IS=   75 IE=  525 IFin=   74
          NO(<0.9)=   0  NV(>0.1)=   0     74.00e < EF      0.00e >EF  Err=0.0D+00
 GapD=    0.246 DampG=1.000 DampE=1.000 DampFc=1.0000 IDamp=-1.
 RMSDP=9.04D-05 MaxDP=3.13D-03 DE=-8.59D-04 OVMax= 8.04D-03

 Cycle   6  Pass 1  IDiag  1:
 E= -845.348039441100     Delta-E=       -0.000400082584 Rises=F Damp=F
 DIIS: error= 1.88D-03 at cycle   6 NSaved=   6.
 NSaved= 6 IEnMin= 6 EnMin= -845.348039441100     IErMin= 6 ErrMin= 1.88D-03
 ErrMax= 1.88D-03  0.00D+00 EMaxC= 1.00D+00 BMatC= 4.67D-05 BMatP= 1.09D-04
 IDIUse=1 WtCom= 1.00D+00 WtEn= 0.00D+00
 Coeff-Com: -0.304D-01 0.121D+00-0.149D+00-0.379D+00-0.272D-01 0.146D+01
 Coeff:     -0.304D-01 0.121D+00-0.149D+00-0.379D+00-0.272D-01 0.146D+01
 Gap=     0.247 Goal=   None    Shift=    0.500
 T=    6. Gap= 0.747 NK=0 IS=   75 IE=  525 IFin=   74
          NO(<0.9)=   0  NV(>0.1)=   0     74.00e < EF      0.00e >EF  Err=0.0D+00
 GapD=    0.247 DampG=1.000 DampE=1.000 DampFc=1.0000 IDamp=-1.
 RMSDP=5.79D-05 MaxDP=2.19D-03 DE=-4.00D-04 OVMax= 6.89D-03

 Cycle   7  Pass 1  IDiag  1:
 E= -845.348260663193     Delta-E=       -0.000221222093 Rises=F Damp=F
 DIIS: error= 1.36D-03 at cycle   7 NSaved=   7.
 NSaved= 7 IEnMin= 7 EnMin= -845.348260663193     IErMin= 7 ErrMin= 1.36D-03
 ErrMax= 1.36D-03  0.00D+00 EMaxC= 1.00D+00 BMatC= 2.18D-05 BMatP= 4.67D-05
 IDIUse=1 WtCom= 1.00D+00 WtEn= 0.00D+00
 Coeff-Com: -0.104D-01-0.149D-01 0.624D-01-0.106D-01-0.659D+00-0.245D+00
 Coeff-Com:  0.188D+01
 Coeff:     -0.104D-01-0.149D-01 0.624D-01-0.106D-01-0.659D+00-0.245D+00
 Coeff:      0.188D+01
 Gap=     0.248 Goal=   None    Shift=    0.500
 GapD=    0.248 DampG=1.000 DampE=1.000 DampFc=1.0000 IDamp=-1.
 RMSDP=3.95D-05 MaxDP=2.07D-03 DE=-2.21D-04 OVMax= 5.74D-03

 Cycle   8  Pass 1  IDiag  1:
 E= -845.348383793342     Delta-E=       -0.000123130149 Rises=F Damp=F
 DIIS: error= 9.57D-04 at cycle   8 NSaved=   8.
 NSaved= 8 IEnMin= 8 EnMin= -845.348383793342     IErMin= 8 ErrMin= 9.57D-04
 ErrMax= 9.57D-04  0.00D+00 EMaxC= 1.00D+00 BMatC= 1.07D-05 BMatP= 2.18D-05
 IDIUse=1 WtCom= 1.00D+00 WtEn= 0.00D+00
 Coeff-Com:  0.234D-02-0.209D-01 0.319D-01 0.150D+00-0.335D+00-0.600D+00
 Coeff-Com:  0.864D-01 0.168D+01
 Coeff:      0.234D-02-0.209D-01 0.319D-01 0.150D+00-0.335D+00-0.600D+00
 Coeff:      0.864D-01 0.168D+01
 Gap=     0.248 Goal=   None    Shift=    0.500
 RMSDP=2.48D-05 MaxDP=1.91D-03 DE=-1.23D-04 OVMax= 4.33D-03

 Cycle   9  Pass 1  IDiag  1:
 E= -845.348445684293     Delta-E=       -0.000061890951 Rises=F Damp=F
 DIIS: error= 6.55D-04 at cycle   9 NSaved=   9.
 NSaved= 9 IEnMin= 9 EnMin= -845.348445684293     IErMin= 9 ErrMin= 6.55D-04
 ErrMax= 6.55D-04  0.00D+00 EMaxC= 1.00D+00 BMatC= 5.27D-06 BMatP= 1.07D-05
 IDIUse=1 WtCom= 1.00D+00 WtEn= 0.00D+00
 Coeff-Com:  0.266D-02 0.159D-01-0.418D-01 0.100D+00 0.111D+00-0.263D+00
 Coeff-Com: -0.912D+00 0.236D+00 0.175D+01
 Coeff:      0.266D-02 0.159D-01-0.418D-01 0.100D+00 0.111D+00-0.263D+00
 Coeff:     -0.912D+00 0.236D+00 0.175D+01
 Gap=     0.248 Goal=   None    Shift=    0.500
 RMSDP=1.66D-05 MaxDP=1.51D-03 DE=-6.19D-05 OVMax= 3.25D-03

 Cycle  10  Pass 1  IDiag  1:
 E= -845.348475884047     Delta-E=       -0.000030199754 Rises=F Damp=F
 DIIS: error= 4.44D-04 at cycle  10 NSaved=  10.
 NSaved=10 IEnMin=10 EnMin= -845.348475884047     IErMin=10 ErrMin= 4.44D-04
 ErrMax= 4.44D-04  0.00D+00 EMaxC= 1.00D+00 BMatC= 2.56D-06 BMatP= 5.27D-06
 IDIUse=1 WtCom= 1.00D+00 WtEn= 0.00D+00
 Coeff-Com: -0.283D-02 0.262D-01-0.429D-01-0.891D-02 0.134D+00 0.113D+00
 Coeff-Com: -0.363D+00-0.626D+00-0.234D+00 0.200D+01
 Coeff:     -0.283D-02 0.262D-01-0.429D-01-0.891D-02 0.134D+00 0.113D+00
 Coeff:     -0.363D+00-0.626D+00-0.234D+00 0.200D+01
 Gap=     0.248 Goal=   None    Shift=    0.500
 RMSDP=1.05D-05 MaxDP=9.30D-04 DE=-3.02D-05 OVMax= 2.33D-03

 Cycle  11  Pass 1  IDiag  1:
 E= -845.348489777854     Delta-E=       -0.000013893806 Rises=F Damp=F
 DIIS: error= 2.93D-04 at cycle  11 NSaved=  11.
 NSaved=11 IEnMin=11 EnMin= -845.348489777854     IErMin=11 ErrMin= 2.93D-04
 ErrMax= 2.93D-04  0.00D+00 EMaxC= 1.00D+00 BMatC= 1.23D-06 BMatP= 2.56D-06
 IDIUse=1 WtCom= 1.00D+00 WtEn= 0.00D+00
 Coeff-Com: -0.306D-02 0.995D-02-0.953D-02-0.291D-01-0.110D-01 0.165D+00
 Coeff-Com:  0.197D+00-0.444D+00-0.709D+00-0.464D+00 0.230D+01
 Coeff:     -0.306D-02 0.995D-02-0.953D-02-0.291D-01-0.110D-01 0.165D+00
 Coeff:      0.197D+00-0.444D+00-0.709D+00-0.464D+00 0.230D+01
 Gap=     0.249 Goal=   None    Shift=    0.500
 RMSDP=7.05D-06 MaxDP=6.68D-04 DE=-1.39D-05 OVMax= 1.62D-03

 Cycle  12  Pass 1  IDiag  1:
 E= -845.348495949155     Delta-E=       -0.000006171302 Rises=F Damp=F
 DIIS: error= 1.99D-04 at cycle  12 NSaved=  12.
 NSaved=12 IEnMin=12 EnMin= -845.348495949155     IErMin=12 ErrMin= 1.99D-04
 ErrMax= 1.99D-04  0.00D+00 EMaxC= 1.00D+00 BMatC= 6.99D-07 BMatP= 1.23D-06
 IDIUse=1 WtCom= 1.00D+00 WtEn= 0.00D+00
 Coeff-Com: -0.115D-02 0.190D-03 0.336D-02-0.377D-02-0.627D-01 0.725D-01
 Coeff-Com:  0.222D+00-0.414D-01-0.267D+00-0.156D+01 0.124D+01 0.139D+01
 Coeff:     -0.115D-02 0.190D-03 0.336D-02-0.377D-02-0.627D-01 0.725D-01
 Coeff:      0.222D+00-0.414D-01-0.267D+00-0.156D+01 0.124D+01 0.139D+01
 Gap=     0.249 Goal=   None    Shift=    0.500
 RMSDP=4.13D-06 MaxDP=3.02D-04 DE=-6.17D-06 OVMax= 1.12D-03

 Cycle  13  Pass 1  IDiag  1:
 E= -845.348498771306     Delta-E=       -0.000002822150 Rises=F Damp=F
 DIIS: error= 1.31D-04 at cycle  13 NSaved=  13.
 NSaved=13 IEnMin=13 EnMin= -845.348498771306     IErMin=13 ErrMin= 1.31D-04
 ErrMax= 1.31D-04  0.00D+00 EMaxC= 1.00D+00 BMatC= 3.38D-07 BMatP= 6.99D-07
 IDIUse=1 WtCom= 1.00D+00 WtEn= 0.00D+00
 Coeff-Com:  0.365D-03-0.137D-02 0.127D-02 0.152D-01-0.271D-01-0.323D-01
 Coeff-Com:  0.553D-02 0.195D+00 0.235D+00-0.910D+00 0.432D-01-0.977D+00
 Coeff-Com:  0.245D+01
 Coeff:      0.365D-03-0.137D-02 0.127D-02 0.152D-01-0.271D-01-0.323D-01
 Coeff:      0.553D-02 0.195D+00 0.235D+00-0.910D+00 0.432D-01-0.977D+00
 Coeff:      0.245D+01
 Gap=     0.249 Goal=   None    Shift=    0.500
 RMSDP=2.68D-06 MaxDP=1.31D-04 DE=-2.82D-06 OVMax= 7.67D-04

 Cycle  14  Pass 1  IDiag  1:
 E= -845.348500007938     Delta-E=       -0.000001236633 Rises=F Damp=F
 DIIS: error= 8.68D-05 at cycle  14 NSaved=  14.
 NSaved=14 IEnMin=14 EnMin= -845.348500007938     IErMin=14 ErrMin= 8.68D-05
 ErrMax= 8.68D-05  0.00D+00 EMaxC= 1.00D+00 BMatC= 1.80D-07 BMatP= 3.38D-07
 IDIUse=1 WtCom= 1.00D+00 WtEn= 0.00D+00
 Coeff-Com:  0.490D-03 0.826D-05-0.186D-02 0.104D-01 0.781D-02-0.399D-01
 Coeff-Com: -0.744D-01 0.157D+00 0.237D+00-0.132D+00-0.295D+00-0.165D+01
 Coeff-Com:  0.129D+01 0.149D+01
 Coeff:      0.490D-03 0.826D-05-0.186D-02 0.104D-01 0.781D-02-0.399D-01
 Coeff:     -0.744D-01 0.157D+00 0.237D+00-0.132D+00-0.295D+00-0.165D+01
 Coeff:      0.129D+01 0.149D+01
 Gap=     0.249 Goal=   None    Shift=    0.500
 RMSDP=1.71D-06 MaxDP=5.72D-05 DE=-1.24D-06 OVMax= 5.23D-04

 Cycle  15  Pass 1  IDiag  1:
 E= -845.348500570269     Delta-E=       -0.000000562331 Rises=F Damp=F
 DIIS: error= 5.69D-05 at cycle  15 NSaved=  15.
 NSaved=15 IEnMin=15 EnMin= -845.348500570269     IErMin=15 ErrMin= 5.69D-05
 ErrMax= 5.69D-05  0.00D+00 EMaxC= 1.00D+00 BMatC= 8.46D-08 BMatP= 1.80D-07
 IDIUse=1 WtCom= 1.00D+00 WtEn= 0.00D+00
 Coeff-Com: -0.148D-03 0.986D-03-0.151D-02-0.329D-02 0.101D-01 0.110D-01
 Coeff-Com: -0.112D-01-0.340D-01-0.556D-01 0.212D+00 0.698D-01-0.194D+00
 Coeff-Com: -0.439D+00-0.163D+01 0.307D+01
 Coeff:     -0.148D-03 0.986D-03-0.151D-02-0.329D-02 0.101D-01 0.110D-01
 Coeff:     -0.112D-01-0.340D-01-0.556D-01 0.212D+00 0.698D-01-0.194D+00
 Coeff:     -0.439D+00-0.163D+01 0.307D+01
 Gap=     0.249 Goal=   None    Shift=    0.500
 RMSDP=1.07D-06 MaxDP=3.72D-05 DE=-5.62D-07 OVMax= 3.48D-04

 Cycle  16  Pass 1  IDiag  1:
 E= -845.348500815290     Delta-E=       -0.000000245021 Rises=F Damp=F
 DIIS: error= 3.76D-05 at cycle  16 NSaved=  16.
 NSaved=16 IEnMin=16 EnMin= -845.348500815290     IErMin=16 ErrMin= 3.76D-05
 ErrMax= 3.76D-05  0.00D+00 EMaxC= 1.00D+00 BMatC= 4.02D-08 BMatP= 8.46D-08
 IDIUse=1 WtCom= 1.00D+00 WtEn= 0.00D+00
 Coeff-Com: -0.149D-03 0.378D-03-0.258D-03-0.330D-02 0.244D-02 0.151D-01
 Coeff-Com:  0.947D-02-0.396D-01-0.768D-01 0.985D-01 0.141D+00 0.209D+00
 Coeff-Com: -0.564D+00-0.136D+01 0.104D+01 0.153D+01
 Coeff:     -0.149D-03 0.378D-03-0.258D-03-0.330D-02 0.244D-02 0.151D-01
 Coeff:      0.947D-02-0.396D-01-0.768D-01 0.985D-01 0.141D+00 0.209D+00
 Coeff:     -0.564D+00-0.136D+01 0.104D+01 0.153D+01
 Gap=     0.249 Goal=   None    Shift=    0.500
 RMSDP=6.83D-07 MaxDP=1.71D-05 DE=-2.45D-07 OVMax= 2.32D-04

 SCF Done:  E(RLC-wHPBE) =  -845.348500815     A.U. after   16 cycles
            NFock= 16  Conv=0.68D-06     -V/T= 2.0054
 KE= 8.408486708665D+02 PE=-4.918351309291D+03 EE= 1.744693932769D+03
 Leave Link  502 at Thu Jan 21 03:12:04 2021, MaxMem=  4026531840 cpu:            3563.3 elap:             446.6
 (Enter /opt/ohpc/pub/libs/gaussian/g16-A.03/sandybridge/g16/l508.exe)
 QCSCF skips out because SCF is already converged.
 Leave Link  508 at Thu Jan 21 03:12:04 2021, MaxMem=  4026531840 cpu:               0.1 elap:               0.0
 (Enter /opt/ohpc/pub/libs/gaussian/g16-A.03/sandybridge/g16/l601.exe)
 Copying SCF densities to generalized density rwf, IOpCl= 0 IROHF=0.

 **********************************************************************

            Population analysis using the SCF density.

 **********************************************************************

 Orbital symmetries:
       Occupied  (A) (A) (A) (A) (A) (A) (A) (A) (A) (A) (A) (A)
                 (A) (A) (A) (A) (A) (A) (A) (A) (A) (A) (A) (A)
                 (A) (A) (A) (A) (A) (A) (A) (A) (A) (A) (A) (A)
                 (A) (A) (A) (A) (A) (A) (A) (A) (A) (A) (A) (A)
                 (A) (A) (A) (A) (A) (A) (A) (A) (A) (A) (A) (A)
                 (A) (A) (A) (A) (A) (A) (A) (A) (A) (A) (A) (A)
                 (A) (A)
       Virtual   (A) (A) (A) (A) (A) (A) (A) (A) (A) (A) (A) (A)
                 (A) (A) (A) (A) (A) (A) (A) (A) (A) (A) (A) (A)
                 (A) (A) (A) (A) (A) (A) (A) (A) (A) (A) (A) (A)
                 (A) (A) (A) (A) (A) (A) (A) (A) (A) (A) (A) (A)
                 (A) (A) (A) (A) (A) (A) (A) (A) (A) (A) (A) (A)
                 (A) (A) (A) (A) (A) (A) (A) (A) (A) (A) (A) (A)
                 (A) (A) (A) (A) (A) (A) (A) (A) (A) (A) (A) (A)
                 (A) (A) (A) (A) (A) (A) (A) (A) (A) (A) (A) (A)
                 (A) (A) (A) (A) (A) (A) (A) (A) (A) (A) (A) (A)
                 (A) (A) (A) (A) (A) (A) (A) (A) (A) (A) (A) (A)
                 (A) (A) (A) (A) (A) (A) (A) (A) (A) (A) (A) (A)
                 (A) (A) (A) (A) (A) (A) (A) (A) (A) (A) (A) (A)
                 (A) (A) (A) (A) (A) (A) (A) (A) (A) (A) (A) (A)
                 (A) (A) (A) (A) (A) (A) (A) (A) (A) (A) (A) (A)
                 (A) (A) (A) (A) (A) (A) (A) (A) (A) (A) (A) (A)
                 (A) (A) (A) (A) (A) (A) (A) (A) (A) (A) (A) (A)
                 (A) (A) (A) (A) (A) (A) (A) (A) (A) (A) (A) (A)
                 (A) (A) (A) (A) (A) (A) (A) (A) (A) (A) (A) (A)
                 (A) (A) (A) (A) (A) (A) (A) (A) (A) (A) (A) (A)
                 (A) (A) (A) (A) (A) (A) (A) (A) (A) (A) (A) (A)
                 (A) (A) (A) (A) (A) (A) (A) (A) (A) (A) (A) (A)
                 (A) (A) (A) (A) (A) (A) (A) (A) (A) (A) (A) (A)
                 (A) (A) (A) (A) (A) (A) (A) (A) (A) (A) (A) (A)
                 (A) (A) (A) (A) (A) (A) (A) (A) (A) (A) (A) (A)
                 (A) (A) (A) (A) (A) (A) (A) (A) (A) (A) (A) (A)
                 (A) (A) (A) (A) (A) (A) (A) (A) (A) (A) (A) (A)
                 (A) (A) (A) (A) (A) (A) (A) (A) (A) (A) (A) (A)
                 (A) (A) (A) (A) (A) (A) (A) (A) (A) (A) (A) (A)
                 (A) (A) (A) (A) (A) (A) (A) (A) (A) (A) (A) (A)
                 (A) (A) (A) (A) (A) (A) (A) (A) (A) (A) (A) (A)
                 (A) (A) (A) (A) (A) (A) (A) (A) (A) (A) (A) (A)
                 (A) (A) (A) (A) (A) (A) (A) (A) (A) (A) (A) (A)
                 (A) (A) (A) (A) (A) (A) (A) (A) (A) (A) (A) (A)
                 (A) (A) (A) (A) (A) (A) (A) (A) (A) (A) (A) (A)
                 (A) (A) (A) (A) (A) (A) (A) (A) (A) (A) (A) (A)
                 (A) (A) (A) (A) (A) (A) (A) (A) (A) (A) (A) (A)
                 (A) (A) (A) (A) (A) (A) (A) (A) (A) (A) (A) (A)
                 (A) (A) (A) (A) (A) (A) (A)
 The electronic state is 1-A.
 Alpha  occ. eigenvalues --  -14.29034 -14.29033 -10.21633 -10.21600 -10.17969
 Alpha  occ. eigenvalues --  -10.16006 -10.16005 -10.15600 -10.15600 -10.13718
 Alpha  occ. eigenvalues --  -10.11944 -10.11853 -10.11852 -10.10537 -10.10535
 Alpha  occ. eigenvalues --  -10.09294 -10.07896 -10.07894 -10.07335 -10.07323
 Alpha  occ. eigenvalues --  -10.07272  -1.16135  -1.13682  -1.08098  -1.01271
 Alpha  occ. eigenvalues --   -0.97430  -0.92884  -0.90874  -0.90682  -0.90153
 Alpha  occ. eigenvalues --   -0.89261  -0.88246  -0.86487  -0.86438  -0.79725
 Alpha  occ. eigenvalues --   -0.77460  -0.73695  -0.73686  -0.72567  -0.72391
 Alpha  occ. eigenvalues --   -0.71896  -0.68555  -0.68097  -0.67436  -0.66196
 Alpha  occ. eigenvalues --   -0.66170  -0.63517  -0.62458  -0.60991  -0.60768
 Alpha  occ. eigenvalues --   -0.60556  -0.59643  -0.59185  -0.59020  -0.58811
 Alpha  occ. eigenvalues --   -0.58225  -0.58220  -0.57763  -0.57157  -0.56840
 Alpha  occ. eigenvalues --   -0.55314  -0.55293  -0.54238  -0.52430  -0.51705
 Alpha  occ. eigenvalues --   -0.50748  -0.49115  -0.48022  -0.47461  -0.46165
 Alpha  occ. eigenvalues --   -0.43560  -0.41596  -0.39960  -0.37922
 Alpha virt. eigenvalues --   -0.13067  -0.07729  -0.05619  -0.05389  -0.04479
 Alpha virt. eigenvalues --   -0.04124  -0.01585  -0.01186  -0.00428   0.00517
 Alpha virt. eigenvalues --    0.00688   0.01615   0.02660   0.03143   0.03485
 Alpha virt. eigenvalues --    0.03859   0.04178   0.04528   0.04654   0.05019
 Alpha virt. eigenvalues --    0.05520   0.05888   0.06463   0.06722   0.06928
 Alpha virt. eigenvalues --    0.07387   0.08602   0.09118   0.09329   0.09482
 Alpha virt. eigenvalues --    0.09690   0.10171   0.11395   0.11653   0.11777
 Alpha virt. eigenvalues --    0.12093   0.12124   0.12675   0.13016   0.13109
 Alpha virt. eigenvalues --    0.14247   0.14889   0.15414   0.17256   0.17804
 Alpha virt. eigenvalues --    0.18073   0.18266   0.19019   0.19564   0.20219
 Alpha virt. eigenvalues --    0.20297   0.20678   0.21102   0.21696   0.22029
 Alpha virt. eigenvalues --    0.22286   0.22476   0.22786   0.23321   0.23709
 Alpha virt. eigenvalues --    0.23918   0.24309   0.24434   0.25423   0.25793
 Alpha virt. eigenvalues --    0.25925   0.26015   0.26821   0.28063   0.28096
 Alpha virt. eigenvalues --    0.29272   0.29684   0.30096   0.30132   0.30188
 Alpha virt. eigenvalues --    0.31033   0.31488   0.31754   0.32942   0.33259
 Alpha virt. eigenvalues --    0.33568   0.34354   0.34359   0.34937   0.35974
 Alpha virt. eigenvalues --    0.36311   0.36339   0.36716   0.37060   0.37225
 Alpha virt. eigenvalues --    0.37549   0.38113   0.38136   0.38341   0.38719
 Alpha virt. eigenvalues --    0.39292   0.39725   0.40236   0.40286   0.40991
 Alpha virt. eigenvalues --    0.41451   0.41640   0.41872   0.42463   0.42699
 Alpha virt. eigenvalues --    0.42852   0.43214   0.44296   0.44458   0.45375
 Alpha virt. eigenvalues --    0.45835   0.46498   0.46741   0.47768   0.47958
 Alpha virt. eigenvalues --    0.48071   0.48444   0.49099   0.49985   0.50056
 Alpha virt. eigenvalues --    0.50410   0.51018   0.52289   0.52971   0.53847
 Alpha virt. eigenvalues --    0.54210   0.54677   0.56201   0.57105   0.57681
 Alpha virt. eigenvalues --    0.58126   0.58349   0.59469   0.60335   0.60998
 Alpha virt. eigenvalues --    0.62808   0.63230   0.64119   0.64319   0.64937
 Alpha virt. eigenvalues --    0.66338   0.66472   0.66862   0.66865   0.67789
 Alpha virt. eigenvalues --    0.69738   0.69796   0.72627   0.72818   0.74674
 Alpha virt. eigenvalues --    0.75050   0.78181   0.79501   0.81104   0.81145
 Alpha virt. eigenvalues --    0.84458   0.86260   1.04670   1.05026   1.09486
 Alpha virt. eigenvalues --    1.12066   1.13331   1.13543   1.15230   1.16214
 Alpha virt. eigenvalues --    1.16714   1.16841   1.17406   1.18133   1.18720
 Alpha virt. eigenvalues --    1.19571   1.20330   1.21045   1.21292   1.21794
 Alpha virt. eigenvalues --    1.22443   1.22819   1.23334   1.23701   1.24350
 Alpha virt. eigenvalues --    1.24431   1.25068   1.25150   1.25867   1.25996
 Alpha virt. eigenvalues --    1.26341   1.26609   1.27345   1.27476   1.27677
 Alpha virt. eigenvalues --    1.27864   1.28004   1.28582   1.29413   1.29980
 Alpha virt. eigenvalues --    1.31806   1.33276   1.34670   1.35509   1.35687
 Alpha virt. eigenvalues --    1.36139   1.36913   1.36939   1.37355   1.37608
 Alpha virt. eigenvalues --    1.37968   1.38280   1.39845   1.40003   1.40134
 Alpha virt. eigenvalues --    1.40411   1.40570   1.41107   1.41711   1.42302
 Alpha virt. eigenvalues --    1.42639   1.42909   1.43330   1.43938   1.44019
 Alpha virt. eigenvalues --    1.44539   1.45010   1.45077   1.45690   1.46063
 Alpha virt. eigenvalues --    1.46517   1.46601   1.46834   1.47798   1.48626
 Alpha virt. eigenvalues --    1.49280   1.49435   1.50355   1.50772   1.52183
 Alpha virt. eigenvalues --    1.52696   1.53596   1.54247   1.54679   1.55261
 Alpha virt. eigenvalues --    1.55667   1.56846   1.57473   1.58587   1.59374
 Alpha virt. eigenvalues --    1.60419   1.61342   1.62511   1.62591   1.63716
 Alpha virt. eigenvalues --    1.65250   1.65346   1.65861   1.67052   1.67123
 Alpha virt. eigenvalues --    1.67709   1.68338   1.69090   1.69403   1.69774
 Alpha virt. eigenvalues --    1.69805   1.71804   1.72020   1.72178   1.72562
 Alpha virt. eigenvalues --    1.73413   1.73592   1.73634   1.74897   1.75921
 Alpha virt. eigenvalues --    1.76041   1.77638   1.79340   1.79382   1.79723
 Alpha virt. eigenvalues --    1.80667   1.82502   1.82727   1.82766   1.84251
 Alpha virt. eigenvalues --    1.84852   1.85039   1.86636   1.87038   1.88072
 Alpha virt. eigenvalues --    1.89067   1.90141   1.90678   1.90834   1.92258
 Alpha virt. eigenvalues --    1.92696   1.93718   1.94522   1.95525   1.95674
 Alpha virt. eigenvalues --    1.95989   1.96767   1.99234   2.00013   2.00829
 Alpha virt. eigenvalues --    2.01385   2.03186   2.05005   2.05010   2.06694
 Alpha virt. eigenvalues --    2.07101   2.10054   2.11185   2.11429   2.16446
 Alpha virt. eigenvalues --    2.17413   2.17625   2.18188   2.19384   2.19841
 Alpha virt. eigenvalues --    2.19930   2.21423   2.21561   2.21829   2.22518
 Alpha virt. eigenvalues --    2.23491   2.23612   2.24076   2.24510   2.24734
 Alpha virt. eigenvalues --    2.25761   2.26486   2.26715   2.27398   2.27683
 Alpha virt. eigenvalues --    2.27975   2.28569   2.28931   2.30837   2.33215
 Alpha virt. eigenvalues --    2.33270   2.34725   2.35803   2.36960   2.39681
 Alpha virt. eigenvalues --    2.39946   2.41264   2.41608   2.43038   2.43430
 Alpha virt. eigenvalues --    2.43726   2.44443   2.45052   2.46545   2.46820
 Alpha virt. eigenvalues --    2.46988   2.47444   2.48038   2.48129   2.49857
 Alpha virt. eigenvalues --    2.53068   2.53709   2.54254   2.55029   2.56348
 Alpha virt. eigenvalues --    2.56687   2.56888   2.58167   2.58701   2.60386
 Alpha virt. eigenvalues --    2.60472   2.61453   2.61897   2.62911   2.63236
 Alpha virt. eigenvalues --    2.63898   2.64400   2.64862   2.65512   2.67533
 Alpha virt. eigenvalues --    2.68554   2.71057   2.73397   2.73642   2.74457
 Alpha virt. eigenvalues --    2.74538   2.75118   2.76465   2.82173   2.90033
 Alpha virt. eigenvalues --    2.91807   2.92189   2.95656   2.96629   2.97470
 Alpha virt. eigenvalues --    2.97851   2.98675   2.98933   3.00660   3.01253
 Alpha virt. eigenvalues --    3.02867   3.03315   3.03635   3.06333   3.07307
 Alpha virt. eigenvalues --    3.08238   3.11133   3.11768   3.13820   3.14764
 Alpha virt. eigenvalues --    3.16851   3.17847   3.18170   3.18381   3.19105
 Alpha virt. eigenvalues --    3.20572   3.21437   3.23734   3.25296   3.26283
 Alpha virt. eigenvalues --    3.27145   3.28121   3.29822   3.32985   3.33109
 Alpha virt. eigenvalues --    3.33725   3.34209   3.46334   3.51528   3.55019
 Alpha virt. eigenvalues --    3.60136   3.67728   3.68452   3.74288   3.85538
 Alpha virt. eigenvalues --   21.06885  21.22599  21.38331  21.45545  21.56751
 Alpha virt. eigenvalues --   21.59603  21.59998  21.64204  21.68871  21.77039
 Alpha virt. eigenvalues --   21.80110  21.83661  21.83988  21.85194  21.87514
 Alpha virt. eigenvalues --   21.95189  21.98796  22.01809  22.03254  31.52154
 Alpha virt. eigenvalues --   31.67235
          Condensed to atoms (all electrons):
               1          2          3          4          5          6
     1  C    4.963298   0.467345   0.392812   0.001031   0.006540  -0.108798
     2  C    0.467345   4.956924  -0.021352   0.467345  -0.075605  -0.021370
     3  C    0.392812  -0.021352   5.207431  -0.108811   0.374193  -0.049268
     4  C    0.001031   0.467345  -0.108811   4.963282   0.006536   0.392845
     5  C    0.006540  -0.075605   0.374193   0.006536   5.551950   0.374245
     6  C   -0.108798  -0.021370  -0.049268   0.392845   0.374245   5.207368
     7  H   -0.056601   0.417067   0.018653  -0.056601  -0.004419   0.018652
     8  H   -0.017721   0.009766   0.394562  -0.001119  -0.065412   0.012153
     9  H    0.012592  -0.051939  -0.000020   0.412535   0.015376  -0.052333
    10  H   -0.001119   0.009766   0.012156  -0.017723  -0.065408   0.394561
    11  C    0.014346   0.010092  -0.056649   0.014346   0.082913  -0.056678
    12  C   -0.000607  -0.000398   0.028793   0.004234  -0.129096  -0.025771
    13  C    0.004234  -0.000398  -0.025788  -0.000605  -0.129039   0.028794
    14  C    0.000497  -0.000048  -0.001588  -0.000779   0.047517   0.001323
    15  C   -0.000779  -0.000048   0.001328   0.000497   0.047484  -0.001590
    16  C   -0.000023   0.000018   0.001236  -0.000023  -0.012292   0.001238
    17  H    0.000030  -0.000049  -0.000286   0.001420  -0.015230   0.002346
    18  H    0.001420  -0.000049   0.002346   0.000030  -0.015226  -0.000286
    19  H   -0.000001  -0.000000  -0.000013  -0.000003  -0.000782   0.000018
    20  H   -0.000003  -0.000000   0.000018  -0.000001  -0.000782  -0.000013
    21  H    0.412538  -0.051941  -0.052335   0.012593   0.015377  -0.000020
    22  C   -0.000005   0.000001   0.000187  -0.000005  -0.004850   0.000187
    23  C    0.000000   0.000000   0.000017  -0.000000  -0.000093  -0.000004
    24  C   -0.000000   0.000000  -0.000004   0.000000  -0.000093   0.000017
    25  N    0.000000   0.000000   0.000000  -0.000000  -0.000000   0.000000
    26  N   -0.000000   0.000000   0.000000   0.000000  -0.000000   0.000000
    27  C    0.000000   0.000000   0.000000  -0.000000  -0.000004  -0.000000
    28  H   -0.000000  -0.000000  -0.000000   0.000000   0.000000  -0.000000
    29  H   -0.000000   0.000000   0.000004   0.000000  -0.000029   0.000000
    30  H    0.000000   0.000000   0.000000  -0.000000   0.000000   0.000000
    31  C    0.000000   0.000000   0.000000  -0.000000  -0.000000  -0.000000
    32  H   -0.000000  -0.000000  -0.000000   0.000000   0.000000   0.000000
    33  H    0.000000  -0.000000  -0.000000  -0.000000   0.000000  -0.000000
    34  H    0.000000   0.000000   0.000000  -0.000000  -0.000000   0.000000
    35  C   -0.000000   0.000000  -0.000000   0.000000  -0.000004   0.000000
    36  H    0.000000  -0.000000  -0.000000  -0.000000   0.000000  -0.000000
    37  H    0.000000   0.000000   0.000000  -0.000000  -0.000029   0.000004
    38  H   -0.000000   0.000000   0.000000   0.000000   0.000000   0.000000
    39  C   -0.000000   0.000000  -0.000000   0.000000  -0.000000   0.000000
    40  H    0.000000  -0.000000   0.000000  -0.000000   0.000000  -0.000000
    41  H   -0.000000  -0.000000  -0.000000   0.000000   0.000000  -0.000000
    42  H   -0.000000   0.000000   0.000000   0.000000  -0.000000   0.000000
               7          8          9         10         11         12
     1  C   -0.056601  -0.017721   0.012592  -0.001119   0.014346  -0.000607
     2  C    0.417067   0.009766  -0.051939   0.009766   0.010092  -0.000398
     3  C    0.018653   0.394562  -0.000020   0.012156  -0.056649   0.028793
     4  C   -0.056601  -0.001119   0.412535  -0.017723   0.014346   0.004234
     5  C   -0.004419  -0.065412   0.015376  -0.065408   0.082913  -0.129096
     6  C    0.018652   0.012153  -0.052333   0.394561  -0.056678  -0.025771
     7  H    0.548311  -0.000209  -0.007053  -0.000209  -0.000249  -0.000008
     8  H   -0.000209   0.546667   0.000036  -0.000173  -0.015278  -0.000086
     9  H   -0.007053   0.000036   0.555351  -0.006274  -0.001760   0.000031
    10  H   -0.000209  -0.000173  -0.006274   0.546669  -0.015282   0.004477
    11  C   -0.000249  -0.015278  -0.001760  -0.015282   5.340885   0.420823
    12  C   -0.000008  -0.000086   0.000031   0.004477   0.420823   5.374812
    13  C   -0.000008   0.004477   0.000016  -0.000087   0.420780  -0.099766
    14  C    0.000000  -0.000227  -0.000005   0.001246  -0.014097   0.175125
    15  C    0.000000   0.001247  -0.000001  -0.000227  -0.014110  -0.056200
    16  C   -0.000000   0.000228  -0.000000   0.000228  -0.050572   0.018460
    17  H   -0.000003  -0.000021   0.000010   0.000732  -0.048045   0.393474
    18  H   -0.000003   0.000733   0.000000  -0.000021  -0.048058   0.009377
    19  H    0.000000  -0.000001  -0.000000  -0.000042   0.011325  -0.005758
    20  H    0.000000  -0.000042   0.000000  -0.000001   0.011333   0.002896
    21  H   -0.007053  -0.006274  -0.000202   0.000036  -0.001760   0.000016
    22  C   -0.000000   0.000032  -0.000000   0.000032  -0.017350   0.035189
    23  C   -0.000000   0.000001   0.000000   0.000001  -0.001979  -0.009020
    24  C   -0.000000   0.000001  -0.000000   0.000001  -0.001981   0.014039
    25  N   -0.000000  -0.000000  -0.000000   0.000000  -0.000025  -0.000015
    26  N   -0.000000   0.000000  -0.000000  -0.000000  -0.000025   0.000186
    27  C   -0.000000  -0.000001  -0.000000  -0.000000  -0.000065  -0.000015
    28  H    0.000000   0.000000   0.000000  -0.000000   0.000005   0.000005
    29  H    0.000000   0.000004  -0.000000  -0.000000  -0.000109   0.000183
    30  H   -0.000000   0.000000   0.000000   0.000000   0.000000  -0.000004
    31  C   -0.000000  -0.000000   0.000000   0.000000  -0.000001  -0.000005
    32  H    0.000000   0.000000   0.000000  -0.000000   0.000000   0.000000
    33  H    0.000000  -0.000000  -0.000000   0.000000  -0.000000  -0.000000
    34  H    0.000000  -0.000000  -0.000000  -0.000000   0.000000  -0.000000
    35  C   -0.000000  -0.000000  -0.000000  -0.000001  -0.000065   0.000247
    36  H    0.000000  -0.000000   0.000000   0.000000   0.000005  -0.000096
    37  H    0.000000  -0.000000  -0.000000   0.000004  -0.000109   0.000036
    38  H   -0.000000   0.000000   0.000000   0.000000   0.000000   0.000039
    39  C   -0.000000   0.000000  -0.000000  -0.000000  -0.000001   0.000018
    40  H    0.000000  -0.000000   0.000000   0.000000   0.000000  -0.000002
    41  H    0.000000   0.000000   0.000000  -0.000000  -0.000000   0.000001
    42  H    0.000000  -0.000000  -0.000000  -0.000000   0.000000   0.000000
              13         14         15         16         17         18
     1  C    0.004234   0.000497  -0.000779  -0.000023   0.000030   0.001420
     2  C   -0.000398  -0.000048  -0.000048   0.000018  -0.000049  -0.000049
     3  C   -0.025788  -0.001588   0.001328   0.001236  -0.000286   0.002346
     4  C   -0.000605  -0.000779   0.000497  -0.000023   0.001420   0.000030
     5  C   -0.129039   0.047517   0.047484  -0.012292  -0.015230  -0.015226
     6  C    0.028794   0.001323  -0.001590   0.001238   0.002346  -0.000286
     7  H   -0.000008   0.000000   0.000000  -0.000000  -0.000003  -0.000003
     8  H    0.004477  -0.000227   0.001247   0.000228  -0.000021   0.000733
     9  H    0.000016  -0.000005  -0.000001  -0.000000   0.000010   0.000000
    10  H   -0.000087   0.001246  -0.000227   0.000228   0.000732  -0.000021
    11  C    0.420780  -0.014097  -0.014110  -0.050572  -0.048045  -0.048058
    12  C   -0.099766   0.175125  -0.056200   0.018460   0.393474   0.009377
    13  C    5.374728  -0.056196   0.175237   0.018395   0.009377   0.393483
    14  C   -0.056196   5.400519  -0.129602   0.373485  -0.025441   0.002015
    15  C    0.175237  -0.129602   5.400249   0.373765   0.002015  -0.025447
    16  C    0.018395   0.373485   0.373765   5.705290   0.011792   0.011795
    17  H    0.009377  -0.025441   0.002015   0.011792   0.518216  -0.000166
    18  H    0.393483   0.002015  -0.025447   0.011795  -0.000166   0.518229
    19  H    0.002899   0.407575   0.001648  -0.099916  -0.005590   0.000053
    20  H   -0.005756   0.001658   0.407575  -0.099896   0.000053  -0.005592
    21  H    0.000031  -0.000001  -0.000005  -0.000000   0.000000   0.000010
    22  C    0.035219  -0.069685  -0.069687   0.108838  -0.000181  -0.000182
    23  C    0.014031   0.046607  -0.064311  -0.218097   0.000083   0.000183
    24  C   -0.009015  -0.064315   0.046566  -0.218158   0.000183   0.000082
    25  N    0.000185   0.000145   0.000761  -0.013666   0.000000   0.000002
    26  N   -0.000015   0.000755   0.000147  -0.013656   0.000002   0.000000
    27  C    0.000246  -0.000004  -0.003555  -0.014533  -0.000000   0.000005
    28  H   -0.000097  -0.000034   0.000121  -0.000181   0.000000  -0.000003
    29  H    0.000039  -0.000820   0.006880  -0.020333   0.000000  -0.000019
    30  H    0.000039   0.000032  -0.000129   0.001028  -0.000000   0.000000
    31  C    0.000018   0.000066  -0.000016  -0.002732   0.000000   0.000000
    32  H   -0.000002  -0.000002   0.000003   0.000004   0.000000  -0.000000
    33  H    0.000001   0.000001  -0.000018   0.000112  -0.000000   0.000000
    34  H    0.000000   0.000011   0.000011  -0.000276  -0.000000  -0.000000
    35  C   -0.000016  -0.003578  -0.000002  -0.014505   0.000005  -0.000000
    36  H    0.000005   0.000121  -0.000034  -0.000181  -0.000003   0.000000
    37  H    0.000183   0.006901  -0.000822  -0.020357  -0.000019   0.000000
    38  H   -0.000004  -0.000130   0.000032   0.001029   0.000000  -0.000000
    39  C   -0.000005  -0.000017   0.000066  -0.002733   0.000000   0.000000
    40  H    0.000000   0.000003  -0.000002   0.000004  -0.000000   0.000000
    41  H   -0.000000  -0.000017   0.000001   0.000112   0.000000  -0.000000
    42  H   -0.000000   0.000010   0.000011  -0.000274  -0.000000  -0.000000
              19         20         21         22         23         24
     1  C   -0.000001  -0.000003   0.412538  -0.000005   0.000000  -0.000000
     2  C   -0.000000  -0.000000  -0.051941   0.000001   0.000000   0.000000
     3  C   -0.000013   0.000018  -0.052335   0.000187   0.000017  -0.000004
     4  C   -0.000003  -0.000001   0.012593  -0.000005  -0.000000   0.000000
     5  C   -0.000782  -0.000782   0.015377  -0.004850  -0.000093  -0.000093
     6  C    0.000018  -0.000013  -0.000020   0.000187  -0.000004   0.000017
     7  H    0.000000   0.000000  -0.007053  -0.000000  -0.000000  -0.000000
     8  H   -0.000001  -0.000042  -0.006274   0.000032   0.000001   0.000001
     9  H   -0.000000   0.000000  -0.000202  -0.000000   0.000000  -0.000000
    10  H   -0.000042  -0.000001   0.000036   0.000032   0.000001   0.000001
    11  C    0.011325   0.011333  -0.001760  -0.017350  -0.001979  -0.001981
    12  C   -0.005758   0.002896   0.000016   0.035189  -0.009020   0.014039
    13  C    0.002899  -0.005756   0.000031   0.035219   0.014031  -0.009015
    14  C    0.407575   0.001658  -0.000001  -0.069685   0.046607  -0.064315
    15  C    0.001648   0.407575  -0.000005  -0.069687  -0.064311   0.046566
    16  C   -0.099916  -0.099896  -0.000000   0.108838  -0.218097  -0.218158
    17  H   -0.005590   0.000053   0.000000  -0.000181   0.000083   0.000183
    18  H    0.000053  -0.005592   0.000010  -0.000182   0.000183   0.000082
    19  H    0.551086  -0.000244   0.000000  -0.001953   0.005177  -0.001121
    20  H   -0.000244   0.551125  -0.000000  -0.001993  -0.001114   0.005169
    21  H    0.000000  -0.000000   0.555351  -0.000000  -0.000000   0.000000
    22  C   -0.001953  -0.001993  -0.000000   6.722356  -0.001375  -0.000505
    23  C    0.005177  -0.001114  -0.000000  -0.001375   6.042329  -0.206398
    24  C   -0.001121   0.005169   0.000000  -0.000505  -0.206398   6.041739
    25  N    0.000029  -0.000107  -0.000000  -0.142723   0.549756  -0.084973
    26  N   -0.000104   0.000029  -0.000000  -0.142711  -0.084963   0.549625
    27  C   -0.000002  -0.001674  -0.000000   0.000287  -0.048388  -0.001719
    28  H    0.000000   0.000219   0.000000   0.005535  -0.001409  -0.001410
    29  H   -0.000020   0.000635  -0.000000   0.012656  -0.020142   0.018216
    30  H    0.000000   0.000243   0.000000  -0.003287   0.006833  -0.001152
    31  C    0.000004   0.000022  -0.000000  -0.012226  -0.059629  -0.006823
    32  H    0.000000   0.000011   0.000000   0.001035   0.008652  -0.001226
    33  H   -0.000000  -0.000002   0.000000  -0.002250  -0.003007   0.003082
    34  H   -0.000001   0.000000  -0.000000   0.007111  -0.013407   0.000360
    35  C   -0.001682  -0.000002  -0.000000   0.000196  -0.001750  -0.048315
    36  H    0.000219   0.000000   0.000000   0.005523  -0.001403  -0.001337
    37  H    0.000633  -0.000020  -0.000000   0.012747   0.018231  -0.020164
    38  H    0.000242   0.000000   0.000000  -0.003291  -0.001160   0.006750
    39  C    0.000021   0.000004   0.000000  -0.012266  -0.006761  -0.059705
    40  H    0.000011   0.000000   0.000000   0.001028  -0.001214   0.008767
    41  H   -0.000002  -0.000000  -0.000000  -0.002251   0.003101  -0.003141
    42  H    0.000000  -0.000001  -0.000000   0.007030   0.000262  -0.013446
              25         26         27         28         29         30
     1  C    0.000000  -0.000000   0.000000  -0.000000  -0.000000   0.000000
     2  C    0.000000   0.000000   0.000000  -0.000000   0.000000   0.000000
     3  C    0.000000   0.000000   0.000000  -0.000000   0.000004   0.000000
     4  C   -0.000000   0.000000  -0.000000   0.000000   0.000000  -0.000000
     5  C   -0.000000  -0.000000  -0.000004   0.000000  -0.000029   0.000000
     6  C    0.000000   0.000000  -0.000000  -0.000000   0.000000   0.000000
     7  H   -0.000000  -0.000000  -0.000000   0.000000   0.000000  -0.000000
     8  H   -0.000000   0.000000  -0.000001   0.000000   0.000004   0.000000
     9  H   -0.000000  -0.000000  -0.000000   0.000000  -0.000000   0.000000
    10  H    0.000000  -0.000000  -0.000000  -0.000000  -0.000000   0.000000
    11  C   -0.000025  -0.000025  -0.000065   0.000005  -0.000109   0.000000
    12  C   -0.000015   0.000186  -0.000015   0.000005   0.000183  -0.000004
    13  C    0.000185  -0.000015   0.000246  -0.000097   0.000039   0.000039
    14  C    0.000145   0.000755  -0.000004  -0.000034  -0.000820   0.000032
    15  C    0.000761   0.000147  -0.003555   0.000121   0.006880  -0.000129
    16  C   -0.013666  -0.013656  -0.014533  -0.000181  -0.020333   0.001028
    17  H    0.000000   0.000002  -0.000000   0.000000   0.000000  -0.000000
    18  H    0.000002   0.000000   0.000005  -0.000003  -0.000019   0.000000
    19  H    0.000029  -0.000104  -0.000002   0.000000  -0.000020   0.000000
    20  H   -0.000107   0.000029  -0.001674   0.000219   0.000635   0.000243
    21  H   -0.000000  -0.000000  -0.000000   0.000000  -0.000000   0.000000
    22  C   -0.142723  -0.142711   0.000287   0.005535   0.012656  -0.003287
    23  C    0.549756  -0.084963  -0.048388  -0.001409  -0.020142   0.006833
    24  C   -0.084973   0.549625  -0.001719  -0.001410   0.018216  -0.001152
    25  N    6.414129  -0.001018   0.229008  -0.035801  -0.024521  -0.041462
    26  N   -0.001018   6.414347  -0.000658   0.000002   0.000085  -0.000005
    27  C    0.229008  -0.000658   4.937341   0.407029   0.389774   0.408230
    28  H   -0.035801   0.000002   0.407029   0.509553  -0.017084  -0.031118
    29  H   -0.024521   0.000085   0.389774  -0.017084   0.517028  -0.021516
    30  H   -0.041462  -0.000005   0.408230  -0.031118  -0.021516   0.513991
    31  C    0.243636   0.000430  -0.060868  -0.009680   0.008471   0.001128
    32  H   -0.038564  -0.000016  -0.001657   0.005928   0.000452  -0.003122
    33  H   -0.039101  -0.000085  -0.006243  -0.001046  -0.000269   0.005090
    34  H   -0.026697  -0.001872   0.009569  -0.000077  -0.000511   0.000136
    35  C   -0.000658   0.228960   0.000015  -0.000002   0.000006  -0.000000
    36  H    0.000002  -0.035770  -0.000002  -0.000000  -0.000000   0.000000
    37  H    0.000085  -0.024576   0.000006  -0.000000  -0.000001   0.000000
    38  H   -0.000005  -0.041493  -0.000000   0.000000   0.000000  -0.000000
    39  C    0.000428   0.243499  -0.000152   0.000004   0.000029  -0.000005
    40  H   -0.000016  -0.038449   0.000000  -0.000000  -0.000001   0.000000
    41  H   -0.000085  -0.039151   0.000007   0.000001   0.000000  -0.000000
    42  H   -0.001850  -0.026581  -0.000002   0.000002   0.000005  -0.000000
              31         32         33         34         35         36
     1  C    0.000000  -0.000000   0.000000   0.000000  -0.000000   0.000000
     2  C    0.000000  -0.000000  -0.000000   0.000000   0.000000  -0.000000
     3  C    0.000000  -0.000000  -0.000000   0.000000  -0.000000  -0.000000
     4  C   -0.000000   0.000000  -0.000000  -0.000000   0.000000  -0.000000
     5  C   -0.000000   0.000000   0.000000  -0.000000  -0.000004   0.000000
     6  C   -0.000000   0.000000  -0.000000   0.000000   0.000000  -0.000000
     7  H   -0.000000   0.000000   0.000000   0.000000  -0.000000   0.000000
     8  H   -0.000000   0.000000  -0.000000  -0.000000  -0.000000  -0.000000
     9  H    0.000000   0.000000  -0.000000  -0.000000  -0.000000   0.000000
    10  H    0.000000  -0.000000   0.000000  -0.000000  -0.000001   0.000000
    11  C   -0.000001   0.000000  -0.000000   0.000000  -0.000065   0.000005
    12  C   -0.000005   0.000000  -0.000000  -0.000000   0.000247  -0.000096
    13  C    0.000018  -0.000002   0.000001   0.000000  -0.000016   0.000005
    14  C    0.000066  -0.000002   0.000001   0.000011  -0.003578   0.000121
    15  C   -0.000016   0.000003  -0.000018   0.000011  -0.000002  -0.000034
    16  C   -0.002732   0.000004   0.000112  -0.000276  -0.014505  -0.000181
    17  H    0.000000   0.000000  -0.000000  -0.000000   0.000005  -0.000003
    18  H    0.000000  -0.000000   0.000000  -0.000000  -0.000000   0.000000
    19  H    0.000004   0.000000  -0.000000  -0.000001  -0.001682   0.000219
    20  H    0.000022   0.000011  -0.000002   0.000000  -0.000002   0.000000
    21  H   -0.000000   0.000000   0.000000  -0.000000  -0.000000   0.000000
    22  C   -0.012226   0.001035  -0.002250   0.007111   0.000196   0.005523
    23  C   -0.059629   0.008652  -0.003007  -0.013407  -0.001750  -0.001403
    24  C   -0.006823  -0.001226   0.003082   0.000360  -0.048315  -0.001337
    25  N    0.243636  -0.038564  -0.039101  -0.026697  -0.000658   0.000002
    26  N    0.000430  -0.000016  -0.000085  -0.001872   0.228960  -0.035770
    27  C   -0.060868  -0.001657  -0.006243   0.009569   0.000015  -0.000002
    28  H   -0.009680   0.005928  -0.001046  -0.000077  -0.000002  -0.000000
    29  H    0.008471   0.000452  -0.000269  -0.000511   0.000006  -0.000000
    30  H    0.001128  -0.003122   0.005090   0.000136  -0.000000   0.000000
    31  C    4.940019   0.399560   0.416311   0.393642  -0.000155   0.000004
    32  H    0.399560   0.511639  -0.029321  -0.020268   0.000000  -0.000000
    33  H    0.416311  -0.029321   0.505374  -0.023150   0.000007   0.000001
    34  H    0.393642  -0.020268  -0.023150   0.534947   0.000000   0.000002
    35  C   -0.000155   0.000000   0.000007   0.000000   4.937374   0.406974
    36  H    0.000004  -0.000000   0.000001   0.000002   0.406974   0.509462
    37  H    0.000029  -0.000001   0.000000   0.000005   0.389747  -0.017050
    38  H   -0.000005   0.000000  -0.000000  -0.000000   0.408326  -0.031096
    39  C   -0.003357   0.000184  -0.000109  -0.002331  -0.060689  -0.009749
    40  H    0.000184  -0.000006   0.000014   0.000277  -0.001668   0.005907
    41  H   -0.000111   0.000015  -0.000021  -0.000185  -0.006217  -0.001031
    42  H   -0.002426   0.000277  -0.000174   0.002493   0.009545  -0.000073
              37         38         39         40         41         42
     1  C    0.000000  -0.000000  -0.000000   0.000000  -0.000000  -0.000000
     2  C    0.000000   0.000000   0.000000  -0.000000  -0.000000   0.000000
     3  C    0.000000   0.000000  -0.000000   0.000000  -0.000000   0.000000
     4  C   -0.000000   0.000000   0.000000  -0.000000   0.000000   0.000000
     5  C   -0.000029   0.000000  -0.000000   0.000000   0.000000  -0.000000
     6  C    0.000004   0.000000   0.000000  -0.000000  -0.000000   0.000000
     7  H    0.000000  -0.000000  -0.000000   0.000000   0.000000   0.000000
     8  H   -0.000000   0.000000   0.000000  -0.000000   0.000000  -0.000000
     9  H   -0.000000   0.000000  -0.000000   0.000000   0.000000  -0.000000
    10  H    0.000004   0.000000  -0.000000   0.000000  -0.000000  -0.000000
    11  C   -0.000109   0.000000  -0.000001   0.000000  -0.000000   0.000000
    12  C    0.000036   0.000039   0.000018  -0.000002   0.000001   0.000000
    13  C    0.000183  -0.000004  -0.000005   0.000000  -0.000000  -0.000000
    14  C    0.006901  -0.000130  -0.000017   0.000003  -0.000017   0.000010
    15  C   -0.000822   0.000032   0.000066  -0.000002   0.000001   0.000011
    16  C   -0.020357   0.001029  -0.002733   0.000004   0.000112  -0.000274
    17  H   -0.000019   0.000000   0.000000  -0.000000   0.000000  -0.000000
    18  H    0.000000  -0.000000   0.000000   0.000000  -0.000000  -0.000000
    19  H    0.000633   0.000242   0.000021   0.000011  -0.000002   0.000000
    20  H   -0.000020   0.000000   0.000004   0.000000  -0.000000  -0.000001
    21  H   -0.000000   0.000000   0.000000   0.000000  -0.000000  -0.000000
    22  C    0.012747  -0.003291  -0.012266   0.001028  -0.002251   0.007030
    23  C    0.018231  -0.001160  -0.006761  -0.001214   0.003101   0.000262
    24  C   -0.020164   0.006750  -0.059705   0.008767  -0.003141  -0.013446
    25  N    0.000085  -0.000005   0.000428  -0.000016  -0.000085  -0.001850
    26  N   -0.024576  -0.041493   0.243499  -0.038449  -0.039151  -0.026581
    27  C    0.000006  -0.000000  -0.000152   0.000000   0.000007  -0.000002
    28  H   -0.000000   0.000000   0.000004  -0.000000   0.000001   0.000002
    29  H   -0.000001   0.000000   0.000029  -0.000001   0.000000   0.000005
    30  H    0.000000  -0.000000  -0.000005   0.000000  -0.000000  -0.000000
    31  C    0.000029  -0.000005  -0.003357   0.000184  -0.000111  -0.002426
    32  H   -0.000001   0.000000   0.000184  -0.000006   0.000015   0.000277
    33  H    0.000000  -0.000000  -0.000109   0.000014  -0.000021  -0.000174
    34  H    0.000005  -0.000000  -0.002331   0.000277  -0.000185   0.002493
    35  C    0.389747   0.408326  -0.060689  -0.001668  -0.006217   0.009545
    36  H   -0.017050  -0.031096  -0.009749   0.005907  -0.001031  -0.000073
    37  H    0.517143  -0.021568   0.008456   0.000460  -0.000273  -0.000510
    38  H   -0.021568   0.513944   0.001213  -0.003135   0.005054   0.000134
    39  C    0.008456   0.001213   4.940475   0.399308   0.416473   0.393867
    40  H    0.000460  -0.003135   0.399308   0.511517  -0.029221  -0.020244
    41  H   -0.000273   0.005054   0.416473  -0.029221   0.505258  -0.023267
    42  H   -0.000510   0.000134   0.393867  -0.020244  -0.023267   0.534656
 Mulliken charges:
               1
     1  C   -0.091027
     2  C   -0.115127
     3  C   -0.117619
     4  C   -0.091025
     5  C   -0.003741
     6  C   -0.117622
     7  H    0.129731
     8  H    0.136659
     9  H    0.123638
    10  H    0.136659
    11  C    0.017394
    12  C   -0.155613
    13  C   -0.155618
    14  C   -0.099026
    15  C   -0.099059
    16  C    0.175347
    17  H    0.155294
    18  H    0.155287
    19  H    0.136293
    20  H    0.136253
    21  H    0.123638
    22  C   -0.466415
    23  C    0.050360
    24  C    0.050401
    25  N    0.013121
    26  N    0.013081
    27  C   -0.241976
    28  H    0.169537
    29  H    0.150908
    30  H    0.165049
    31  C   -0.245490
    32  H    0.166424
    33  H    0.174804
    34  H    0.140211
    35  C   -0.242097
    36  H    0.169600
    37  H    0.150827
    38  H    0.165122
    39  C   -0.246164
    40  H    0.166477
    41  H    0.174951
    42  H    0.140555
 Sum of Mulliken charges =   1.00000
 Mulliken charges with hydrogens summed into heavy atoms:
               1
     1  C    0.032612
     2  C    0.014604
     3  C    0.019040
     4  C    0.032613
     5  C   -0.003741
     6  C    0.019037
    11  C    0.017394
    12  C   -0.000319
    13  C   -0.000331
    14  C    0.037267
    15  C    0.037194
    16  C    0.175347
    22  C   -0.466415
    23  C    0.050360
    24  C    0.050401
    25  N    0.013121
    26  N    0.013081
    27  C    0.243517
    31  C    0.235948
    35  C    0.243452
    39  C    0.235819
 Electronic spatial extent (au):  <R**2>=           9905.0269
 Charge=              1.0000 electrons
 Dipole moment (field-independent basis, Debye):
    X=             11.6204    Y=              0.0004    Z=              0.0017  Tot=             11.6204
 Quadrupole moment (field-independent basis, Debye-Ang):
   XX=            -23.5513   YY=            -84.6006   ZZ=           -126.1167
   XY=              0.0018   XZ=              0.0059   YZ=             -0.3062
 Traceless Quadrupole moment (field-independent basis, Debye-Ang):
   XX=             54.5382   YY=             -6.5111   ZZ=            -48.0272
   XY=              0.0018   XZ=              0.0059   YZ=             -0.3062
 Octapole moment (field-independent basis, Debye-Ang**2):
  XXX=            192.2929  YYY=              0.0207  ZZZ=              0.0148  XYY=             91.5339
  XXY=              0.0078  XXZ=              0.0354  XZZ=             36.5074  YZZ=             -0.0062
  YYZ=             -0.0021  XYZ=             -6.2343
 Hexadecapole moment (field-independent basis, Debye-Ang**3):
 XXXX=          -7971.7609 YYYY=          -1727.6688 ZZZZ=           -225.0590 XXXY=              0.0706
 XXXZ=              0.0005 YYYX=              0.0950 YYYZ=             -0.7506 ZZZX=              0.0824
 ZZZY=              0.8266 XXYY=          -1638.4317 XXZZ=          -1988.9843 YYZZ=           -357.2415
 XXYZ=             58.6555 YYXZ=             -0.0392 ZZXY=             -0.0561
 N-N= 1.487460204840D+03 E-N=-4.918351424523D+03  KE= 8.408486708665D+02
 No NMR shielding tensors so no spin-rotation constants.
 Leave Link  601 at Thu Jan 21 03:12:05 2021, MaxMem=  4026531840 cpu:               2.7 elap:               0.4
 (Enter /opt/ohpc/pub/libs/gaussian/g16-A.03/sandybridge/g16/l9999.exe)

 Test job not archived.
 1\1\GINC-CASCADEB025\SP\RLC-wHPBE\TZVP\C19H21N2(1+)\RDU230\21-Jan-2021
 \0\\#P LC-wHPBE/TZVP iop(3/107=0186400000, 3/108=0186400000) scf=(conv
 er=6,fermi,ndamp=35,noincfock,novaracc,vshift=500,xqc)\\H21 C19 N2\\1,
 1\C,0,5.924302,-1.175178,0.28256\C,0,6.625626,0.000025,-0.000251\C,0,4
 .530324,-1.177472,0.278212\C,0,5.924206,1.175202,-0.282951\C,0,3.81093
 6,-0.000036,-0.000021\C,0,4.530233,1.177435,-0.278371\H,0,7.716547,0.0
 00056,-0.000331\H,0,3.994064,-2.094974,0.527939\H,0,6.466302,2.09321,-
 0.514746\H,0,3.99388,2.094904,-0.52801\C,0,2.333716,-0.000062,0.000109
 \C,0,1.604784,1.119278,0.452707\C,0,1.604752,-1.119433,-0.452341\C,0,0
 .21685,1.12577,0.449243\C,0,0.216813,-1.125977,-0.44867\C,0,-0.504919,
 -0.000106,0.000309\H,0,2.141671,1.985727,0.840835\H,0,2.141597,-1.9858
 91,-0.840507\H,0,-0.315693,1.995203,0.838189\H,0,-0.315745,-1.995465,-
 0.837475\H,0,6.466484,-2.093156,0.514265\C,0,-1.942874,-0.000086,0.000
 402\C,0,-3.143323,-0.702637,-0.003392\C,0,-3.143127,0.702801,0.003915\
 N,0,-3.78708,-1.855019,0.001668\N,0,-3.786774,1.855252,-0.001097\C,0,-
 3.068411,-3.12252,0.167733\H,0,-3.187886,-3.74858,-0.728596\H,0,-2.005
 788,-2.927607,0.341041\H,0,-3.471162,-3.663551,1.036238\C,0,-5.245121,
 -1.94416,-0.100275\H,0,-5.509149,-2.713998,-0.838669\H,0,-5.688951,-2.
 217262,0.869111\H,0,-5.659251,-0.989594,-0.439085\C,0,-3.068047,3.1226
 16,-0.16813\H,0,-3.188116,3.749602,0.727455\H,0,-2.005304,2.927538,-0.
 340531\H,0,-3.470192,3.662707,-1.037509\C,0,-5.24495,1.944232,0.099391
 \H,0,-5.509538,2.71844,0.832954\H,0,-5.688631,2.211256,-0.871774\H,0,-
 5.658779,0.991638,0.444142\\Version=EM64L-G16RevA.03\State=1-A\HF=-845
 .3485008\RMSD=6.831e-07\Dipole=-4.5718226,0.0001635,-0.0006533\Quadrup
 ole=40.5478485,-4.8408284,-35.70702,-0.001324,0.0044164,0.227686\PG=C0
 1 [X(C19H21N2)]\\@


 THE CAUTIOUS SELDOM ERR...CONFUCIUS                   
 Job cpu time:       0 days  1 hours  0 minutes 15.4 seconds.
 Elapsed time:       0 days  0 hours  7 minutes 33.6 seconds.
 File lengths (MBytes):  RWF=    136 Int=      0 D2E=      0 Chk=     24 Scr=      8
 Normal termination of Gaussian 16 at Thu Jan 21 03:12:05 2021.
