 Entering Gaussian System, Link 0=g16
 Input=mol_bp_cp_half_tune_n0.gjf
 Output=mol_bp_cp_half_tune_n0.log
 Initial command:
 /opt/ohpc/pub/libs/gaussian/g16-A.03/sandybridge/g16/l1.exe "/mnt/gpfs2_4m/scratch/rdu230/ondemand/projects/init_structures/wtuning/mol_bp_cp_half/tuning_mol_bp_cp_half_ocycle0/Gau-227644.inp" -scrdir="/mnt/gpfs2_4m/scratch/rdu230/ondemand/projects/init_structures/wtuning/mol_bp_cp_half/tuning_mol_bp_cp_half_ocycle0/"
 Entering Link 1 = /opt/ohpc/pub/libs/gaussian/g16-A.03/sandybridge/g16/l1.exe PID=    227645.
  
 Copyright (c) 1988,1990,1992,1993,1995,1998,2003,2009,2016,
            Gaussian, Inc.  All Rights Reserved.
  
 This is part of the Gaussian(R) 16 program.  It is based on
 the Gaussian(R) 09 system (copyright 2009, Gaussian, Inc.),
 the Gaussian(R) 03 system (copyright 2003, Gaussian, Inc.),
 the Gaussian(R) 98 system (copyright 1998, Gaussian, Inc.),
 the Gaussian(R) 94 system (copyright 1995, Gaussian, Inc.),
 the Gaussian 92(TM) system (copyright 1992, Gaussian, Inc.),
 the Gaussian 90(TM) system (copyright 1990, Gaussian, Inc.),
 the Gaussian 88(TM) system (copyright 1988, Gaussian, Inc.),
 the Gaussian 86(TM) system (copyright 1986, Carnegie Mellon
 University), and the Gaussian 82(TM) system (copyright 1983,
 Carnegie Mellon University). Gaussian is a federally registered
 trademark of Gaussian, Inc.
  
 This software contains proprietary and confidential information,
 including trade secrets, belonging to Gaussian, Inc.
  
 This software is provided under written license and may be
 used, copied, transmitted, or stored only in accord with that
 written license.
  
 The following legend is applicable only to US Government
 contracts under FAR:
  
                    RESTRICTED RIGHTS LEGEND
  
 Use, reproduction and disclosure by the US Government is
 subject to restrictions as set forth in subparagraphs (a)
 and (c) of the Commercial Computer Software - Restricted
 Rights clause in FAR 52.227-19.
  
 Gaussian, Inc.
 340 Quinnipiac St., Bldg. 40, Wallingford CT 06492
  
  
 ---------------------------------------------------------------
 Warning -- This program may not be used in any manner that
 competes with the business of Gaussian, Inc. or will provide
 assistance to any competitor of Gaussian, Inc.  The licensee
 of this program is prohibited from giving any competitor of
 Gaussian, Inc. access to this program.  By using this program,
 the user acknowledges that Gaussian, Inc. is engaged in the
 business of creating and licensing software in the field of
 computational chemistry and represents and warrants to the
 licensee that it is not a competitor of Gaussian, Inc. and that
 it will not use this program in any manner prohibited above.
 ---------------------------------------------------------------
  

 Cite this work as:
 Gaussian 16, Revision A.03,
 M. J. Frisch, G. W. Trucks, H. B. Schlegel, G. E. Scuseria, 
 M. A. Robb, J. R. Cheeseman, G. Scalmani, V. Barone, 
 G. A. Petersson, H. Nakatsuji, X. Li, M. Caricato, A. V. Marenich, 
 J. Bloino, B. G. Janesko, R. Gomperts, B. Mennucci, H. P. Hratchian, 
 J. V. Ortiz, A. F. Izmaylov, J. L. Sonnenberg, D. Williams-Young, 
 F. Ding, F. Lipparini, F. Egidi, J. Goings, B. Peng, A. Petrone, 
 T. Henderson, D. Ranasinghe, V. G. Zakrzewski, J. Gao, N. Rega, 
 G. Zheng, W. Liang, M. Hada, M. Ehara, K. Toyota, R. Fukuda, 
 J. Hasegawa, M. Ishida, T. Nakajima, Y. Honda, O. Kitao, H. Nakai, 
 T. Vreven, K. Throssell, J. A. Montgomery, Jr., J. E. Peralta, 
 F. Ogliaro, M. J. Bearpark, J. J. Heyd, E. N. Brothers, K. N. Kudin, 
 V. N. Staroverov, T. A. Keith, R. Kobayashi, J. Normand, 
 K. Raghavachari, A. P. Rendell, J. C. Burant, S. S. Iyengar, 
 J. Tomasi, M. Cossi, J. M. Millam, M. Klene, C. Adamo, R. Cammi, 
 J. W. Ochterski, R. L. Martin, K. Morokuma, O. Farkas, 
 J. B. Foresman, and D. J. Fox, Gaussian, Inc., Wallingford CT, 2016.
 
 ******************************************
 Gaussian 16:  EM64L-G16RevA.03 25-Dec-2016
                21-Jan-2021 
 ******************************************
 %mem=30GB
 %nproc=8
 Will use up to    8 processors via shared memory.
 ----------------------------------------------------------------------
 #P LC-wHPBE/TZVP iop(3/107=0221900000, 3/108=0221900000) scf=(conver=6
 ,fermi,ndamp=35,noincfock,novaracc,vshift=500,xqc)
 ----------------------------------------------------------------------
 1/38=1,172=1/1;
 2/12=2,17=6,18=5,40=1/2;
 3/5=19,7=101,11=2,25=1,30=1,74=-71,107=221900000,108=221900000/1,2,3;
 4//1;
 5/5=100002,6=6,8=3,10=500,13=1,18=-1,22=13,38=1,93=35/2,8;
 6/7=2,8=2,9=2,10=2,28=1/1;
 99/5=1,9=1/99;
 Leave Link    1 at Thu Jan 21 00:04:22 2021, MaxMem=  4026531840 cpu:               0.9 elap:               0.1
 (Enter /opt/ohpc/pub/libs/gaussian/g16-A.03/sandybridge/g16/l101.exe)
 ----------
 H21 C19 N2
 ----------
 Symbolic Z-matrix:
 Charge =  1 Multiplicity = 1
 C                     5.9243   -1.17518   0.28256 
 C                     6.62563   0.00003  -0.00025 
 C                     4.53032  -1.17747   0.27821 
 C                     5.92421   1.1752   -0.28295 
 C                     3.81094  -0.00004  -0.00002 
 C                     4.53023   1.17744  -0.27837 
 H                     7.71655   0.00006  -0.00033 
 H                     3.99406  -2.09497   0.52794 
 H                     6.4663    2.09321  -0.51475 
 H                     3.99388   2.0949   -0.52801 
 C                     2.33372  -0.00006   0.00011 
 C                     1.60478   1.11928   0.45271 
 C                     1.60475  -1.11943  -0.45234 
 C                     0.21685   1.12577   0.44924 
 C                     0.21681  -1.12598  -0.44867 
 C                    -0.50492  -0.00011   0.00031 
 H                     2.14167   1.98573   0.84084 
 H                     2.1416   -1.98589  -0.84051 
 H                    -0.31569   1.9952    0.83819 
 H                    -0.31575  -1.99547  -0.83748 
 H                     6.46648  -2.09316   0.51427 
 C                    -1.94287  -0.00009   0.0004 
 C                    -3.14332  -0.70264  -0.00339 
 C                    -3.14313   0.7028    0.00392 
 N                    -3.78708  -1.85502   0.00167 
 N                    -3.78677   1.85525  -0.0011 
 C                    -3.06841  -3.12252   0.16773 
 H                    -3.18789  -3.74858  -0.7286 
 H                    -2.00579  -2.92761   0.34104 
 H                    -3.47116  -3.66355   1.03624 
 C                    -5.24512  -1.94416  -0.10028 
 H                    -5.50915  -2.714    -0.83867 
 H                    -5.68895  -2.21726   0.86911 
 H                    -5.65925  -0.98959  -0.43909 
 C                    -3.06805   3.12262  -0.16813 
 H                    -3.18812   3.7496    0.72746 
 H                    -2.0053    2.92754  -0.34053 
 H                    -3.47019   3.66271  -1.03751 
 C                    -5.24495   1.94423   0.09939 
 H                    -5.50954   2.71844   0.83295 
 H                    -5.68863   2.21126  -0.87177 
 H                    -5.65878   0.99164   0.44414 
 
 ITRead=  0  0  0  0  0  0  0  0  0  0  0  0  0  0  0  0  0  0  0  0
 ITRead=  0  0  0  0  0  0  0  0  0  0  0  0  0  0  0  0  0  0  0  0
 ITRead=  0  0
 MicOpt= -1 -1 -1 -1 -1 -1 -1 -1 -1 -1 -1 -1 -1 -1 -1 -1 -1 -1 -1 -1
 MicOpt= -1 -1 -1 -1 -1 -1 -1 -1 -1 -1 -1 -1 -1 -1 -1 -1 -1 -1 -1 -1
 MicOpt= -1 -1
 NAtoms=     42 NQM=       42 NQMF=       0 NMMI=      0 NMMIF=      0
                NMic=       0 NMicF=      0.
                    Isotopes and Nuclear Properties:
 (Nuclear quadrupole moments (NQMom) in fm**2, nuclear magnetic moments (NMagM)
  in nuclear magnetons)

  Atom         1           2           3           4           5           6           7           8           9          10
 IAtWgt=          12          12          12          12          12          12           1           1           1           1
 AtmWgt=  12.0000000  12.0000000  12.0000000  12.0000000  12.0000000  12.0000000   1.0078250   1.0078250   1.0078250   1.0078250
 NucSpn=           0           0           0           0           0           0           1           1           1           1
 AtZEff=  -0.0000000  -0.0000000  -0.0000000  -0.0000000  -0.0000000  -0.0000000  -0.0000000  -0.0000000  -0.0000000  -0.0000000
 NQMom=    0.0000000   0.0000000   0.0000000   0.0000000   0.0000000   0.0000000   0.0000000   0.0000000   0.0000000   0.0000000
 NMagM=    0.0000000   0.0000000   0.0000000   0.0000000   0.0000000   0.0000000   2.7928460   2.7928460   2.7928460   2.7928460
 AtZNuc=   6.0000000   6.0000000   6.0000000   6.0000000   6.0000000   6.0000000   1.0000000   1.0000000   1.0000000   1.0000000

  Atom        11          12          13          14          15          16          17          18          19          20
 IAtWgt=          12          12          12          12          12          12           1           1           1           1
 AtmWgt=  12.0000000  12.0000000  12.0000000  12.0000000  12.0000000  12.0000000   1.0078250   1.0078250   1.0078250   1.0078250
 NucSpn=           0           0           0           0           0           0           1           1           1           1
 AtZEff=  -0.0000000  -0.0000000  -0.0000000  -0.0000000  -0.0000000  -0.0000000  -0.0000000  -0.0000000  -0.0000000  -0.0000000
 NQMom=    0.0000000   0.0000000   0.0000000   0.0000000   0.0000000   0.0000000   0.0000000   0.0000000   0.0000000   0.0000000
 NMagM=    0.0000000   0.0000000   0.0000000   0.0000000   0.0000000   0.0000000   2.7928460   2.7928460   2.7928460   2.7928460
 AtZNuc=   6.0000000   6.0000000   6.0000000   6.0000000   6.0000000   6.0000000   1.0000000   1.0000000   1.0000000   1.0000000

  Atom        21          22          23          24          25          26          27          28          29          30
 IAtWgt=           1          12          12          12          14          14          12           1           1           1
 AtmWgt=   1.0078250  12.0000000  12.0000000  12.0000000  14.0030740  14.0030740  12.0000000   1.0078250   1.0078250   1.0078250
 NucSpn=           1           0           0           0           2           2           0           1           1           1
 AtZEff=  -0.0000000  -0.0000000  -0.0000000  -0.0000000  -0.0000000  -0.0000000  -0.0000000  -0.0000000  -0.0000000  -0.0000000
 NQMom=    0.0000000   0.0000000   0.0000000   0.0000000   2.0440000   2.0440000   0.0000000   0.0000000   0.0000000   0.0000000
 NMagM=    2.7928460   0.0000000   0.0000000   0.0000000   0.4037610   0.4037610   0.0000000   2.7928460   2.7928460   2.7928460
 AtZNuc=   1.0000000   6.0000000   6.0000000   6.0000000   7.0000000   7.0000000   6.0000000   1.0000000   1.0000000   1.0000000

  Atom        31          32          33          34          35          36          37          38          39          40
 IAtWgt=          12           1           1           1          12           1           1           1          12           1
 AtmWgt=  12.0000000   1.0078250   1.0078250   1.0078250  12.0000000   1.0078250   1.0078250   1.0078250  12.0000000   1.0078250
 NucSpn=           0           1           1           1           0           1           1           1           0           1
 AtZEff=  -0.0000000  -0.0000000  -0.0000000  -0.0000000  -0.0000000  -0.0000000  -0.0000000  -0.0000000  -0.0000000  -0.0000000
 NQMom=    0.0000000   0.0000000   0.0000000   0.0000000   0.0000000   0.0000000   0.0000000   0.0000000   0.0000000   0.0000000
 NMagM=    0.0000000   2.7928460   2.7928460   2.7928460   0.0000000   2.7928460   2.7928460   2.7928460   0.0000000   2.7928460
 AtZNuc=   6.0000000   1.0000000   1.0000000   1.0000000   6.0000000   1.0000000   1.0000000   1.0000000   6.0000000   1.0000000

  Atom        41          42
 IAtWgt=           1           1
 AtmWgt=   1.0078250   1.0078250
 NucSpn=           1           1
 AtZEff=  -0.0000000  -0.0000000
 NQMom=    0.0000000   0.0000000
 NMagM=    2.7928460   2.7928460
 AtZNuc=   1.0000000   1.0000000
 Leave Link  101 at Thu Jan 21 00:04:22 2021, MaxMem=  4026531840 cpu:               0.7 elap:               0.1
 (Enter /opt/ohpc/pub/libs/gaussian/g16-A.03/sandybridge/g16/l202.exe)
                          Input orientation:                          
 ---------------------------------------------------------------------
 Center     Atomic      Atomic             Coordinates (Angstroms)
 Number     Number       Type             X           Y           Z
 ---------------------------------------------------------------------
      1          6           0        5.924302   -1.175178    0.282560
      2          6           0        6.625626    0.000025   -0.000251
      3          6           0        4.530324   -1.177472    0.278212
      4          6           0        5.924206    1.175202   -0.282951
      5          6           0        3.810936   -0.000036   -0.000021
      6          6           0        4.530233    1.177435   -0.278371
      7          1           0        7.716547    0.000056   -0.000331
      8          1           0        3.994064   -2.094974    0.527939
      9          1           0        6.466302    2.093210   -0.514746
     10          1           0        3.993880    2.094904   -0.528010
     11          6           0        2.333716   -0.000062    0.000109
     12          6           0        1.604784    1.119278    0.452707
     13          6           0        1.604752   -1.119433   -0.452341
     14          6           0        0.216850    1.125770    0.449243
     15          6           0        0.216813   -1.125977   -0.448670
     16          6           0       -0.504919   -0.000106    0.000309
     17          1           0        2.141671    1.985727    0.840835
     18          1           0        2.141597   -1.985891   -0.840507
     19          1           0       -0.315693    1.995203    0.838189
     20          1           0       -0.315745   -1.995465   -0.837475
     21          1           0        6.466484   -2.093156    0.514265
     22          6           0       -1.942874   -0.000086    0.000402
     23          6           0       -3.143323   -0.702637   -0.003392
     24          6           0       -3.143127    0.702801    0.003915
     25          7           0       -3.787080   -1.855019    0.001668
     26          7           0       -3.786774    1.855252   -0.001097
     27          6           0       -3.068411   -3.122520    0.167733
     28          1           0       -3.187886   -3.748580   -0.728596
     29          1           0       -2.005788   -2.927607    0.341041
     30          1           0       -3.471162   -3.663551    1.036238
     31          6           0       -5.245121   -1.944160   -0.100275
     32          1           0       -5.509149   -2.713998   -0.838669
     33          1           0       -5.688951   -2.217262    0.869111
     34          1           0       -5.659251   -0.989594   -0.439085
     35          6           0       -3.068047    3.122616   -0.168130
     36          1           0       -3.188116    3.749602    0.727455
     37          1           0       -2.005304    2.927538   -0.340531
     38          1           0       -3.470192    3.662707   -1.037509
     39          6           0       -5.244950    1.944232    0.099391
     40          1           0       -5.509538    2.718440    0.832954
     41          1           0       -5.688631    2.211256   -0.871774
     42          1           0       -5.658779    0.991638    0.444142
 ---------------------------------------------------------------------
                    Distance matrix (angstroms):
                    1          2          3          4          5
     1  C    0.000000
     2  C    1.397476   0.000000
     3  C    1.393987   2.419573   0.000000
     4  C    2.417455   1.397480   2.791574   0.000000
     5  C    2.434569   2.814690   1.407582   2.434573   0.000000
     6  C    2.791569   2.419570   2.419788   1.393982   1.407588
     7  H    2.161792   1.090921   3.408251   2.161788   3.905611
     8  H    2.152221   3.404868   1.091672   3.882917   2.168189
     9  H    3.407612   2.161368   3.882545   1.091025   3.420174
    10  H    3.882910   3.404869   3.412655   2.152223   2.168182
    11  C    3.788533   4.291910   2.507733   3.788534   1.477220
    12  C    4.894049   5.163986   3.723479   4.381977   2.514942
    13  C    4.381974   5.163986   3.015965   4.894050   2.514934
    14  C    6.156066   6.522404   4.892876   5.754343   3.792985
    15  C    5.754350   6.522411   4.374630   6.156072   3.792987
    16  C    6.541815   7.130545   5.178522   6.541807   4.315855
    17  H    4.960977   4.975569   4.003503   4.028327   2.727039
    18  H    4.028324   4.975581   2.758820   4.960999   2.727037
    19  H    7.021223   7.270875   5.819220   6.392628   4.659683
    20  H    6.392616   7.270870   5.039668   7.021226   4.659674
    21  H    1.091023   2.161356   2.154742   3.407607   3.420172
    22  C    7.959454   8.568500   6.585265   7.959431   5.753810
    23  C    9.084431   9.794187   7.693480   9.264152   6.989662
    24  C    9.264055   9.794001   7.905221   9.084161   6.989491
    25  N    9.739200  10.576655   8.349536  10.177049   7.821177
    26  N   10.176884  10.576386   8.857175   9.738842   7.820952
    27  C    9.201859  10.185915   7.844501   9.977008   7.556683
    28  H    9.522437  10.530315   8.197257  10.366892   7.972823
    29  H    8.121623   9.120790   6.766659   8.950263   6.520834
    30  H    9.748578  10.790794   8.413024  10.650199   8.217307
    31  C   11.202406  12.029318   9.812767  11.598175   9.262928
    32  H   11.590898  12.462810  10.217600  12.089512   9.743352
    33  H   11.674657  12.542765  10.289019  12.153250   9.793842
    34  H   11.607494  12.332482  10.216519  11.785041   9.531865
    35  C    9.976798  10.185581   8.742152   9.201425   7.556429
    36  H   10.367620  10.530832   9.167998   9.522755   7.973439
    37  H    8.949814   9.120256   7.742634   8.121030   6.520375
    38  H   10.649142  10.789656   9.442813   9.747397   8.216258
    39  C   11.598123  12.029150  10.263186  11.202127   9.262782
    40  H   12.091149  12.463796  10.783538  11.591261   9.744496
    41  H   12.151569  12.541532  10.827418  11.673821   9.792423
    42  H   11.785116  12.332372  10.418752  11.607235   9.531852
                    6          7          8          9         10
     6  C    0.000000
     7  H    3.408244   0.000000
     8  H    3.412664   4.304079   0.000000
     9  H    2.154734   2.491792   4.973936   0.000000
    10  H    1.091670   4.304077   4.320892   2.472458   0.000000
    11  C    2.507735   5.382831   2.724705   4.661022   2.724690
    12  C    3.015976   6.229892   4.005713   5.051620   2.760694
    13  C    3.723481   6.229896   2.760696   5.827490   4.005699
    14  C    4.374627   7.597026   4.964547   6.396942   4.019975
    15  C    4.892883   7.597037   4.019993   7.030195   4.964535
    16  C    5.178515   8.221466   4.990763   7.296929   4.990729
    17  H    2.758838   5.977432   4.492370   4.533386   2.305718
    18  H    4.003525   5.977453   2.305684   5.953844   4.492382
    19  H    5.039687   8.318690   5.949774   6.916321   4.522042
    20  H    5.819226   8.318692   4.522025   7.925754   5.949769
    21  H    3.882539   2.491787   2.472458   4.310977   4.973927
    22  C    6.585240   9.659421   6.317759   8.681101   6.317693
    23  C    7.905299  10.882581   7.291310  10.021134   7.683822
    24  C    7.693206  10.882389   7.683856   9.723342   7.290937
    25  N    8.857307  11.652242   7.802611  10.999411   8.742184
    26  N    8.349187  11.651959   8.742174  10.268692   7.802157
    27  C    8.742312  11.229160   7.145919  10.889461   8.808038
    28  H    9.167207  11.553757   7.476209  11.286079   9.260902
    29  H    7.743036  10.159308   6.060234   9.885205   7.872540
    30  H    9.443816  11.817839   7.645155  11.588746   9.556858
    31  C   10.263217  13.107052   9.261746  12.394740  10.092380
    32  H   10.781761  13.527303   9.620908  12.908354  10.655027
    33  H   10.829238  13.615425   9.689795  12.970945  10.691302
    34  H   10.418610  13.419534   9.764399  12.511532  10.134346
    35  C    7.844090  11.228802   8.808017   9.596022   7.145384
    36  H    8.197600  11.554239   9.261889   9.873930   7.476315
    37  H    6.766090  10.158754   7.872248   8.514374   6.059590
    38  H    8.411877  11.816678   9.555974  10.073257   7.643950
    39  C    9.812486  13.106875  10.092483  11.728290   9.261334
    40  H   10.217962  13.528241  10.657412  12.067641   9.620602
    41  H   10.288153  13.614243  10.689125  12.160748   9.689310
    42  H   10.216287  13.419394  10.134672  12.212719   9.764021
                   11         12         13         14         15
    11  C    0.000000
    12  C    1.410358   0.000000
    13  C    1.410351   2.414734   0.000000
    14  C    2.439332   1.387954   2.789276   0.000000
    15  C    2.439337   2.789286   1.387959   2.424172   0.000000
    16  C    2.838635   2.430747   2.430740   1.410705   1.410697
    17  H    2.164962   1.090699   3.406260   2.144250   3.879511
    18  H    2.164962   3.406266   1.090699   3.879503   2.144244
    19  H    3.420940   2.145710   3.880017   1.091235   3.417797
    20  H    3.420939   3.880029   2.145709   3.417808   1.091236
    21  H    4.661027   5.827491   5.051624   7.030195   6.396958
    22  C    4.276590   3.747457   3.747474   2.476574   2.476599
    23  C    5.521918   5.106067   4.787430   3.852105   3.415846
    24  C    5.521761   4.787225   5.105983   3.415650   3.852072
    25  N    6.395703   6.174308   5.460683   5.011675   4.094565
    26  N    6.395513   5.460448   6.174214   4.094381   5.011662
    27  C    6.241860   6.317659   5.122041   5.377746   3.893435
    28  H    6.713456   6.932619   5.473400   6.061256   4.306783
    29  H    5.245765   5.424572   4.115209   4.624034   2.968075
    30  H    6.941997   6.998656   5.869694   6.073186   4.716502
    31  C    7.824856   7.524071   6.908320   6.289640   5.533853
    32  H    8.341434   8.183502   7.300649   7.013530   5.954876
    33  H    8.368651   8.031467   7.493301   6.799312   6.148618
    34  H    8.065952   7.616353   7.265175   6.308126   5.877654
    35  C    6.241672   5.121928   6.317500   3.893468   5.377690
    36  H    6.714137   5.474119   6.933326   4.307632   6.062020
    37  H    5.245376   4.114823   5.424295   2.967841   4.623903
    38  H    6.941028   5.869000   6.997595   4.716011   6.072251
    39  C    7.824725   6.908273   7.523887   5.533854   6.289468
    40  H    8.342692   7.301745   8.185009   5.956119   7.015212
    41  H    8.367088   7.492701   8.028876   6.148014   6.796353
    42  H    8.066016   7.264689   7.617033   5.877162   6.309040
                   16         17         18         19         20
    16  C    0.000000
    17  H    3.413862   0.000000
    18  H    3.413848   4.312848   0.000000
    19  H    2.172351   2.457384   4.970453   0.000000
    20  H    2.172355   4.970464   2.457363   4.328196   0.000000
    21  H    7.296949   5.953817   4.533383   7.925751   6.916312
    22  C    1.437955   4.618797   4.618815   2.707542   2.707605
    23  C    2.730337   5.989256   5.502534   3.997761   3.219052
    24  C    2.730244   5.502311   5.989192   3.218804   3.997833
    25  N    3.770051   7.113763   5.989624   5.251143   3.574081
    26  N    3.770004   5.989352   7.113689   3.573848   5.251247
    27  C    4.043389   7.327497   5.427030   5.849620   3.139724
    28  H    4.666977   7.984333   5.614533   6.610246   3.366669
    29  H    3.307411   6.449191   4.414033   5.228540   2.261423
    30  H    4.826238   7.965954   6.151405   6.482107   4.031125
    31  C    5.124351   8.419881   7.423832   6.379542   4.984460
    32  H    5.754252   9.134725   7.685314   7.208357   5.242875
    33  H    5.704804   8.887326   8.018342   6.827717   5.642072
    34  H    5.266810   8.446604   7.874451   6.252524   5.451931
    35  C    4.043438   5.426941   7.327300   3.139935   5.849610
    36  H    4.667826   5.615224   7.985000   3.367639   6.611000
    37  H    3.307329   4.413619   6.448918   2.261286   5.228530
    38  H    4.825568   6.150890   7.964775   4.031089   6.481162
    39  C    5.124272   7.423856   8.419641   4.984576   6.379341
    40  H    5.755867   7.686217   9.136250   5.243961   7.210182
    41  H    5.702764   8.018574   8.884227   5.642616   6.823898
    42  H    5.267145   7.873538   8.447595   5.450778   6.254066
                   21         22         23         24         25
    21  H    0.000000
    22  C    8.681146   0.000000
    23  C    9.723677   1.390924   0.000000
    24  C   10.021101   1.390924   1.405457   0.000000
    25  N   10.269130   2.615698   1.320012   2.637636   0.000000
    26  N   10.999310   2.615769   2.637580   1.320019   3.710272
    27  C    9.596557   3.323316   2.427082   3.829556   1.466500
    28  H    9.873803   4.016553   3.131402   4.511471   2.116103
    29  H    8.515028   2.947944   2.522521   3.819300   2.106803
    30  H   10.074493   4.102389   3.155205   4.498703   2.107351
    31  C   11.728664   3.833327   2.443015   3.381662   1.464316
    32  H   12.067794   4.559350   3.215648   4.240581   2.099889
    33  H   12.161247   4.438876   3.087972   3.969452   2.121507
    34  H   12.213115   3.870883   2.569449   3.064528   2.109087
    35  C   10.889317   3.323505   3.829539   2.427085   5.032166
    36  H   11.286920   4.017386   4.512048   3.131857   5.683071
    37  H    9.884798   2.948070   3.819283   2.522447   5.115142
    38  H   11.587730   4.101952   4.498052   3.154771   5.623665
    39  C   12.394769   3.833259   3.381319   2.442934   4.070533
    40  H   12.910388   4.561208   4.242902   3.217143   4.957260
    41  H   12.969036   4.436375   3.965281   3.085751   4.573116
    42  H   12.511709   3.871482   3.065677   2.570162   3.435476
                   26         27         28         29         30
    26  N    0.000000
    27  C    5.032173   0.000000
    28  H    5.682504   1.099832   0.000000
    29  H    5.115145   1.094164   1.793175   0.000000
    30  H    5.624310   1.099647   1.789445   1.781076   0.000000
    31  C    4.070890   2.489664   2.807656   3.413972   2.719356
    32  H    4.954407   2.671505   2.543765   3.702821   2.927511
    33  H    4.578309   2.859834   3.339600   3.788026   2.652974
    34  H    3.433825   3.410286   3.715302   4.208596   3.756908
    35  C    1.466520   6.254161   6.895058   6.163834   6.903989
    36  H    2.116067   6.895918   7.638247   6.792079   7.424978
    37  H    2.106810   6.163743   6.791145   5.894681   6.891058
    38  H    2.107432   6.903140   7.423092   6.890364   7.614098
    39  C    1.464340   5.514886   6.109434   5.855372   5.955773
    40  H    2.099679   6.365409   7.046336   6.663039   6.702694
    41  H    2.121763   6.032851   6.464818   6.437559   6.562853
    42  H    2.109140   4.869569   5.472686   5.358680   5.177551
                   31         32         33         34         35
    31  C    0.000000
    32  H    1.098903   0.000000
    33  H    1.100581   1.787621   0.000000
    34  H    1.094300   1.776448   1.794276   0.000000
    35  C    5.515113   6.361970   6.038154   4.868062   0.000000
    36  H    6.110264   7.044009   6.471299   5.470585   1.099818
    37  H    5.855560   6.659730   6.442162   5.357701   1.094166
    38  H    5.955312   6.697705   6.567505   5.176292   1.099654
    39  C    3.893515   4.759082   4.255307   3.011468   2.489792
    40  H    4.762423   5.683811   4.939094   3.923011   2.669533
    41  H    4.249635   4.928634   4.758409   3.230097   2.862368
    42  H    3.014368   3.924249   3.237059   2.169187   3.409961
                   36         37         38         39         40
    36  H    0.000000
    37  H    1.793161   0.000000
    38  H    1.789474   1.781053   0.000000
    39  C    2.807916   3.414049   2.719460   0.000000
    40  H    2.542327   3.701411   2.923902   1.098872   0.000000
    41  H    3.343145   3.789746   2.656247   1.100598   1.787570
    42  H    3.713598   4.208480   3.757634   1.094323   1.776314
                   41         42
    41  H    0.000000
    42  H    1.794434   0.000000
 Stoichiometry    C19H21N2(1+)
 Framework group  C1[X(C19H21N2)]
 Deg. of freedom   120
 Full point group                 C1      NOp   1
 Largest Abelian subgroup         C1      NOp   1
 Largest concise Abelian subgroup C1      NOp   1
                         Standard orientation:                         
 ---------------------------------------------------------------------
 Center     Atomic      Atomic             Coordinates (Angstroms)
 Number     Number       Type             X           Y           Z
 ---------------------------------------------------------------------
      1          6           0       -5.924302   -1.175178   -0.282560
      2          6           0       -6.625626    0.000025    0.000251
      3          6           0       -4.530324   -1.177472   -0.278212
      4          6           0       -5.924206    1.175202    0.282951
      5          6           0       -3.810936   -0.000036    0.000021
      6          6           0       -4.530233    1.177435    0.278371
      7          1           0       -7.716547    0.000056    0.000331
      8          1           0       -3.994064   -2.094974   -0.527939
      9          1           0       -6.466302    2.093210    0.514746
     10          1           0       -3.993880    2.094904    0.528010
     11          6           0       -2.333716   -0.000062   -0.000109
     12          6           0       -1.604784    1.119278   -0.452707
     13          6           0       -1.604752   -1.119433    0.452341
     14          6           0       -0.216850    1.125770   -0.449243
     15          6           0       -0.216813   -1.125977    0.448670
     16          6           0        0.504919   -0.000106   -0.000309
     17          1           0       -2.141671    1.985727   -0.840835
     18          1           0       -2.141597   -1.985891    0.840507
     19          1           0        0.315693    1.995203   -0.838189
     20          1           0        0.315745   -1.995465    0.837475
     21          1           0       -6.466484   -2.093156   -0.514265
     22          6           0        1.942874   -0.000086   -0.000402
     23          6           0        3.143323   -0.702637    0.003392
     24          6           0        3.143127    0.702801   -0.003915
     25          7           0        3.787080   -1.855019   -0.001668
     26          7           0        3.786774    1.855252    0.001097
     27          6           0        3.068411   -3.122520   -0.167733
     28          1           0        3.187886   -3.748580    0.728596
     29          1           0        2.005788   -2.927607   -0.341041
     30          1           0        3.471162   -3.663551   -1.036238
     31          6           0        5.245121   -1.944160    0.100275
     32          1           0        5.509149   -2.713998    0.838669
     33          1           0        5.688951   -2.217262   -0.869111
     34          1           0        5.659251   -0.989594    0.439085
     35          6           0        3.068047    3.122616    0.168130
     36          1           0        3.188116    3.749602   -0.727455
     37          1           0        2.005304    2.927538    0.340531
     38          1           0        3.470192    3.662707    1.037509
     39          6           0        5.244950    1.944232   -0.099391
     40          1           0        5.509538    2.718440   -0.832954
     41          1           0        5.688631    2.211256    0.871774
     42          1           0        5.658779    0.991638   -0.444142
 ---------------------------------------------------------------------
 Rotational constants (GHZ):           0.7037808           0.1205812           0.1040104
 Leave Link  202 at Thu Jan 21 00:04:22 2021, MaxMem=  4026531840 cpu:               0.3 elap:               0.1
 (Enter /opt/ohpc/pub/libs/gaussian/g16-A.03/sandybridge/g16/l301.exe)
 Standard basis: TZVP (5D, 7F)
 Ernie: Thresh=  0.10000D-02 Tol=  0.10000D-05 Strict=F.
 There are   546 symmetry adapted cartesian basis functions of A   symmetry.
 There are   525 symmetry adapted basis functions of A   symmetry.
   525 basis functions,   903 primitive gaussians,   546 cartesian basis functions
    74 alpha electrons       74 beta electrons
       nuclear repulsion energy      1487.4602048397 Hartrees.
 IExCor=33909 DFT=T Ex+Corr=LC-wHPBE ExCW=0 ScaHFX=  1.000000
 ScaDFX=  1.000000  1.000000  1.000000  1.000000 ScalE2=  1.000000  1.000000
 IRadAn=      5 IRanWt=     -1 IRanGd=            0 ICorTp=0 IEmpDi=  4
 HFx  wShort=  0.000000 wLong=  0.221900 cFull=  0.000000 cShort=  0.000000 cLong=  1.000000
 DFx  wShort=  0.000000 wLong=  0.221900 cFull=  0.000000 cShort=  1.000000 cLong=  0.000000
 NAtoms=   42 NActive=   42 NUniq=   42 SFac= 1.00D+00 NAtFMM=   60 NAOKFM=F Big=F
 Integral buffers will be    131072 words long.
 Raffenetti 2 integral format.
 Two-electron integral symmetry is turned on.
 Leave Link  301 at Thu Jan 21 00:04:22 2021, MaxMem=  4026531840 cpu:               0.3 elap:               0.1
 (Enter /opt/ohpc/pub/libs/gaussian/g16-A.03/sandybridge/g16/l302.exe)
 NPDir=0 NMtPBC=     1 NCelOv=     1 NCel=       1 NClECP=     1 NCelD=      1
         NCelK=      1 NCelE2=     1 NClLst=     1 CellRange=     0.0.
 One-electron integrals computed using PRISM.
 One-electron integral symmetry used in STVInt
 NBasis=   525 RedAO= T EigKep=  8.06D-06  NBF=   525
 NBsUse=   525 1.00D-06 EigRej= -1.00D+00 NBFU=   525
 Precomputing XC quadrature grid using
 IXCGrd= 4 IRadAn=           5 IRanWt=          -1 IRanGd=           0 AccXCQ= 0.00D+00.
 Generated NRdTot=       0 NPtTot=           0 NUsed=           0 NTot=          32
 NSgBfM=   523   523   523   523   523 MxSgAt=    42 MxSgA2=    42.
 Leave Link  302 at Thu Jan 21 00:04:23 2021, MaxMem=  4026531840 cpu:               6.8 elap:               0.9
 (Enter /opt/ohpc/pub/libs/gaussian/g16-A.03/sandybridge/g16/l303.exe)
 DipDrv:  MaxL=1.
 Leave Link  303 at Thu Jan 21 00:04:23 2021, MaxMem=  4026531840 cpu:               0.6 elap:               0.1
 (Enter /opt/ohpc/pub/libs/gaussian/g16-A.03/sandybridge/g16/l401.exe)
 ExpMin= 9.52D-02 ExpMax= 1.97D+04 ExpMxC= 6.73D+02 IAcc=3 IRadAn=         5 AccDes= 0.00D+00
 Harris functional with IExCor=33909 and IRadAn=       5 diagonalized for initial guess.
 HarFok:  IExCor=33909 AccDes= 0.00D+00 IRadAn=         5 IDoV= 1 UseB2=F ITyADJ=14
 ICtDFT=  3500011 ScaDFX=  1.000000  1.000000  1.000000  1.000000
 FoFCou: FMM=F IPFlag=           0 FMFlag=      100000 FMFlg1=           0
         NFxFlg=           0 DoJE=T BraDBF=F KetDBF=T FulRan=T
         wScrn=  0.000000 ICntrl=       500 IOpCl=  0 I1Cent=   200000004 NGrid=           0
         NMat0=    1 NMatS0=      1 NMatT0=    0 NMatD0=    1 NMtDS0=    0 NMtDT0=    0
 Petite list used in FoFCou.
 Harris En= -828.064950408425    
 JPrj=0 DoOrth=F DoCkMO=F.
 Leave Link  401 at Thu Jan 21 00:04:28 2021, MaxMem=  4026531840 cpu:              39.4 elap:               5.0
 (Enter /opt/ohpc/pub/libs/gaussian/g16-A.03/sandybridge/g16/l502.exe)
 Integral symmetry usage will be decided dynamically.
 Closed shell SCF:
 Using DIIS extrapolation, IDIIS=    10.
 NGot=  4026531840 LenX=  4025925692 LenY=  4025627030
 Requested convergence on RMS density matrix=1.00D-06 within  32 cycles.
 Requested convergence on MAX density matrix=1.00D-04.
 Requested convergence on             energy=1.00D-04.
 Virtual orbitals will be shifted by   0.500 hartree.
 No special actions if energy rises.
 Dynamic level shift is on during FON iterations.

 Cycle   1  Pass 1  IDiag  1:
 FoFJK:  IHMeth= 1 ICntrl=       0 DoSepK=T KAlg= 0 I1Cent=           0 FoldK=F
 IRaf=         1 NMat=       1 IRICut=       1 DoRegI=T DoRafI=F ISym2E= 0 IDoP0=0 IntGTp=1.
 FoFCou: FMM=F IPFlag=           0 FMFlag=      100000 FMFlg1=           0
         NFxFlg=           0 DoJE=T BraDBF=F KetDBF=F FulRan=T
         wScrn=  0.000000 ICntrl=       500 IOpCl=  0 I1Cent=           0 NGrid=           0
         NMat0=    1 NMatS0=      1 NMatT0=    0 NMatD0=    1 NMtDS0=    0 NMtDT0=    0
 Symmetry not used in FoFCou.
 E= -845.095586149164    
 DIIS: error= 2.96D-02 at cycle   1 NSaved=   1.
 NSaved= 1 IEnMin= 1 EnMin= -845.095586149164     IErMin= 1 ErrMin= 2.96D-02
 ErrMax= 2.96D-02  0.00D+00 EMaxC= 1.00D+00 BMatC= 2.93D-01 BMatP= 2.93D-01
 IDIUse=1 WtCom= 1.00D+00 WtEn= 0.00D+00
 Coeff-Com:  0.100D+01
 Coeff:      0.100D+01
 Gap=     0.369 Goal=   None    Shift=    0.500
 T= 1488. Gap= 0.675 NK=0 IS=   75 IE=  525 IFin=   74
          NO(<0.9)=   0  NV(>0.1)=   0     74.00e < EF      0.00e >EF  Err=0.0D+00
 GapD=    0.369 DampG=1.000 DampE=0.500 DampFc=0.5000 IDamp=-1.
 Damping current iteration by 5.00D-01
 RMSDP=2.40D-03 MaxDP=1.04D-01              OVMax= 6.29D-02

 Cycle   2  Pass 1  IDiag  1:
 E= -845.271988186009     Delta-E=       -0.176402036845 Rises=F Damp=T
 DIIS: error= 1.24D-02 at cycle   2 NSaved=   2.
 NSaved= 2 IEnMin= 2 EnMin= -845.271988186009     IErMin= 2 ErrMin= 1.24D-02
 ErrMax= 1.24D-02  0.00D+00 EMaxC= 1.00D+00 BMatC= 5.49D-02 BMatP= 2.93D-01
 IDIUse=1 WtCom= 1.00D+00 WtEn= 0.00D+00
 Coeff-Com: -0.633D+00 0.163D+01
 Coeff:     -0.633D+00 0.163D+01
 Gap=     0.258 Goal=   None    Shift=    0.500
 T= 1359. Gap= 0.748 NK=0 IS=   75 IE=  525 IFin=   74
          NO(<0.9)=   0  NV(>0.1)=   0     74.00e < EF      0.00e >EF  Err=0.0D+00
 GapD=    0.258 DampG=1.000 DampE=0.500 DampFc=0.5000 IDamp=-1.
 Damping current iteration by 5.00D-01
 RMSDP=1.36D-03 MaxDP=5.63D-02 DE=-1.76D-01 OVMax= 1.92D-02

 Cycle   3  Pass 1  IDiag  1:
 E= -845.335770313437     Delta-E=       -0.063782127428 Rises=F Damp=T
 DIIS: error= 8.26D-03 at cycle   3 NSaved=   3.
 NSaved= 3 IEnMin= 3 EnMin= -845.335770313437     IErMin= 3 ErrMin= 8.26D-03
 ErrMax= 8.26D-03  0.00D+00 EMaxC= 1.00D+00 BMatC= 1.16D-02 BMatP= 5.49D-02
 IDIUse=1 WtCom= 1.00D+00 WtEn= 0.00D+00
 Coeff-Com:  0.716D-01-0.102D+01 0.195D+01
 Coeff:      0.716D-01-0.102D+01 0.195D+01
 Gap=     0.256 Goal=   None    Shift=    0.500
 T= 1146. Gap= 0.756 NK=0 IS=   75 IE=  525 IFin=   74
          NO(<0.9)=   0  NV(>0.1)=   0     74.00e < EF      0.00e >EF  Err=0.0D+00
 GapD=    0.256 DampG=1.000 DampE=1.000 DampFc=1.0000 IDamp=-1.
 RMSDP=7.70D-04 MaxDP=2.88D-02 DE=-6.38D-02 OVMax= 1.41D-02

 Cycle   4  Pass 1  IDiag  1:
 E= -845.390239708660     Delta-E=       -0.054469395222 Rises=F Damp=F
 DIIS: error= 3.43D-03 at cycle   4 NSaved=   4.
 NSaved= 4 IEnMin= 4 EnMin= -845.390239708660     IErMin= 4 ErrMin= 3.43D-03
 ErrMax= 3.43D-03  0.00D+00 EMaxC= 1.00D+00 BMatC= 4.28D-04 BMatP= 1.16D-02
 IDIUse=1 WtCom= 1.00D+00 WtEn= 0.00D+00
 Coeff-Com:  0.830D-01-0.264D+00 0.236D+00 0.945D+00
 Coeff:      0.830D-01-0.264D+00 0.236D+00 0.945D+00
 Gap=     0.258 Goal=   None    Shift=    0.500
 T=  705. Gap= 0.758 NK=0 IS=   75 IE=  525 IFin=   74
          NO(<0.9)=   0  NV(>0.1)=   0     74.00e < EF      0.00e >EF  Err=0.0D+00
 GapD=    0.258 DampG=1.000 DampE=1.000 DampFc=1.0000 IDamp=-1.
 RMSDP=1.15D-04 MaxDP=4.43D-03 DE=-5.45D-02 OVMax= 9.78D-03

 Cycle   5  Pass 1  IDiag  1:
 E= -845.391109693894     Delta-E=       -0.000869985234 Rises=F Damp=F
 DIIS: error= 2.70D-03 at cycle   5 NSaved=   5.
 NSaved= 5 IEnMin= 5 EnMin= -845.391109693894     IErMin= 5 ErrMin= 2.70D-03
 ErrMax= 2.70D-03  0.00D+00 EMaxC= 1.00D+00 BMatC= 1.12D-04 BMatP= 4.28D-04
 IDIUse=1 WtCom= 1.00D+00 WtEn= 0.00D+00
 Coeff-Com: -0.397D-02 0.154D+00-0.319D+00-0.293D+00 0.146D+01
 Coeff:     -0.397D-02 0.154D+00-0.319D+00-0.293D+00 0.146D+01
 Gap=     0.262 Goal=   None    Shift=    0.500
 T=  396. Gap= 0.762 NK=0 IS=   75 IE=  525 IFin=   74
          NO(<0.9)=   0  NV(>0.1)=   0     74.00e < EF      0.00e >EF  Err=0.0D+00
 GapD=    0.262 DampG=1.000 DampE=1.000 DampFc=1.0000 IDamp=-1.
 RMSDP=8.41D-05 MaxDP=2.69D-03 DE=-8.70D-04 OVMax= 8.61D-03

 Cycle   6  Pass 1  IDiag  1:
 E= -845.391545678677     Delta-E=       -0.000435984784 Rises=F Damp=F
 DIIS: error= 1.99D-03 at cycle   6 NSaved=   6.
 NSaved= 6 IEnMin= 6 EnMin= -845.391545678677     IErMin= 6 ErrMin= 1.99D-03
 ErrMax= 1.99D-03  0.00D+00 EMaxC= 1.00D+00 BMatC= 4.94D-05 BMatP= 1.12D-04
 IDIUse=1 WtCom= 1.00D+00 WtEn= 0.00D+00
 Coeff-Com: -0.322D-01 0.122D+00-0.143D+00-0.400D+00-0.918D-01 0.154D+01
 Coeff:     -0.322D-01 0.122D+00-0.143D+00-0.400D+00-0.918D-01 0.154D+01
 Gap=     0.263 Goal=   None    Shift=    0.500
 T=   53. Gap= 0.763 NK=0 IS=   75 IE=  525 IFin=   74
          NO(<0.9)=   0  NV(>0.1)=   0     74.00e < EF      0.00e >EF  Err=0.0D+00
 GapD=    0.263 DampG=1.000 DampE=1.000 DampFc=1.0000 IDamp=-1.
 RMSDP=5.72D-05 MaxDP=1.56D-03 DE=-4.36D-04 OVMax= 7.03D-03

 Cycle   7  Pass 1  IDiag  1:
 E= -845.391786163096     Delta-E=       -0.000240484419 Rises=F Damp=F
 DIIS: error= 1.41D-03 at cycle   7 NSaved=   7.
 NSaved= 7 IEnMin= 7 EnMin= -845.391786163096     IErMin= 7 ErrMin= 1.41D-03
 ErrMax= 1.41D-03  0.00D+00 EMaxC= 1.00D+00 BMatC= 2.29D-05 BMatP= 4.94D-05
 IDIUse=1 WtCom= 1.00D+00 WtEn= 0.00D+00
 Coeff-Com: -0.105D-01-0.140D-01 0.630D-01 0.233D-01-0.714D+00-0.232D+00
 Coeff-Com:  0.188D+01
 Coeff:     -0.105D-01-0.140D-01 0.630D-01 0.233D-01-0.714D+00-0.232D+00
 Coeff:      0.188D+01
 Gap=     0.263 Goal=   None    Shift=    0.500
 GapD=    0.263 DampG=1.000 DampE=1.000 DampFc=1.0000 IDamp=-1.
 RMSDP=4.10D-05 MaxDP=2.12D-03 DE=-2.40D-04 OVMax= 5.73D-03

 Cycle   8  Pass 1  IDiag  1:
 E= -845.391915623561     Delta-E=       -0.000129460465 Rises=F Damp=F
 DIIS: error= 9.73D-04 at cycle   8 NSaved=   8.
 NSaved= 8 IEnMin= 8 EnMin= -845.391915623561     IErMin= 8 ErrMin= 9.73D-04
 ErrMax= 9.73D-04  0.00D+00 EMaxC= 1.00D+00 BMatC= 1.10D-05 BMatP= 2.29D-05
 IDIUse=1 WtCom= 1.00D+00 WtEn= 0.00D+00
 Coeff-Com:  0.232D-02-0.127D-01 0.158D-01 0.169D+00-0.305D+00-0.594D+00
 Coeff-Com:  0.195D-03 0.172D+01
 Coeff:      0.232D-02-0.127D-01 0.158D-01 0.169D+00-0.305D+00-0.594D+00
 Coeff:      0.195D-03 0.172D+01
 Gap=     0.264 Goal=   None    Shift=    0.500
 RMSDP=2.55D-05 MaxDP=1.89D-03 DE=-1.29D-04 OVMax= 4.25D-03

 Cycle   9  Pass 1  IDiag  1:
 E= -845.391978299675     Delta-E=       -0.000062676114 Rises=F Damp=F
 DIIS: error= 6.54D-04 at cycle   9 NSaved=   9.
 NSaved= 9 IEnMin= 9 EnMin= -845.391978299675     IErMin= 9 ErrMin= 6.54D-04
 ErrMax= 6.54D-04  0.00D+00 EMaxC= 1.00D+00 BMatC= 5.23D-06 BMatP= 1.10D-05
 IDIUse=1 WtCom= 1.00D+00 WtEn= 0.00D+00
 Coeff-Com:  0.240D-02 0.213D-01-0.521D-01 0.890D-01 0.152D+00-0.249D+00
 Coeff-Com: -0.912D+00 0.164D+00 0.178D+01
 Coeff:      0.240D-02 0.213D-01-0.521D-01 0.890D-01 0.152D+00-0.249D+00
 Coeff:     -0.912D+00 0.164D+00 0.178D+01
 Gap=     0.264 Goal=   None    Shift=    0.500
 RMSDP=1.72D-05 MaxDP=1.47D-03 DE=-6.27D-05 OVMax= 3.15D-03

 Cycle  10  Pass 1  IDiag  1:
 E= -845.392007783630     Delta-E=       -0.000029483955 Rises=F Damp=F
 DIIS: error= 4.35D-04 at cycle  10 NSaved=  10.
 NSaved=10 IEnMin=10 EnMin= -845.392007783630     IErMin=10 ErrMin= 4.35D-04
 ErrMax= 4.35D-04  0.00D+00 EMaxC= 1.00D+00 BMatC= 2.48D-06 BMatP= 5.23D-06
 IDIUse=1 WtCom= 1.00D+00 WtEn= 0.00D+00
 Coeff-Com: -0.312D-02 0.248D-01-0.393D-01-0.225D-01 0.126D+00 0.130D+00
 Coeff-Com: -0.259D+00-0.736D+00-0.243D+00 0.202D+01
 Coeff:     -0.312D-02 0.248D-01-0.393D-01-0.225D-01 0.126D+00 0.130D+00
 Coeff:     -0.259D+00-0.736D+00-0.243D+00 0.202D+01
 Gap=     0.264 Goal=   None    Shift=    0.500
 RMSDP=1.06D-05 MaxDP=8.94D-04 DE=-2.95D-05 OVMax= 2.23D-03

 Cycle  11  Pass 1  IDiag  1:
 E= -845.392020865701     Delta-E=       -0.000013082071 Rises=F Damp=F
 DIIS: error= 2.82D-04 at cycle  11 NSaved=  11.
 NSaved=11 IEnMin=11 EnMin= -845.392020865701     IErMin=11 ErrMin= 2.82D-04
 ErrMax= 2.82D-04  0.00D+00 EMaxC= 1.00D+00 BMatC= 1.17D-06 BMatP= 2.48D-06
 IDIUse=1 WtCom= 1.00D+00 WtEn= 0.00D+00
 Coeff-Com: -0.289D-02 0.741D-02-0.509D-02-0.280D-01-0.254D-01 0.154D+00
 Coeff-Com:  0.230D+00-0.450D+00-0.639D+00-0.522D+00 0.228D+01
 Coeff:     -0.289D-02 0.741D-02-0.509D-02-0.280D-01-0.254D-01 0.154D+00
 Coeff:      0.230D+00-0.450D+00-0.639D+00-0.522D+00 0.228D+01
 Gap=     0.264 Goal=   None    Shift=    0.500
 RMSDP=6.98D-06 MaxDP=6.33D-04 DE=-1.31D-05 OVMax= 1.53D-03

 Cycle  12  Pass 1  IDiag  1:
 E= -845.392026491944     Delta-E=       -0.000005626243 Rises=F Damp=F
 DIIS: error= 1.88D-04 at cycle  12 NSaved=  12.
 NSaved=12 IEnMin=12 EnMin= -845.392026491944     IErMin=12 ErrMin= 1.88D-04
 ErrMax= 1.88D-04  0.00D+00 EMaxC= 1.00D+00 BMatC= 6.29D-07 BMatP= 1.17D-06
 IDIUse=1 WtCom= 1.00D+00 WtEn= 0.00D+00
 Coeff-Com: -0.822D-03-0.777D-03 0.408D-02 0.276D-02-0.615D-01 0.443D-01
 Coeff-Com:  0.189D+00 0.187D-01-0.169D+00-0.157D+01 0.108D+01 0.147D+01
 Coeff:     -0.822D-03-0.777D-03 0.408D-02 0.276D-02-0.615D-01 0.443D-01
 Coeff:      0.189D+00 0.187D-01-0.169D+00-0.157D+01 0.108D+01 0.147D+01
 Gap=     0.264 Goal=   None    Shift=    0.500
 RMSDP=4.01D-06 MaxDP=2.84D-04 DE=-5.63D-06 OVMax= 1.04D-03

 Cycle  13  Pass 1  IDiag  1:
 E= -845.392028971067     Delta-E=       -0.000002479123 Rises=F Damp=F
 DIIS: error= 1.21D-04 at cycle  13 NSaved=  13.
 NSaved=13 IEnMin=13 EnMin= -845.392028971067     IErMin=13 ErrMin= 1.21D-04
 ErrMax= 1.21D-04  0.00D+00 EMaxC= 1.00D+00 BMatC= 2.89D-07 BMatP= 6.29D-07
 IDIUse=1 WtCom= 1.00D+00 WtEn= 0.00D+00
 Coeff-Com:  0.464D-03-0.630D-03-0.590D-03 0.160D-01-0.132D-01-0.465D-01
 Coeff-Com: -0.289D-01 0.221D+00 0.247D+00-0.819D+00-0.739D-01-0.890D+00
 Coeff-Com:  0.239D+01
 Coeff:      0.464D-03-0.630D-03-0.590D-03 0.160D-01-0.132D-01-0.465D-01
 Coeff:     -0.289D-01 0.221D+00 0.247D+00-0.819D+00-0.739D-01-0.890D+00
 Coeff:      0.239D+01
 Gap=     0.264 Goal=   None    Shift=    0.500
 RMSDP=2.56D-06 MaxDP=1.25D-04 DE=-2.48D-06 OVMax= 7.03D-04

 Cycle  14  Pass 1  IDiag  1:
 E= -845.392030014816     Delta-E=       -0.000001043749 Rises=F Damp=F
 DIIS: error= 7.89D-05 at cycle  14 NSaved=  14.
 NSaved=14 IEnMin=14 EnMin= -845.392030014816     IErMin=14 ErrMin= 7.89D-05
 ErrMax= 7.89D-05  0.00D+00 EMaxC= 1.00D+00 BMatC= 1.46D-07 BMatP= 2.89D-07
 IDIUse=1 WtCom= 1.00D+00 WtEn= 0.00D+00
 Coeff-Com:  0.379D-03 0.730D-03-0.292D-02 0.725D-02 0.156D-01-0.369D-01
 Coeff-Com: -0.743D-01 0.136D+00 0.177D+00-0.590D-01-0.251D+00-0.148D+01
 Coeff-Com:  0.108D+01 0.149D+01
 Coeff:      0.379D-03 0.730D-03-0.292D-02 0.725D-02 0.156D-01-0.369D-01
 Coeff:     -0.743D-01 0.136D+00 0.177D+00-0.590D-01-0.251D+00-0.148D+01
 Coeff:      0.108D+01 0.149D+01
 Gap=     0.264 Goal=   None    Shift=    0.500
 RMSDP=1.58D-06 MaxDP=5.49D-05 DE=-1.04D-06 OVMax= 4.69D-04

 Cycle  15  Pass 1  IDiag  1:
 E= -845.392030468511     Delta-E=       -0.000000453695 Rises=F Damp=F
 DIIS: error= 5.07D-05 at cycle  15 NSaved=  15.
 NSaved=15 IEnMin=15 EnMin= -845.392030468511     IErMin=15 ErrMin= 5.07D-05
 ErrMax= 5.07D-05  0.00D+00 EMaxC= 1.00D+00 BMatC= 6.49D-08 BMatP= 1.46D-07
 IDIUse=1 WtCom= 1.00D+00 WtEn= 0.00D+00
 Coeff-Com: -0.204D-03 0.732D-03-0.793D-03-0.450D-02 0.629D-02 0.159D-01
 Coeff-Com:  0.466D-02-0.547D-01-0.831D-01 0.212D+00 0.141D+00-0.148D+00
 Coeff-Com: -0.538D+00-0.152D+01 0.297D+01
 Coeff:     -0.204D-03 0.732D-03-0.793D-03-0.450D-02 0.629D-02 0.159D-01
 Coeff:      0.466D-02-0.547D-01-0.831D-01 0.212D+00 0.141D+00-0.148D+00
 Coeff:     -0.538D+00-0.152D+01 0.297D+01
 Gap=     0.264 Goal=   None    Shift=    0.500
 RMSDP=9.78D-07 MaxDP=3.33D-05 DE=-4.54D-07 OVMax= 3.04D-04

 SCF Done:  E(RLC-wHPBE) =  -845.392030469     A.U. after   15 cycles
            NFock= 15  Conv=0.98D-06     -V/T= 2.0055
 KE= 8.407465944534D+02 PE=-4.918242980446D+03 EE= 1.744644150684D+03
 Leave Link  502 at Thu Jan 21 00:11:27 2021, MaxMem=  4026531840 cpu:            3339.4 elap:             418.6
 (Enter /opt/ohpc/pub/libs/gaussian/g16-A.03/sandybridge/g16/l508.exe)
 QCSCF skips out because SCF is already converged.
 Leave Link  508 at Thu Jan 21 00:11:27 2021, MaxMem=  4026531840 cpu:               0.0 elap:               0.0
 (Enter /opt/ohpc/pub/libs/gaussian/g16-A.03/sandybridge/g16/l601.exe)
 Copying SCF densities to generalized density rwf, IOpCl= 0 IROHF=0.

 **********************************************************************

            Population analysis using the SCF density.

 **********************************************************************

 Orbital symmetries:
       Occupied  (A) (A) (A) (A) (A) (A) (A) (A) (A) (A) (A) (A)
                 (A) (A) (A) (A) (A) (A) (A) (A) (A) (A) (A) (A)
                 (A) (A) (A) (A) (A) (A) (A) (A) (A) (A) (A) (A)
                 (A) (A) (A) (A) (A) (A) (A) (A) (A) (A) (A) (A)
                 (A) (A) (A) (A) (A) (A) (A) (A) (A) (A) (A) (A)
                 (A) (A) (A) (A) (A) (A) (A) (A) (A) (A) (A) (A)
                 (A) (A)
       Virtual   (A) (A) (A) (A) (A) (A) (A) (A) (A) (A) (A) (A)
                 (A) (A) (A) (A) (A) (A) (A) (A) (A) (A) (A) (A)
                 (A) (A) (A) (A) (A) (A) (A) (A) (A) (A) (A) (A)
                 (A) (A) (A) (A) (A) (A) (A) (A) (A) (A) (A) (A)
                 (A) (A) (A) (A) (A) (A) (A) (A) (A) (A) (A) (A)
                 (A) (A) (A) (A) (A) (A) (A) (A) (A) (A) (A) (A)
                 (A) (A) (A) (A) (A) (A) (A) (A) (A) (A) (A) (A)
                 (A) (A) (A) (A) (A) (A) (A) (A) (A) (A) (A) (A)
                 (A) (A) (A) (A) (A) (A) (A) (A) (A) (A) (A) (A)
                 (A) (A) (A) (A) (A) (A) (A) (A) (A) (A) (A) (A)
                 (A) (A) (A) (A) (A) (A) (A) (A) (A) (A) (A) (A)
                 (A) (A) (A) (A) (A) (A) (A) (A) (A) (A) (A) (A)
                 (A) (A) (A) (A) (A) (A) (A) (A) (A) (A) (A) (A)
                 (A) (A) (A) (A) (A) (A) (A) (A) (A) (A) (A) (A)
                 (A) (A) (A) (A) (A) (A) (A) (A) (A) (A) (A) (A)
                 (A) (A) (A) (A) (A) (A) (A) (A) (A) (A) (A) (A)
                 (A) (A) (A) (A) (A) (A) (A) (A) (A) (A) (A) (A)
                 (A) (A) (A) (A) (A) (A) (A) (A) (A) (A) (A) (A)
                 (A) (A) (A) (A) (A) (A) (A) (A) (A) (A) (A) (A)
                 (A) (A) (A) (A) (A) (A) (A) (A) (A) (A) (A) (A)
                 (A) (A) (A) (A) (A) (A) (A) (A) (A) (A) (A) (A)
                 (A) (A) (A) (A) (A) (A) (A) (A) (A) (A) (A) (A)
                 (A) (A) (A) (A) (A) (A) (A) (A) (A) (A) (A) (A)
                 (A) (A) (A) (A) (A) (A) (A) (A) (A) (A) (A) (A)
                 (A) (A) (A) (A) (A) (A) (A) (A) (A) (A) (A) (A)
                 (A) (A) (A) (A) (A) (A) (A) (A) (A) (A) (A) (A)
                 (A) (A) (A) (A) (A) (A) (A) (A) (A) (A) (A) (A)
                 (A) (A) (A) (A) (A) (A) (A) (A) (A) (A) (A) (A)
                 (A) (A) (A) (A) (A) (A) (A) (A) (A) (A) (A) (A)
                 (A) (A) (A) (A) (A) (A) (A) (A) (A) (A) (A) (A)
                 (A) (A) (A) (A) (A) (A) (A) (A) (A) (A) (A) (A)
                 (A) (A) (A) (A) (A) (A) (A) (A) (A) (A) (A) (A)
                 (A) (A) (A) (A) (A) (A) (A) (A) (A) (A) (A) (A)
                 (A) (A) (A) (A) (A) (A) (A) (A) (A) (A) (A) (A)
                 (A) (A) (A) (A) (A) (A) (A) (A) (A) (A) (A) (A)
                 (A) (A) (A) (A) (A) (A) (A) (A) (A) (A) (A) (A)
                 (A) (A) (A) (A) (A) (A) (A) (A) (A) (A) (A) (A)
                 (A) (A) (A) (A) (A) (A) (A)
 The electronic state is 1-A.
 Alpha  occ. eigenvalues --  -14.30990 -14.30989 -10.23852 -10.23819 -10.20116
 Alpha  occ. eigenvalues --  -10.18009 -10.18008 -10.17603 -10.17603 -10.15750
 Alpha  occ. eigenvalues --  -10.13972 -10.13889 -10.13888 -10.12538 -10.12536
 Alpha  occ. eigenvalues --  -10.11266 -10.09863 -10.09862 -10.09293 -10.09282
 Alpha  occ. eigenvalues --  -10.09230  -1.18313  -1.15779  -1.10210  -1.03413
 Alpha  occ. eigenvalues --   -0.99524  -0.94943  -0.92875  -0.92680  -0.92174
 Alpha  occ. eigenvalues --   -0.91208  -0.90174  -0.88464  -0.88393  -0.81593
 Alpha  occ. eigenvalues --   -0.79317  -0.75428  -0.75402  -0.74317  -0.74113
 Alpha  occ. eigenvalues --   -0.73662  -0.70198  -0.69875  -0.69021  -0.67867
 Alpha  occ. eigenvalues --   -0.67839  -0.65106  -0.64072  -0.62528  -0.62370
 Alpha  occ. eigenvalues --   -0.62097  -0.61158  -0.60689  -0.60517  -0.60321
 Alpha  occ. eigenvalues --   -0.59735  -0.59718  -0.59247  -0.58653  -0.58295
 Alpha  occ. eigenvalues --   -0.56794  -0.56729  -0.55743  -0.53813  -0.53219
 Alpha  occ. eigenvalues --   -0.52123  -0.50463  -0.49334  -0.48754  -0.47347
 Alpha  occ. eigenvalues --   -0.44633  -0.42592  -0.40974  -0.38790
 Alpha virt. eigenvalues --   -0.12411  -0.06892  -0.04711  -0.04524  -0.03667
 Alpha virt. eigenvalues --   -0.03247  -0.00794  -0.00240   0.00434   0.01361
 Alpha virt. eigenvalues --    0.01632   0.02491   0.03619   0.04109   0.04344
 Alpha virt. eigenvalues --    0.04685   0.05023   0.05421   0.05547   0.05880
 Alpha virt. eigenvalues --    0.06372   0.06776   0.07378   0.07542   0.07817
 Alpha virt. eigenvalues --    0.08300   0.09521   0.10043   0.10217   0.10482
 Alpha virt. eigenvalues --    0.10589   0.11055   0.12463   0.12539   0.12726
 Alpha virt. eigenvalues --    0.12993   0.13196   0.13734   0.14075   0.14080
 Alpha virt. eigenvalues --    0.15170   0.15809   0.16348   0.18211   0.18746
 Alpha virt. eigenvalues --    0.19038   0.19186   0.20011   0.20570   0.21212
 Alpha virt. eigenvalues --    0.21265   0.21723   0.22050   0.22814   0.23022
 Alpha virt. eigenvalues --    0.23310   0.23479   0.23806   0.24330   0.24718
 Alpha virt. eigenvalues --    0.24991   0.25273   0.25487   0.26449   0.26913
 Alpha virt. eigenvalues --    0.27043   0.27083   0.27908   0.29086   0.29130
 Alpha virt. eigenvalues --    0.30287   0.30792   0.31160   0.31167   0.31270
 Alpha virt. eigenvalues --    0.32028   0.32636   0.32843   0.33984   0.34320
 Alpha virt. eigenvalues --    0.34611   0.35446   0.35448   0.36131   0.37076
 Alpha virt. eigenvalues --    0.37369   0.37485   0.37827   0.38226   0.38291
 Alpha virt. eigenvalues --    0.38669   0.39285   0.39291   0.39398   0.39841
 Alpha virt. eigenvalues --    0.40402   0.40867   0.41300   0.41345   0.42059
 Alpha virt. eigenvalues --    0.42623   0.42775   0.42942   0.43558   0.43832
 Alpha virt. eigenvalues --    0.43930   0.44342   0.45517   0.45524   0.46561
 Alpha virt. eigenvalues --    0.46933   0.47646   0.47902   0.48959   0.49034
 Alpha virt. eigenvalues --    0.49316   0.49489   0.50332   0.51118   0.51335
 Alpha virt. eigenvalues --    0.51553   0.52220   0.53460   0.54061   0.54941
 Alpha virt. eigenvalues --    0.55332   0.55864   0.57394   0.58289   0.58839
 Alpha virt. eigenvalues --    0.59390   0.59516   0.60553   0.61546   0.62159
 Alpha virt. eigenvalues --    0.63941   0.64437   0.65362   0.65527   0.66209
 Alpha virt. eigenvalues --    0.67672   0.67821   0.68164   0.68252   0.68979
 Alpha virt. eigenvalues --    0.70877   0.71121   0.73812   0.73978   0.75871
 Alpha virt. eigenvalues --    0.76256   0.79363   0.80643   0.82296   0.82309
 Alpha virt. eigenvalues --    0.85629   0.87417   1.06188   1.06544   1.10917
 Alpha virt. eigenvalues --    1.13553   1.14833   1.15019   1.16745   1.17751
 Alpha virt. eigenvalues --    1.18244   1.18368   1.18929   1.19673   1.20217
 Alpha virt. eigenvalues --    1.21107   1.21922   1.22537   1.22751   1.23318
 Alpha virt. eigenvalues --    1.23960   1.24351   1.24876   1.25257   1.25886
 Alpha virt. eigenvalues --    1.25971   1.26655   1.26671   1.27391   1.27502
 Alpha virt. eigenvalues --    1.27809   1.28155   1.28844   1.29021   1.29197
 Alpha virt. eigenvalues --    1.29383   1.29503   1.30114   1.30940   1.31499
 Alpha virt. eigenvalues --    1.33326   1.34796   1.36136   1.37010   1.37251
 Alpha virt. eigenvalues --    1.37704   1.38408   1.38477   1.38891   1.39163
 Alpha virt. eigenvalues --    1.39469   1.39797   1.41392   1.41621   1.41683
 Alpha virt. eigenvalues --    1.41989   1.42135   1.42658   1.43290   1.43911
 Alpha virt. eigenvalues --    1.44215   1.44478   1.44892   1.45509   1.45620
 Alpha virt. eigenvalues --    1.46112   1.46553   1.46654   1.47265   1.47621
 Alpha virt. eigenvalues --    1.48082   1.48180   1.48433   1.49360   1.50181
 Alpha virt. eigenvalues --    1.50807   1.51036   1.51897   1.52377   1.53777
 Alpha virt. eigenvalues --    1.54232   1.55175   1.55758   1.56257   1.56887
 Alpha virt. eigenvalues --    1.57195   1.58385   1.58995   1.60118   1.60925
 Alpha virt. eigenvalues --    1.61967   1.62866   1.63996   1.64139   1.65317
 Alpha virt. eigenvalues --    1.66866   1.66939   1.67429   1.68730   1.68810
 Alpha virt. eigenvalues --    1.69337   1.69945   1.70735   1.71044   1.71415
 Alpha virt. eigenvalues --    1.71449   1.73442   1.73658   1.73844   1.74200
 Alpha virt. eigenvalues --    1.75053   1.75245   1.75255   1.76519   1.77587
 Alpha virt. eigenvalues --    1.77660   1.79271   1.80986   1.81029   1.81373
 Alpha virt. eigenvalues --    1.82250   1.84184   1.84382   1.84424   1.85903
 Alpha virt. eigenvalues --    1.86505   1.86714   1.88283   1.88699   1.89742
 Alpha virt. eigenvalues --    1.90701   1.91779   1.92362   1.92480   1.93897
 Alpha virt. eigenvalues --    1.94356   1.95373   1.96225   1.97149   1.97315
 Alpha virt. eigenvalues --    1.97612   1.98478   2.00873   2.01631   2.02448
 Alpha virt. eigenvalues --    2.03028   2.04873   2.06682   2.06694   2.08385
 Alpha virt. eigenvalues --    2.08724   2.11692   2.12858   2.13088   2.18151
 Alpha virt. eigenvalues --    2.19092   2.19306   2.19870   2.21027   2.21541
 Alpha virt. eigenvalues --    2.21620   2.23131   2.23334   2.23522   2.24226
 Alpha virt. eigenvalues --    2.25196   2.25304   2.25795   2.26236   2.26424
 Alpha virt. eigenvalues --    2.27466   2.28133   2.28410   2.29134   2.29428
 Alpha virt. eigenvalues --    2.29723   2.30302   2.30666   2.32614   2.34893
 Alpha virt. eigenvalues --    2.34956   2.36456   2.37473   2.38624   2.41393
 Alpha virt. eigenvalues --    2.41701   2.43003   2.43355   2.44811   2.45190
 Alpha virt. eigenvalues --    2.45399   2.46121   2.46754   2.48274   2.48560
 Alpha virt. eigenvalues --    2.48710   2.49169   2.49735   2.49846   2.51552
 Alpha virt. eigenvalues --    2.54765   2.55432   2.55968   2.56767   2.58087
 Alpha virt. eigenvalues --    2.58428   2.58661   2.59957   2.60415   2.62117
 Alpha virt. eigenvalues --    2.62157   2.63195   2.63579   2.64656   2.64974
 Alpha virt. eigenvalues --    2.65569   2.66119   2.66601   2.67219   2.69273
 Alpha virt. eigenvalues --    2.70285   2.72788   2.75130   2.75368   2.76212
 Alpha virt. eigenvalues --    2.76266   2.76844   2.78169   2.83892   2.91668
 Alpha virt. eigenvalues --    2.93439   2.93853   2.97348   2.98347   2.99141
 Alpha virt. eigenvalues --    2.99573   3.00352   3.00600   3.02350   3.02911
 Alpha virt. eigenvalues --    3.04542   3.05028   3.05292   3.08011   3.09048
 Alpha virt. eigenvalues --    3.09974   3.12885   3.13478   3.15565   3.16487
 Alpha virt. eigenvalues --    3.18515   3.19569   3.19893   3.20102   3.20835
 Alpha virt. eigenvalues --    3.22278   3.23162   3.25505   3.27018   3.28023
 Alpha virt. eigenvalues --    3.28914   3.29832   3.31518   3.34710   3.34833
 Alpha virt. eigenvalues --    3.35432   3.35918   3.48107   3.53281   3.56794
 Alpha virt. eigenvalues --    3.61903   3.69496   3.70215   3.76103   3.87243
 Alpha virt. eigenvalues --   21.08881  21.24572  21.40135  21.47504  21.58720
 Alpha virt. eigenvalues --   21.61575  21.62010  21.66178  21.70835  21.79021
 Alpha virt. eigenvalues --   21.82087  21.85655  21.85966  21.87185  21.89509
 Alpha virt. eigenvalues --   21.97131  22.00806  22.03703  22.05037  31.54182
 Alpha virt. eigenvalues --   31.69261
          Condensed to atoms (all electrons):
               1          2          3          4          5          6
     1  C    4.944588   0.480778   0.409799  -0.006469  -0.004824  -0.102338
     2  C    0.480778   4.937726  -0.028690   0.480778  -0.066527  -0.028706
     3  C    0.409799  -0.028690   5.178167  -0.102351   0.393719  -0.050240
     4  C   -0.006469   0.480778  -0.102351   4.944572  -0.004828   0.409831
     5  C   -0.004824  -0.066527   0.393719  -0.004828   5.508338   0.393769
     6  C   -0.102338  -0.028706  -0.050240   0.409831   0.393769   5.178108
     7  H   -0.053334   0.415764   0.017466  -0.053335  -0.004226   0.017466
     8  H   -0.014667   0.008657   0.392871  -0.000939  -0.061302   0.010992
     9  H    0.011559  -0.048607   0.000038   0.411362   0.014332  -0.049422
    10  H   -0.000939   0.008658   0.010995  -0.014670  -0.061299   0.392870
    11  C    0.014266   0.009438  -0.055754   0.014266   0.089849  -0.055783
    12  C   -0.000539  -0.000344   0.027081   0.003999  -0.127865  -0.023692
    13  C    0.003999  -0.000344  -0.023708  -0.000537  -0.127805   0.027084
    14  C    0.000458  -0.000043  -0.001277  -0.000757   0.046446   0.001431
    15  C   -0.000757  -0.000043   0.001437   0.000457   0.046410  -0.001279
    16  C   -0.000024   0.000018   0.001172  -0.000024  -0.011933   0.001174
    17  H    0.000023  -0.000034  -0.000217   0.001360  -0.014564   0.001754
    18  H    0.001360  -0.000034   0.001753   0.000023  -0.014560  -0.000217
    19  H   -0.000001  -0.000000  -0.000013  -0.000002  -0.000738   0.000019
    20  H   -0.000002  -0.000000   0.000019  -0.000001  -0.000738  -0.000013
    21  H    0.411364  -0.048609  -0.049425   0.011559   0.014333   0.000038
    22  C   -0.000005   0.000001   0.000187  -0.000005  -0.004764   0.000187
    23  C    0.000000   0.000000   0.000017  -0.000000  -0.000091  -0.000004
    24  C   -0.000000   0.000000  -0.000004   0.000000  -0.000092   0.000017
    25  N    0.000000   0.000000   0.000000  -0.000000  -0.000000   0.000000
    26  N   -0.000000   0.000000   0.000000   0.000000  -0.000000   0.000000
    27  C    0.000000   0.000000   0.000000  -0.000000  -0.000004  -0.000000
    28  H   -0.000000  -0.000000  -0.000000   0.000000   0.000000  -0.000000
    29  H   -0.000000   0.000000   0.000003   0.000000  -0.000027   0.000000
    30  H    0.000000   0.000000   0.000000  -0.000000   0.000000   0.000000
    31  C    0.000000   0.000000   0.000000  -0.000000  -0.000000  -0.000000
    32  H   -0.000000  -0.000000  -0.000000   0.000000   0.000000   0.000000
    33  H    0.000000  -0.000000  -0.000000  -0.000000   0.000000  -0.000000
    34  H    0.000000   0.000000   0.000000  -0.000000  -0.000000   0.000000
    35  C   -0.000000   0.000000  -0.000000   0.000000  -0.000004   0.000000
    36  H    0.000000  -0.000000  -0.000000  -0.000000   0.000000  -0.000000
    37  H    0.000000   0.000000   0.000000  -0.000000  -0.000027   0.000003
    38  H   -0.000000   0.000000   0.000000   0.000000   0.000000   0.000000
    39  C   -0.000000   0.000000  -0.000000   0.000000  -0.000000   0.000000
    40  H    0.000000  -0.000000   0.000000  -0.000000   0.000000  -0.000000
    41  H   -0.000000  -0.000000  -0.000000   0.000000   0.000000  -0.000000
    42  H   -0.000000   0.000000   0.000000   0.000000  -0.000000   0.000000
               7          8          9         10         11         12
     1  C   -0.053334  -0.014667   0.011559  -0.000939   0.014266  -0.000539
     2  C    0.415764   0.008657  -0.048607   0.008658   0.009438  -0.000344
     3  C    0.017466   0.392871   0.000038   0.010995  -0.055754   0.027081
     4  C   -0.053335  -0.000939   0.411362  -0.014670   0.014266   0.003999
     5  C   -0.004226  -0.061302   0.014332  -0.061299   0.089849  -0.127865
     6  C    0.017466   0.010992  -0.049422   0.392870  -0.055783  -0.023692
     7  H    0.540783  -0.000187  -0.006530  -0.000187  -0.000245  -0.000007
     8  H   -0.000187   0.538255   0.000031  -0.000163  -0.013903  -0.000038
     9  H   -0.006530   0.000031   0.547639  -0.005734  -0.001665   0.000029
    10  H   -0.000187  -0.000163  -0.005734   0.538257  -0.013907   0.003712
    11  C   -0.000245  -0.013903  -0.001665  -0.013907   5.302057   0.435531
    12  C   -0.000007  -0.000038   0.000029   0.003712   0.435531   5.344336
    13  C   -0.000007   0.003712   0.000014  -0.000039   0.435496  -0.090904
    14  C    0.000000  -0.000203  -0.000005   0.001362  -0.018574   0.190492
    15  C    0.000000   0.001362  -0.000001  -0.000203  -0.018600  -0.056804
    16  C   -0.000000   0.000211  -0.000000   0.000211  -0.045602   0.014118
    17  H   -0.000002  -0.000015   0.000007   0.000353  -0.043585   0.392106
    18  H   -0.000002   0.000353   0.000000  -0.000015  -0.043598   0.008594
    19  H    0.000000  -0.000001  -0.000000  -0.000041   0.010163  -0.002523
    20  H    0.000000  -0.000041   0.000000  -0.000001   0.010171   0.002815
    21  H   -0.006530  -0.005734  -0.000180   0.000031  -0.001665   0.000014
    22  C   -0.000000   0.000033  -0.000000   0.000033  -0.016620   0.033111
    23  C   -0.000000   0.000000   0.000000   0.000001  -0.001900  -0.008768
    24  C   -0.000000   0.000001  -0.000000   0.000000  -0.001902   0.013883
    25  N   -0.000000  -0.000000  -0.000000   0.000000  -0.000024  -0.000014
    26  N   -0.000000   0.000000  -0.000000  -0.000000  -0.000024   0.000189
    27  C   -0.000000  -0.000001  -0.000000  -0.000000  -0.000059  -0.000018
    28  H    0.000000   0.000000   0.000000  -0.000000   0.000005   0.000005
    29  H    0.000000   0.000003  -0.000000  -0.000000  -0.000113   0.000180
    30  H   -0.000000   0.000000   0.000000   0.000000   0.000000  -0.000004
    31  C   -0.000000  -0.000000   0.000000   0.000000  -0.000001  -0.000005
    32  H    0.000000   0.000000   0.000000  -0.000000   0.000000   0.000000
    33  H    0.000000  -0.000000  -0.000000   0.000000  -0.000000  -0.000000
    34  H    0.000000  -0.000000  -0.000000  -0.000000   0.000000  -0.000000
    35  C   -0.000000  -0.000000  -0.000000  -0.000001  -0.000059   0.000260
    36  H    0.000000  -0.000000   0.000000   0.000000   0.000005  -0.000094
    37  H    0.000000  -0.000000  -0.000000   0.000003  -0.000113  -0.000104
    38  H   -0.000000   0.000000   0.000000   0.000000   0.000000   0.000038
    39  C   -0.000000   0.000000  -0.000000  -0.000000  -0.000001   0.000017
    40  H    0.000000  -0.000000   0.000000   0.000000   0.000000  -0.000002
    41  H    0.000000   0.000000   0.000000  -0.000000  -0.000000   0.000001
    42  H    0.000000  -0.000000  -0.000000  -0.000000   0.000000   0.000001
              13         14         15         16         17         18
     1  C    0.003999   0.000458  -0.000757  -0.000024   0.000023   0.001360
     2  C   -0.000344  -0.000043  -0.000043   0.000018  -0.000034  -0.000034
     3  C   -0.023708  -0.001277   0.001437   0.001172  -0.000217   0.001753
     4  C   -0.000537  -0.000757   0.000457  -0.000024   0.001360   0.000023
     5  C   -0.127805   0.046446   0.046410  -0.011933  -0.014564  -0.014560
     6  C    0.027084   0.001431  -0.001279   0.001174   0.001754  -0.000217
     7  H   -0.000007   0.000000   0.000000  -0.000000  -0.000002  -0.000002
     8  H    0.003712  -0.000203   0.001362   0.000211  -0.000015   0.000353
     9  H    0.000014  -0.000005  -0.000001  -0.000000   0.000007   0.000000
    10  H   -0.000039   0.001362  -0.000203   0.000211   0.000353  -0.000015
    11  C    0.435496  -0.018574  -0.018600  -0.045602  -0.043585  -0.043598
    12  C   -0.090904   0.190492  -0.056804   0.014118   0.392106   0.008594
    13  C    5.344239  -0.056803   0.190621   0.014047   0.008593   0.392113
    14  C   -0.056803   5.377850  -0.125898   0.380365  -0.023360   0.001899
    15  C    0.190621  -0.125898   5.377557   0.380630   0.001898  -0.023364
    16  C    0.014047   0.380365   0.380630   5.696598   0.010881   0.010883
    17  H    0.008593  -0.023360   0.001898   0.010881   0.510085  -0.000154
    18  H    0.392113   0.001899  -0.023364   0.010883  -0.000154   0.510097
    19  H    0.002818   0.405024   0.001036  -0.096176  -0.005062   0.000047
    20  H   -0.002518   0.001046   0.405021  -0.096156   0.000047  -0.005065
    21  H    0.000029  -0.000001  -0.000005  -0.000000   0.000000   0.000007
    22  C    0.033134  -0.064733  -0.064710   0.108643  -0.000136  -0.000137
    23  C    0.013873   0.044992  -0.062184  -0.219222   0.000080   0.000176
    24  C   -0.008764  -0.062194   0.044955  -0.219319   0.000176   0.000080
    25  N    0.000189   0.000124   0.000685  -0.012656   0.000000   0.000002
    26  N   -0.000014   0.000679   0.000126  -0.012642   0.000002   0.000000
    27  C    0.000259   0.000009  -0.003675  -0.014852  -0.000000   0.000004
    28  H   -0.000095  -0.000033   0.000144  -0.000160   0.000000  -0.000003
    29  H   -0.000100  -0.000768   0.006358  -0.020501   0.000000  -0.000017
    30  H    0.000038   0.000031  -0.000130   0.001044  -0.000000   0.000000
    31  C    0.000017   0.000065  -0.000020  -0.002734   0.000000   0.000000
    32  H   -0.000002  -0.000002   0.000005  -0.000001   0.000000  -0.000000
    33  H    0.000001   0.000001  -0.000019   0.000120  -0.000000   0.000000
    34  H    0.000001   0.000011   0.000011  -0.000281  -0.000000  -0.000000
    35  C   -0.000018  -0.003699   0.000011  -0.014822   0.000004  -0.000000
    36  H    0.000005   0.000144  -0.000033  -0.000160  -0.000003   0.000000
    37  H    0.000180   0.006380  -0.000770  -0.020525  -0.000017   0.000000
    38  H   -0.000004  -0.000130   0.000031   0.001045   0.000000  -0.000000
    39  C   -0.000005  -0.000021   0.000065  -0.002735   0.000000   0.000000
    40  H    0.000000   0.000005  -0.000002  -0.000001  -0.000000   0.000000
    41  H   -0.000000  -0.000019   0.000001   0.000120   0.000000  -0.000000
    42  H   -0.000000   0.000011   0.000011  -0.000279  -0.000000  -0.000000
              19         20         21         22         23         24
     1  C   -0.000001  -0.000002   0.411364  -0.000005   0.000000  -0.000000
     2  C   -0.000000  -0.000000  -0.048609   0.000001   0.000000   0.000000
     3  C   -0.000013   0.000019  -0.049425   0.000187   0.000017  -0.000004
     4  C   -0.000002  -0.000001   0.011559  -0.000005  -0.000000   0.000000
     5  C   -0.000738  -0.000738   0.014333  -0.004764  -0.000091  -0.000092
     6  C    0.000019  -0.000013   0.000038   0.000187  -0.000004   0.000017
     7  H    0.000000   0.000000  -0.006530  -0.000000  -0.000000  -0.000000
     8  H   -0.000001  -0.000041  -0.005734   0.000033   0.000000   0.000001
     9  H   -0.000000   0.000000  -0.000180  -0.000000   0.000000  -0.000000
    10  H   -0.000041  -0.000001   0.000031   0.000033   0.000001   0.000000
    11  C    0.010163   0.010171  -0.001665  -0.016620  -0.001900  -0.001902
    12  C   -0.002523   0.002815   0.000014   0.033111  -0.008768   0.013883
    13  C    0.002818  -0.002518   0.000029   0.033134   0.013873  -0.008764
    14  C    0.405024   0.001046  -0.000001  -0.064733   0.044992  -0.062194
    15  C    0.001036   0.405021  -0.000005  -0.064710  -0.062184   0.044955
    16  C   -0.096176  -0.096156  -0.000000   0.108643  -0.219222  -0.219319
    17  H   -0.005062   0.000047   0.000000  -0.000136   0.000080   0.000176
    18  H    0.000047  -0.005065   0.000007  -0.000137   0.000176   0.000080
    19  H    0.542288  -0.000231   0.000000  -0.000602   0.005255  -0.000995
    20  H   -0.000231   0.542328  -0.000000  -0.000642  -0.000988   0.005246
    21  H    0.000000  -0.000000   0.547639  -0.000000  -0.000000   0.000000
    22  C   -0.000602  -0.000642  -0.000000   6.707633  -0.000700   0.000199
    23  C    0.005255  -0.000988  -0.000000  -0.000700   6.040663  -0.209723
    24  C   -0.000995   0.005246   0.000000   0.000199  -0.209723   6.040100
    25  N    0.000028  -0.000060  -0.000000  -0.142306   0.553035  -0.087507
    26  N   -0.000058   0.000028  -0.000000  -0.142303  -0.087498   0.552908
    27  C   -0.000002  -0.001637  -0.000000  -0.000515  -0.045775  -0.002285
    28  H    0.000000   0.000170   0.000000   0.005614  -0.001844  -0.001559
    29  H   -0.000017   0.000375  -0.000000   0.012200  -0.019789   0.018916
    30  H    0.000000   0.000247   0.000000  -0.003284   0.006758  -0.001068
    31  C    0.000004   0.000019  -0.000000  -0.012675  -0.057592  -0.006612
    32  H    0.000000   0.000010   0.000000   0.001059   0.008479  -0.001274
    33  H   -0.000000  -0.000001   0.000000  -0.002333  -0.003326   0.003165
    34  H   -0.000001   0.000001  -0.000000   0.007457  -0.012679  -0.000684
    35  C   -0.001645  -0.000002  -0.000000  -0.000618  -0.002310  -0.045695
    36  H    0.000170   0.000000   0.000000   0.005604  -0.001553  -0.001771
    37  H    0.000373  -0.000017  -0.000000   0.012294   0.018930  -0.019811
    38  H    0.000246   0.000000   0.000000  -0.003289  -0.001075   0.006675
    39  C    0.000018   0.000004   0.000000  -0.012720  -0.006543  -0.057683
    40  H    0.000010   0.000000   0.000000   0.001052  -0.001263   0.008596
    41  H   -0.000001  -0.000000  -0.000000  -0.002335   0.003184  -0.003461
    42  H    0.000001  -0.000001  -0.000000   0.007369  -0.000779  -0.012726
              25         26         27         28         29         30
     1  C    0.000000  -0.000000   0.000000  -0.000000  -0.000000   0.000000
     2  C    0.000000   0.000000   0.000000  -0.000000   0.000000   0.000000
     3  C    0.000000   0.000000   0.000000  -0.000000   0.000003   0.000000
     4  C   -0.000000   0.000000  -0.000000   0.000000   0.000000  -0.000000
     5  C   -0.000000  -0.000000  -0.000004   0.000000  -0.000027   0.000000
     6  C    0.000000   0.000000  -0.000000  -0.000000   0.000000   0.000000
     7  H   -0.000000  -0.000000  -0.000000   0.000000   0.000000  -0.000000
     8  H   -0.000000   0.000000  -0.000001   0.000000   0.000003   0.000000
     9  H   -0.000000  -0.000000  -0.000000   0.000000  -0.000000   0.000000
    10  H    0.000000  -0.000000  -0.000000  -0.000000  -0.000000   0.000000
    11  C   -0.000024  -0.000024  -0.000059   0.000005  -0.000113   0.000000
    12  C   -0.000014   0.000189  -0.000018   0.000005   0.000180  -0.000004
    13  C    0.000189  -0.000014   0.000259  -0.000095  -0.000100   0.000038
    14  C    0.000124   0.000679   0.000009  -0.000033  -0.000768   0.000031
    15  C    0.000685   0.000126  -0.003675   0.000144   0.006358  -0.000130
    16  C   -0.012656  -0.012642  -0.014852  -0.000160  -0.020501   0.001044
    17  H    0.000000   0.000002  -0.000000   0.000000   0.000000  -0.000000
    18  H    0.000002   0.000000   0.000004  -0.000003  -0.000017   0.000000
    19  H    0.000028  -0.000058  -0.000002   0.000000  -0.000017   0.000000
    20  H   -0.000060   0.000028  -0.001637   0.000170   0.000375   0.000247
    21  H   -0.000000  -0.000000  -0.000000   0.000000  -0.000000   0.000000
    22  C   -0.142306  -0.142303  -0.000515   0.005614   0.012200  -0.003284
    23  C    0.553035  -0.087498  -0.045775  -0.001844  -0.019789   0.006758
    24  C   -0.087507   0.552908  -0.002285  -0.001559   0.018916  -0.001068
    25  N    6.424407  -0.000771   0.225198  -0.035384  -0.025189  -0.041528
    26  N   -0.000771   6.424640  -0.000645   0.000002   0.000087  -0.000005
    27  C    0.225198  -0.000645   4.929639   0.409003   0.391090   0.409780
    28  H   -0.035384   0.000002   0.409003   0.507828  -0.016932  -0.030577
    29  H   -0.025189   0.000087   0.391090  -0.016932   0.518583  -0.021491
    30  H   -0.041528  -0.000005   0.409780  -0.030577  -0.021491   0.512841
    31  C    0.238941   0.000292  -0.059067  -0.009774   0.008283   0.001190
    32  H   -0.038509  -0.000011  -0.001606   0.005470   0.000443  -0.002958
    33  H   -0.038569  -0.000079  -0.006445  -0.000881  -0.000270   0.004693
    34  H   -0.026924  -0.001850   0.009393  -0.000103  -0.000497   0.000148
    35  C   -0.000645   0.225143   0.000009  -0.000001   0.000008  -0.000000
    36  H    0.000002  -0.035353  -0.000001  -0.000000  -0.000000   0.000000
    37  H    0.000087  -0.025245   0.000008  -0.000000  -0.000002   0.000000
    38  H   -0.000005  -0.041559  -0.000000   0.000000   0.000000  -0.000000
    39  C    0.000289   0.238793  -0.000150   0.000003   0.000029  -0.000004
    40  H   -0.000011  -0.038394  -0.000000  -0.000000  -0.000000   0.000000
    41  H   -0.000079  -0.038614   0.000007   0.000001   0.000000  -0.000000
    42  H   -0.001827  -0.026796  -0.000015   0.000003   0.000006  -0.000002
              31         32         33         34         35         36
     1  C    0.000000  -0.000000   0.000000   0.000000  -0.000000   0.000000
     2  C    0.000000  -0.000000  -0.000000   0.000000   0.000000  -0.000000
     3  C    0.000000  -0.000000  -0.000000   0.000000  -0.000000  -0.000000
     4  C   -0.000000   0.000000  -0.000000  -0.000000   0.000000  -0.000000
     5  C   -0.000000   0.000000   0.000000  -0.000000  -0.000004   0.000000
     6  C   -0.000000   0.000000  -0.000000   0.000000   0.000000  -0.000000
     7  H   -0.000000   0.000000   0.000000   0.000000  -0.000000   0.000000
     8  H   -0.000000   0.000000  -0.000000  -0.000000  -0.000000  -0.000000
     9  H    0.000000   0.000000  -0.000000  -0.000000  -0.000000   0.000000
    10  H    0.000000  -0.000000   0.000000  -0.000000  -0.000001   0.000000
    11  C   -0.000001   0.000000  -0.000000   0.000000  -0.000059   0.000005
    12  C   -0.000005   0.000000  -0.000000  -0.000000   0.000260  -0.000094
    13  C    0.000017  -0.000002   0.000001   0.000001  -0.000018   0.000005
    14  C    0.000065  -0.000002   0.000001   0.000011  -0.003699   0.000144
    15  C   -0.000020   0.000005  -0.000019   0.000011   0.000011  -0.000033
    16  C   -0.002734  -0.000001   0.000120  -0.000281  -0.014822  -0.000160
    17  H    0.000000   0.000000  -0.000000  -0.000000   0.000004  -0.000003
    18  H    0.000000  -0.000000   0.000000  -0.000000  -0.000000   0.000000
    19  H    0.000004   0.000000  -0.000000  -0.000001  -0.001645   0.000170
    20  H    0.000019   0.000010  -0.000001   0.000001  -0.000002   0.000000
    21  H   -0.000000   0.000000   0.000000  -0.000000  -0.000000   0.000000
    22  C   -0.012675   0.001059  -0.002333   0.007457  -0.000618   0.005604
    23  C   -0.057592   0.008479  -0.003326  -0.012679  -0.002310  -0.001553
    24  C   -0.006612  -0.001274   0.003165  -0.000684  -0.045695  -0.001771
    25  N    0.238941  -0.038509  -0.038569  -0.026924  -0.000645   0.000002
    26  N    0.000292  -0.000011  -0.000079  -0.001850   0.225143  -0.035353
    27  C   -0.059067  -0.001606  -0.006445   0.009393   0.000009  -0.000001
    28  H   -0.009774   0.005470  -0.000881  -0.000103  -0.000001  -0.000000
    29  H    0.008283   0.000443  -0.000270  -0.000497   0.000008  -0.000000
    30  H    0.001190  -0.002958   0.004693   0.000148  -0.000000   0.000000
    31  C    4.932907   0.401430   0.417885   0.394875  -0.000152   0.000003
    32  H    0.401430   0.510367  -0.028643  -0.020387  -0.000000  -0.000000
    33  H    0.417885  -0.028643   0.503285  -0.022696   0.000007   0.000001
    34  H    0.394875  -0.020387  -0.022696   0.536253  -0.000013   0.000003
    35  C   -0.000152  -0.000000   0.000007  -0.000013   4.929667   0.408948
    36  H    0.000003  -0.000000   0.000001   0.000003   0.408948   0.507739
    37  H    0.000029  -0.000001   0.000000   0.000006   0.391063  -0.016900
    38  H   -0.000004   0.000000  -0.000000  -0.000002   0.409874  -0.030555
    39  C   -0.003456   0.000168  -0.000071  -0.002621  -0.058880  -0.009844
    40  H    0.000168  -0.000005   0.000011   0.000290  -0.001617   0.005449
    41  H   -0.000072   0.000012  -0.000016  -0.000238  -0.006419  -0.000867
    42  H   -0.002713   0.000290  -0.000227   0.002060   0.009370  -0.000099
              37         38         39         40         41         42
     1  C    0.000000  -0.000000  -0.000000   0.000000  -0.000000  -0.000000
     2  C    0.000000   0.000000   0.000000  -0.000000  -0.000000   0.000000
     3  C    0.000000   0.000000  -0.000000   0.000000  -0.000000   0.000000
     4  C   -0.000000   0.000000   0.000000  -0.000000   0.000000   0.000000
     5  C   -0.000027   0.000000  -0.000000   0.000000   0.000000  -0.000000
     6  C    0.000003   0.000000   0.000000  -0.000000  -0.000000   0.000000
     7  H    0.000000  -0.000000  -0.000000   0.000000   0.000000   0.000000
     8  H   -0.000000   0.000000   0.000000  -0.000000   0.000000  -0.000000
     9  H   -0.000000   0.000000  -0.000000   0.000000   0.000000  -0.000000
    10  H    0.000003   0.000000  -0.000000   0.000000  -0.000000  -0.000000
    11  C   -0.000113   0.000000  -0.000001   0.000000  -0.000000   0.000000
    12  C   -0.000104   0.000038   0.000017  -0.000002   0.000001   0.000001
    13  C    0.000180  -0.000004  -0.000005   0.000000  -0.000000  -0.000000
    14  C    0.006380  -0.000130  -0.000021   0.000005  -0.000019   0.000011
    15  C   -0.000770   0.000031   0.000065  -0.000002   0.000001   0.000011
    16  C   -0.020525   0.001045  -0.002735  -0.000001   0.000120  -0.000279
    17  H   -0.000017   0.000000   0.000000  -0.000000   0.000000  -0.000000
    18  H    0.000000  -0.000000   0.000000   0.000000  -0.000000  -0.000000
    19  H    0.000373   0.000246   0.000018   0.000010  -0.000001   0.000001
    20  H   -0.000017   0.000000   0.000004   0.000000  -0.000000  -0.000001
    21  H   -0.000000   0.000000   0.000000   0.000000  -0.000000  -0.000000
    22  C    0.012294  -0.003289  -0.012720   0.001052  -0.002335   0.007369
    23  C    0.018930  -0.001075  -0.006543  -0.001263   0.003184  -0.000779
    24  C   -0.019811   0.006675  -0.057683   0.008596  -0.003461  -0.012726
    25  N    0.000087  -0.000005   0.000289  -0.000011  -0.000079  -0.001827
    26  N   -0.025245  -0.041559   0.238793  -0.038394  -0.038614  -0.026796
    27  C    0.000008  -0.000000  -0.000150  -0.000000   0.000007  -0.000015
    28  H   -0.000000   0.000000   0.000003  -0.000000   0.000001   0.000003
    29  H   -0.000002   0.000000   0.000029  -0.000000   0.000000   0.000006
    30  H    0.000000  -0.000000  -0.000004   0.000000  -0.000000  -0.000002
    31  C    0.000029  -0.000004  -0.003456   0.000168  -0.000072  -0.002713
    32  H   -0.000001   0.000000   0.000168  -0.000005   0.000012   0.000290
    33  H    0.000000  -0.000000  -0.000071   0.000011  -0.000016  -0.000227
    34  H    0.000006  -0.000002  -0.002621   0.000290  -0.000238   0.002060
    35  C    0.391063   0.409874  -0.058880  -0.001617  -0.006419   0.009370
    36  H   -0.016900  -0.030555  -0.009844   0.005449  -0.000867  -0.000099
    37  H    0.518702  -0.021543   0.008268   0.000451  -0.000273  -0.000496
    38  H   -0.021543   0.512794   0.001277  -0.002972   0.004659   0.000146
    39  C    0.008268   0.001277   4.933393   0.401174   0.418047   0.395107
    40  H    0.000451  -0.002972   0.401174   0.510248  -0.028539  -0.020364
    41  H   -0.000273   0.004659   0.418047  -0.028539   0.503156  -0.022810
    42  H   -0.000496   0.000146   0.395107  -0.020364  -0.022810   0.535932
 Mulliken charges:
               1
     1  C   -0.094294
     2  C   -0.119837
     3  C   -0.123044
     4  C   -0.094292
     5  C   -0.000975
     6  C   -0.123048
     7  H    0.133114
     8  H    0.140713
     9  H    0.127134
    10  H    0.140713
    11  C    0.012448
    12  C   -0.158786
    13  C   -0.158793
    14  C   -0.100304
    15  C   -0.100336
    16  C    0.169527
    17  H    0.159783
    18  H    0.159776
    19  H    0.140611
    20  H    0.140570
    21  H    0.127134
    22  C   -0.460380
    23  C    0.050162
    24  C    0.050213
    25  N    0.009022
    26  N    0.008970
    27  C   -0.237644
    28  H    0.169101
    29  H    0.149150
    30  H    0.164280
    31  C   -0.241231
    32  H    0.165665
    33  H    0.174406
    34  H    0.138467
    35  C   -0.237759
    36  H    0.169163
    37  H    0.149067
    38  H    0.164352
    39  C   -0.241917
    40  H    0.165716
    41  H    0.174556
    42  H    0.138825
 Sum of Mulliken charges =   1.00000
 Mulliken charges with hydrogens summed into heavy atoms:
               1
     1  C    0.032841
     2  C    0.013277
     3  C    0.017669
     4  C    0.032842
     5  C   -0.000975
     6  C    0.017665
    11  C    0.012448
    12  C    0.000997
    13  C    0.000983
    14  C    0.040307
    15  C    0.040234
    16  C    0.169527
    22  C   -0.460380
    23  C    0.050162
    24  C    0.050213
    25  N    0.009022
    26  N    0.008970
    27  C    0.244887
    31  C    0.237307
    35  C    0.244822
    39  C    0.237181
 Electronic spatial extent (au):  <R**2>=           9904.9760
 Charge=              1.0000 electrons
 Dipole moment (field-independent basis, Debye):
    X=             11.7045    Y=              0.0004    Z=              0.0017  Tot=             11.7045
 Quadrupole moment (field-independent basis, Debye-Ang):
   XX=            -23.7014   YY=            -84.4561   ZZ=           -126.0426
   XY=              0.0018   XZ=              0.0060   YZ=             -0.3229
 Traceless Quadrupole moment (field-independent basis, Debye-Ang):
   XX=             54.3653   YY=             -6.3894   ZZ=            -47.9759
   XY=              0.0018   XZ=              0.0060   YZ=             -0.3229
 Octapole moment (field-independent basis, Debye-Ang**2):
  XXX=            194.0068  YYY=              0.0208  ZZZ=              0.0149  XYY=             91.3295
  XXY=              0.0080  XXZ=              0.0355  XZZ=             36.7374  YZZ=             -0.0062
  YYZ=             -0.0021  XYZ=             -6.2695
 Hexadecapole moment (field-independent basis, Debye-Ang**3):
 XXXX=          -7967.9317 YYYY=          -1724.1094 ZZZZ=           -224.5587 XXXY=              0.0719
 XXXZ=              0.0012 YYYX=              0.0954 YYYZ=             -0.9110 ZZZX=              0.0832
 ZZZY=              0.7970 XXYY=          -1635.7763 XXZZ=          -1987.8315 YYZZ=           -356.5725
 XXYZ=             59.0496 YYXZ=             -0.0393 ZZXY=             -0.0565
 N-N= 1.487460204840D+03 E-N=-4.918242920071D+03  KE= 8.407465944534D+02
 No NMR shielding tensors so no spin-rotation constants.
 Leave Link  601 at Thu Jan 21 00:11:28 2021, MaxMem=  4026531840 cpu:               2.6 elap:               0.5
 (Enter /opt/ohpc/pub/libs/gaussian/g16-A.03/sandybridge/g16/l9999.exe)

 Test job not archived.
 1\1\GINC-CASCADEB025\SP\RLC-wHPBE\TZVP\C19H21N2(1+)\RDU230\21-Jan-2021
 \0\\#P LC-wHPBE/TZVP iop(3/107=0221900000, 3/108=0221900000) scf=(conv
 er=6,fermi,ndamp=35,noincfock,novaracc,vshift=500,xqc)\\H21 C19 N2\\1,
 1\C,0,5.924302,-1.175178,0.28256\C,0,6.625626,0.000025,-0.000251\C,0,4
 .530324,-1.177472,0.278212\C,0,5.924206,1.175202,-0.282951\C,0,3.81093
 6,-0.000036,-0.000021\C,0,4.530233,1.177435,-0.278371\H,0,7.716547,0.0
 00056,-0.000331\H,0,3.994064,-2.094974,0.527939\H,0,6.466302,2.09321,-
 0.514746\H,0,3.99388,2.094904,-0.52801\C,0,2.333716,-0.000062,0.000109
 \C,0,1.604784,1.119278,0.452707\C,0,1.604752,-1.119433,-0.452341\C,0,0
 .21685,1.12577,0.449243\C,0,0.216813,-1.125977,-0.44867\C,0,-0.504919,
 -0.000106,0.000309\H,0,2.141671,1.985727,0.840835\H,0,2.141597,-1.9858
 91,-0.840507\H,0,-0.315693,1.995203,0.838189\H,0,-0.315745,-1.995465,-
 0.837475\H,0,6.466484,-2.093156,0.514265\C,0,-1.942874,-0.000086,0.000
 402\C,0,-3.143323,-0.702637,-0.003392\C,0,-3.143127,0.702801,0.003915\
 N,0,-3.78708,-1.855019,0.001668\N,0,-3.786774,1.855252,-0.001097\C,0,-
 3.068411,-3.12252,0.167733\H,0,-3.187886,-3.74858,-0.728596\H,0,-2.005
 788,-2.927607,0.341041\H,0,-3.471162,-3.663551,1.036238\C,0,-5.245121,
 -1.94416,-0.100275\H,0,-5.509149,-2.713998,-0.838669\H,0,-5.688951,-2.
 217262,0.869111\H,0,-5.659251,-0.989594,-0.439085\C,0,-3.068047,3.1226
 16,-0.16813\H,0,-3.188116,3.749602,0.727455\H,0,-2.005304,2.927538,-0.
 340531\H,0,-3.470192,3.662707,-1.037509\C,0,-5.24495,1.944232,0.099391
 \H,0,-5.509538,2.71844,0.832954\H,0,-5.688631,2.211256,-0.871774\H,0,-
 5.658779,0.991638,0.444142\\Version=EM64L-G16RevA.03\State=1-A\HF=-845
 .3920305\RMSD=9.783e-07\Dipole=-4.6049022,0.0001652,-0.0006552\Quadrup
 ole=40.4192953,-4.7503773,-35.668918,-0.0013463,0.0044446,0.240085\PG=
 C01 [X(C19H21N2)]\\@


 IF AT FIRST YOU DON'T SUCCEED, TRY, TRY AGAIN.
 THEN GIVE UP;
 THERE'S NO USE BEING A DAMN FOOL ABOUT IT.

                                 -- W. C. FIELDS
 Job cpu time:       0 days  0 hours 56 minutes 31.5 seconds.
 Elapsed time:       0 days  0 hours  7 minutes  5.5 seconds.
 File lengths (MBytes):  RWF=    136 Int=      0 D2E=      0 Chk=     24 Scr=      8
 Normal termination of Gaussian 16 at Thu Jan 21 00:11:28 2021.
