 Entering Gaussian System, Link 0=g16
 Input=mol_bp_cp_half_tune_c10.gjf
 Output=mol_bp_cp_half_tune_c10.log
 Initial command:
 /opt/ohpc/pub/libs/gaussian/g16-A.03/sandybridge/g16/l1.exe "/mnt/gpfs2_4m/scratch/rdu230/ondemand/projects/init_structures/wtuning/mol_bp_cp_half/tuning_mol_bp_cp_half_ocycle0/Gau-296887.inp" -scrdir="/mnt/gpfs2_4m/scratch/rdu230/ondemand/projects/init_structures/wtuning/mol_bp_cp_half/tuning_mol_bp_cp_half_ocycle0/"
 Entering Link 1 = /opt/ohpc/pub/libs/gaussian/g16-A.03/sandybridge/g16/l1.exe PID=    296888.
  
 Copyright (c) 1988,1990,1992,1993,1995,1998,2003,2009,2016,
            Gaussian, Inc.  All Rights Reserved.
  
 This is part of the Gaussian(R) 16 program.  It is based on
 the Gaussian(R) 09 system (copyright 2009, Gaussian, Inc.),
 the Gaussian(R) 03 system (copyright 2003, Gaussian, Inc.),
 the Gaussian(R) 98 system (copyright 1998, Gaussian, Inc.),
 the Gaussian(R) 94 system (copyright 1995, Gaussian, Inc.),
 the Gaussian 92(TM) system (copyright 1992, Gaussian, Inc.),
 the Gaussian 90(TM) system (copyright 1990, Gaussian, Inc.),
 the Gaussian 88(TM) system (copyright 1988, Gaussian, Inc.),
 the Gaussian 86(TM) system (copyright 1986, Carnegie Mellon
 University), and the Gaussian 82(TM) system (copyright 1983,
 Carnegie Mellon University). Gaussian is a federally registered
 trademark of Gaussian, Inc.
  
 This software contains proprietary and confidential information,
 including trade secrets, belonging to Gaussian, Inc.
  
 This software is provided under written license and may be
 used, copied, transmitted, or stored only in accord with that
 written license.
  
 The following legend is applicable only to US Government
 contracts under FAR:
  
                    RESTRICTED RIGHTS LEGEND
  
 Use, reproduction and disclosure by the US Government is
 subject to restrictions as set forth in subparagraphs (a)
 and (c) of the Commercial Computer Software - Restricted
 Rights clause in FAR 52.227-19.
  
 Gaussian, Inc.
 340 Quinnipiac St., Bldg. 40, Wallingford CT 06492
  
  
 ---------------------------------------------------------------
 Warning -- This program may not be used in any manner that
 competes with the business of Gaussian, Inc. or will provide
 assistance to any competitor of Gaussian, Inc.  The licensee
 of this program is prohibited from giving any competitor of
 Gaussian, Inc. access to this program.  By using this program,
 the user acknowledges that Gaussian, Inc. is engaged in the
 business of creating and licensing software in the field of
 computational chemistry and represents and warrants to the
 licensee that it is not a competitor of Gaussian, Inc. and that
 it will not use this program in any manner prohibited above.
 ---------------------------------------------------------------
  

 Cite this work as:
 Gaussian 16, Revision A.03,
 M. J. Frisch, G. W. Trucks, H. B. Schlegel, G. E. Scuseria, 
 M. A. Robb, J. R. Cheeseman, G. Scalmani, V. Barone, 
 G. A. Petersson, H. Nakatsuji, X. Li, M. Caricato, A. V. Marenich, 
 J. Bloino, B. G. Janesko, R. Gomperts, B. Mennucci, H. P. Hratchian, 
 J. V. Ortiz, A. F. Izmaylov, J. L. Sonnenberg, D. Williams-Young, 
 F. Ding, F. Lipparini, F. Egidi, J. Goings, B. Peng, A. Petrone, 
 T. Henderson, D. Ranasinghe, V. G. Zakrzewski, J. Gao, N. Rega, 
 G. Zheng, W. Liang, M. Hada, M. Ehara, K. Toyota, R. Fukuda, 
 J. Hasegawa, M. Ishida, T. Nakajima, Y. Honda, O. Kitao, H. Nakai, 
 T. Vreven, K. Throssell, J. A. Montgomery, Jr., J. E. Peralta, 
 F. Ogliaro, M. J. Bearpark, J. J. Heyd, E. N. Brothers, K. N. Kudin, 
 V. N. Staroverov, T. A. Keith, R. Kobayashi, J. Normand, 
 K. Raghavachari, A. P. Rendell, J. C. Burant, S. S. Iyengar, 
 J. Tomasi, M. Cossi, J. M. Millam, M. Klene, C. Adamo, R. Cammi, 
 J. W. Ochterski, R. L. Martin, K. Morokuma, O. Farkas, 
 J. B. Foresman, and D. J. Fox, Gaussian, Inc., Wallingford CT, 2016.
 
 ******************************************
 Gaussian 16:  EM64L-G16RevA.03 25-Dec-2016
                21-Jan-2021 
 ******************************************
 %mem=30GB
 %nproc=8
 Will use up to    8 processors via shared memory.
 ----------------------------------------------------------------------
 #P LC-wHPBE/TZVP iop(3/107=0207400000, 3/108=0207400000) scf=(conver=6
 ,fermi,ndamp=35,noincfock,novaracc,vshift=500,xqc)
 ----------------------------------------------------------------------
 1/38=1,172=1/1;
 2/12=2,17=6,18=5,40=1/2;
 3/5=19,7=101,11=2,25=1,30=1,74=-71,107=207400000,108=207400000/1,2,3;
 4//1;
 5/5=100002,6=6,8=3,10=500,13=1,18=-1,22=13,38=1,93=35/2,8;
 6/7=2,8=2,9=2,10=2,28=1/1;
 99/5=1,9=1/99;
 Leave Link    1 at Thu Jan 21 06:14:06 2021, MaxMem=  4026531840 cpu:               1.1 elap:               0.2
 (Enter /opt/ohpc/pub/libs/gaussian/g16-A.03/sandybridge/g16/l101.exe)
 ----------
 H21 C19 N2
 ----------
 Symbolic Z-matrix:
 Charge =  2 Multiplicity = 2
 C                     5.9243   -1.17518   0.28256 
 C                     6.62563   0.00003  -0.00025 
 C                     4.53032  -1.17747   0.27821 
 C                     5.92421   1.1752   -0.28295 
 C                     3.81094  -0.00004  -0.00002 
 C                     4.53023   1.17744  -0.27837 
 H                     7.71655   0.00006  -0.00033 
 H                     3.99406  -2.09497   0.52794 
 H                     6.4663    2.09321  -0.51475 
 H                     3.99388   2.0949   -0.52801 
 C                     2.33372  -0.00006   0.00011 
 C                     1.60478   1.11928   0.45271 
 C                     1.60475  -1.11943  -0.45234 
 C                     0.21685   1.12577   0.44924 
 C                     0.21681  -1.12598  -0.44867 
 C                    -0.50492  -0.00011   0.00031 
 H                     2.14167   1.98573   0.84084 
 H                     2.1416   -1.98589  -0.84051 
 H                    -0.31569   1.9952    0.83819 
 H                    -0.31575  -1.99547  -0.83748 
 H                     6.46648  -2.09316   0.51427 
 C                    -1.94287  -0.00009   0.0004 
 C                    -3.14332  -0.70264  -0.00339 
 C                    -3.14313   0.7028    0.00392 
 N                    -3.78708  -1.85502   0.00167 
 N                    -3.78677   1.85525  -0.0011 
 C                    -3.06841  -3.12252   0.16773 
 H                    -3.18789  -3.74858  -0.7286 
 H                    -2.00579  -2.92761   0.34104 
 H                    -3.47116  -3.66355   1.03624 
 C                    -5.24512  -1.94416  -0.10028 
 H                    -5.50915  -2.714    -0.83867 
 H                    -5.68895  -2.21726   0.86911 
 H                    -5.65925  -0.98959  -0.43909 
 C                    -3.06805   3.12262  -0.16813 
 H                    -3.18812   3.7496    0.72746 
 H                    -2.0053    2.92754  -0.34053 
 H                    -3.47019   3.66271  -1.03751 
 C                    -5.24495   1.94423   0.09939 
 H                    -5.50954   2.71844   0.83295 
 H                    -5.68863   2.21126  -0.87177 
 H                    -5.65878   0.99164   0.44414 
 
 ITRead=  0  0  0  0  0  0  0  0  0  0  0  0  0  0  0  0  0  0  0  0
 ITRead=  0  0  0  0  0  0  0  0  0  0  0  0  0  0  0  0  0  0  0  0
 ITRead=  0  0
 MicOpt= -1 -1 -1 -1 -1 -1 -1 -1 -1 -1 -1 -1 -1 -1 -1 -1 -1 -1 -1 -1
 MicOpt= -1 -1 -1 -1 -1 -1 -1 -1 -1 -1 -1 -1 -1 -1 -1 -1 -1 -1 -1 -1
 MicOpt= -1 -1
 NAtoms=     42 NQM=       42 NQMF=       0 NMMI=      0 NMMIF=      0
                NMic=       0 NMicF=      0.
                    Isotopes and Nuclear Properties:
 (Nuclear quadrupole moments (NQMom) in fm**2, nuclear magnetic moments (NMagM)
  in nuclear magnetons)

  Atom         1           2           3           4           5           6           7           8           9          10
 IAtWgt=          12          12          12          12          12          12           1           1           1           1
 AtmWgt=  12.0000000  12.0000000  12.0000000  12.0000000  12.0000000  12.0000000   1.0078250   1.0078250   1.0078250   1.0078250
 NucSpn=           0           0           0           0           0           0           1           1           1           1
 AtZEff=  -0.0000000  -0.0000000  -0.0000000  -0.0000000  -0.0000000  -0.0000000  -0.0000000  -0.0000000  -0.0000000  -0.0000000
 NQMom=    0.0000000   0.0000000   0.0000000   0.0000000   0.0000000   0.0000000   0.0000000   0.0000000   0.0000000   0.0000000
 NMagM=    0.0000000   0.0000000   0.0000000   0.0000000   0.0000000   0.0000000   2.7928460   2.7928460   2.7928460   2.7928460
 AtZNuc=   6.0000000   6.0000000   6.0000000   6.0000000   6.0000000   6.0000000   1.0000000   1.0000000   1.0000000   1.0000000

  Atom        11          12          13          14          15          16          17          18          19          20
 IAtWgt=          12          12          12          12          12          12           1           1           1           1
 AtmWgt=  12.0000000  12.0000000  12.0000000  12.0000000  12.0000000  12.0000000   1.0078250   1.0078250   1.0078250   1.0078250
 NucSpn=           0           0           0           0           0           0           1           1           1           1
 AtZEff=  -0.0000000  -0.0000000  -0.0000000  -0.0000000  -0.0000000  -0.0000000  -0.0000000  -0.0000000  -0.0000000  -0.0000000
 NQMom=    0.0000000   0.0000000   0.0000000   0.0000000   0.0000000   0.0000000   0.0000000   0.0000000   0.0000000   0.0000000
 NMagM=    0.0000000   0.0000000   0.0000000   0.0000000   0.0000000   0.0000000   2.7928460   2.7928460   2.7928460   2.7928460
 AtZNuc=   6.0000000   6.0000000   6.0000000   6.0000000   6.0000000   6.0000000   1.0000000   1.0000000   1.0000000   1.0000000

  Atom        21          22          23          24          25          26          27          28          29          30
 IAtWgt=           1          12          12          12          14          14          12           1           1           1
 AtmWgt=   1.0078250  12.0000000  12.0000000  12.0000000  14.0030740  14.0030740  12.0000000   1.0078250   1.0078250   1.0078250
 NucSpn=           1           0           0           0           2           2           0           1           1           1
 AtZEff=  -0.0000000  -0.0000000  -0.0000000  -0.0000000  -0.0000000  -0.0000000  -0.0000000  -0.0000000  -0.0000000  -0.0000000
 NQMom=    0.0000000   0.0000000   0.0000000   0.0000000   2.0440000   2.0440000   0.0000000   0.0000000   0.0000000   0.0000000
 NMagM=    2.7928460   0.0000000   0.0000000   0.0000000   0.4037610   0.4037610   0.0000000   2.7928460   2.7928460   2.7928460
 AtZNuc=   1.0000000   6.0000000   6.0000000   6.0000000   7.0000000   7.0000000   6.0000000   1.0000000   1.0000000   1.0000000

  Atom        31          32          33          34          35          36          37          38          39          40
 IAtWgt=          12           1           1           1          12           1           1           1          12           1
 AtmWgt=  12.0000000   1.0078250   1.0078250   1.0078250  12.0000000   1.0078250   1.0078250   1.0078250  12.0000000   1.0078250
 NucSpn=           0           1           1           1           0           1           1           1           0           1
 AtZEff=  -0.0000000  -0.0000000  -0.0000000  -0.0000000  -0.0000000  -0.0000000  -0.0000000  -0.0000000  -0.0000000  -0.0000000
 NQMom=    0.0000000   0.0000000   0.0000000   0.0000000   0.0000000   0.0000000   0.0000000   0.0000000   0.0000000   0.0000000
 NMagM=    0.0000000   2.7928460   2.7928460   2.7928460   0.0000000   2.7928460   2.7928460   2.7928460   0.0000000   2.7928460
 AtZNuc=   6.0000000   1.0000000   1.0000000   1.0000000   6.0000000   1.0000000   1.0000000   1.0000000   6.0000000   1.0000000

  Atom        41          42
 IAtWgt=           1           1
 AtmWgt=   1.0078250   1.0078250
 NucSpn=           1           1
 AtZEff=  -0.0000000  -0.0000000
 NQMom=    0.0000000   0.0000000
 NMagM=    2.7928460   2.7928460
 AtZNuc=   1.0000000   1.0000000
 Leave Link  101 at Thu Jan 21 06:14:06 2021, MaxMem=  4026531840 cpu:               0.6 elap:               0.1
 (Enter /opt/ohpc/pub/libs/gaussian/g16-A.03/sandybridge/g16/l202.exe)
                          Input orientation:                          
 ---------------------------------------------------------------------
 Center     Atomic      Atomic             Coordinates (Angstroms)
 Number     Number       Type             X           Y           Z
 ---------------------------------------------------------------------
      1          6           0        5.924302   -1.175178    0.282560
      2          6           0        6.625626    0.000025   -0.000251
      3          6           0        4.530324   -1.177472    0.278212
      4          6           0        5.924206    1.175202   -0.282951
      5          6           0        3.810936   -0.000036   -0.000021
      6          6           0        4.530233    1.177435   -0.278371
      7          1           0        7.716547    0.000056   -0.000331
      8          1           0        3.994064   -2.094974    0.527939
      9          1           0        6.466302    2.093210   -0.514746
     10          1           0        3.993880    2.094904   -0.528010
     11          6           0        2.333716   -0.000062    0.000109
     12          6           0        1.604784    1.119278    0.452707
     13          6           0        1.604752   -1.119433   -0.452341
     14          6           0        0.216850    1.125770    0.449243
     15          6           0        0.216813   -1.125977   -0.448670
     16          6           0       -0.504919   -0.000106    0.000309
     17          1           0        2.141671    1.985727    0.840835
     18          1           0        2.141597   -1.985891   -0.840507
     19          1           0       -0.315693    1.995203    0.838189
     20          1           0       -0.315745   -1.995465   -0.837475
     21          1           0        6.466484   -2.093156    0.514265
     22          6           0       -1.942874   -0.000086    0.000402
     23          6           0       -3.143323   -0.702637   -0.003392
     24          6           0       -3.143127    0.702801    0.003915
     25          7           0       -3.787080   -1.855019    0.001668
     26          7           0       -3.786774    1.855252   -0.001097
     27          6           0       -3.068411   -3.122520    0.167733
     28          1           0       -3.187886   -3.748580   -0.728596
     29          1           0       -2.005788   -2.927607    0.341041
     30          1           0       -3.471162   -3.663551    1.036238
     31          6           0       -5.245121   -1.944160   -0.100275
     32          1           0       -5.509149   -2.713998   -0.838669
     33          1           0       -5.688951   -2.217262    0.869111
     34          1           0       -5.659251   -0.989594   -0.439085
     35          6           0       -3.068047    3.122616   -0.168130
     36          1           0       -3.188116    3.749602    0.727455
     37          1           0       -2.005304    2.927538   -0.340531
     38          1           0       -3.470192    3.662707   -1.037509
     39          6           0       -5.244950    1.944232    0.099391
     40          1           0       -5.509538    2.718440    0.832954
     41          1           0       -5.688631    2.211256   -0.871774
     42          1           0       -5.658779    0.991638    0.444142
 ---------------------------------------------------------------------
                    Distance matrix (angstroms):
                    1          2          3          4          5
     1  C    0.000000
     2  C    1.397476   0.000000
     3  C    1.393987   2.419573   0.000000
     4  C    2.417455   1.397480   2.791574   0.000000
     5  C    2.434569   2.814690   1.407582   2.434573   0.000000
     6  C    2.791569   2.419570   2.419788   1.393982   1.407588
     7  H    2.161792   1.090921   3.408251   2.161788   3.905611
     8  H    2.152221   3.404868   1.091672   3.882917   2.168189
     9  H    3.407612   2.161368   3.882545   1.091025   3.420174
    10  H    3.882910   3.404869   3.412655   2.152223   2.168182
    11  C    3.788533   4.291910   2.507733   3.788534   1.477220
    12  C    4.894049   5.163986   3.723479   4.381977   2.514942
    13  C    4.381974   5.163986   3.015965   4.894050   2.514934
    14  C    6.156066   6.522404   4.892876   5.754343   3.792985
    15  C    5.754350   6.522411   4.374630   6.156072   3.792987
    16  C    6.541815   7.130545   5.178522   6.541807   4.315855
    17  H    4.960977   4.975569   4.003503   4.028327   2.727039
    18  H    4.028324   4.975581   2.758820   4.960999   2.727037
    19  H    7.021223   7.270875   5.819220   6.392628   4.659683
    20  H    6.392616   7.270870   5.039668   7.021226   4.659674
    21  H    1.091023   2.161356   2.154742   3.407607   3.420172
    22  C    7.959454   8.568500   6.585265   7.959431   5.753810
    23  C    9.084431   9.794187   7.693480   9.264152   6.989662
    24  C    9.264055   9.794001   7.905221   9.084161   6.989491
    25  N    9.739200  10.576655   8.349536  10.177049   7.821177
    26  N   10.176884  10.576386   8.857175   9.738842   7.820952
    27  C    9.201859  10.185915   7.844501   9.977008   7.556683
    28  H    9.522437  10.530315   8.197257  10.366892   7.972823
    29  H    8.121623   9.120790   6.766659   8.950263   6.520834
    30  H    9.748578  10.790794   8.413024  10.650199   8.217307
    31  C   11.202406  12.029318   9.812767  11.598175   9.262928
    32  H   11.590898  12.462810  10.217600  12.089512   9.743352
    33  H   11.674657  12.542765  10.289019  12.153250   9.793842
    34  H   11.607494  12.332482  10.216519  11.785041   9.531865
    35  C    9.976798  10.185581   8.742152   9.201425   7.556429
    36  H   10.367620  10.530832   9.167998   9.522755   7.973439
    37  H    8.949814   9.120256   7.742634   8.121030   6.520375
    38  H   10.649142  10.789656   9.442813   9.747397   8.216258
    39  C   11.598123  12.029150  10.263186  11.202127   9.262782
    40  H   12.091149  12.463796  10.783538  11.591261   9.744496
    41  H   12.151569  12.541532  10.827418  11.673821   9.792423
    42  H   11.785116  12.332372  10.418752  11.607235   9.531852
                    6          7          8          9         10
     6  C    0.000000
     7  H    3.408244   0.000000
     8  H    3.412664   4.304079   0.000000
     9  H    2.154734   2.491792   4.973936   0.000000
    10  H    1.091670   4.304077   4.320892   2.472458   0.000000
    11  C    2.507735   5.382831   2.724705   4.661022   2.724690
    12  C    3.015976   6.229892   4.005713   5.051620   2.760694
    13  C    3.723481   6.229896   2.760696   5.827490   4.005699
    14  C    4.374627   7.597026   4.964547   6.396942   4.019975
    15  C    4.892883   7.597037   4.019993   7.030195   4.964535
    16  C    5.178515   8.221466   4.990763   7.296929   4.990729
    17  H    2.758838   5.977432   4.492370   4.533386   2.305718
    18  H    4.003525   5.977453   2.305684   5.953844   4.492382
    19  H    5.039687   8.318690   5.949774   6.916321   4.522042
    20  H    5.819226   8.318692   4.522025   7.925754   5.949769
    21  H    3.882539   2.491787   2.472458   4.310977   4.973927
    22  C    6.585240   9.659421   6.317759   8.681101   6.317693
    23  C    7.905299  10.882581   7.291310  10.021134   7.683822
    24  C    7.693206  10.882389   7.683856   9.723342   7.290937
    25  N    8.857307  11.652242   7.802611  10.999411   8.742184
    26  N    8.349187  11.651959   8.742174  10.268692   7.802157
    27  C    8.742312  11.229160   7.145919  10.889461   8.808038
    28  H    9.167207  11.553757   7.476209  11.286079   9.260902
    29  H    7.743036  10.159308   6.060234   9.885205   7.872540
    30  H    9.443816  11.817839   7.645155  11.588746   9.556858
    31  C   10.263217  13.107052   9.261746  12.394740  10.092380
    32  H   10.781761  13.527303   9.620908  12.908354  10.655027
    33  H   10.829238  13.615425   9.689795  12.970945  10.691302
    34  H   10.418610  13.419534   9.764399  12.511532  10.134346
    35  C    7.844090  11.228802   8.808017   9.596022   7.145384
    36  H    8.197600  11.554239   9.261889   9.873930   7.476315
    37  H    6.766090  10.158754   7.872248   8.514374   6.059590
    38  H    8.411877  11.816678   9.555974  10.073257   7.643950
    39  C    9.812486  13.106875  10.092483  11.728290   9.261334
    40  H   10.217962  13.528241  10.657412  12.067641   9.620602
    41  H   10.288153  13.614243  10.689125  12.160748   9.689310
    42  H   10.216287  13.419394  10.134672  12.212719   9.764021
                   11         12         13         14         15
    11  C    0.000000
    12  C    1.410358   0.000000
    13  C    1.410351   2.414734   0.000000
    14  C    2.439332   1.387954   2.789276   0.000000
    15  C    2.439337   2.789286   1.387959   2.424172   0.000000
    16  C    2.838635   2.430747   2.430740   1.410705   1.410697
    17  H    2.164962   1.090699   3.406260   2.144250   3.879511
    18  H    2.164962   3.406266   1.090699   3.879503   2.144244
    19  H    3.420940   2.145710   3.880017   1.091235   3.417797
    20  H    3.420939   3.880029   2.145709   3.417808   1.091236
    21  H    4.661027   5.827491   5.051624   7.030195   6.396958
    22  C    4.276590   3.747457   3.747474   2.476574   2.476599
    23  C    5.521918   5.106067   4.787430   3.852105   3.415846
    24  C    5.521761   4.787225   5.105983   3.415650   3.852072
    25  N    6.395703   6.174308   5.460683   5.011675   4.094565
    26  N    6.395513   5.460448   6.174214   4.094381   5.011662
    27  C    6.241860   6.317659   5.122041   5.377746   3.893435
    28  H    6.713456   6.932619   5.473400   6.061256   4.306783
    29  H    5.245765   5.424572   4.115209   4.624034   2.968075
    30  H    6.941997   6.998656   5.869694   6.073186   4.716502
    31  C    7.824856   7.524071   6.908320   6.289640   5.533853
    32  H    8.341434   8.183502   7.300649   7.013530   5.954876
    33  H    8.368651   8.031467   7.493301   6.799312   6.148618
    34  H    8.065952   7.616353   7.265175   6.308126   5.877654
    35  C    6.241672   5.121928   6.317500   3.893468   5.377690
    36  H    6.714137   5.474119   6.933326   4.307632   6.062020
    37  H    5.245376   4.114823   5.424295   2.967841   4.623903
    38  H    6.941028   5.869000   6.997595   4.716011   6.072251
    39  C    7.824725   6.908273   7.523887   5.533854   6.289468
    40  H    8.342692   7.301745   8.185009   5.956119   7.015212
    41  H    8.367088   7.492701   8.028876   6.148014   6.796353
    42  H    8.066016   7.264689   7.617033   5.877162   6.309040
                   16         17         18         19         20
    16  C    0.000000
    17  H    3.413862   0.000000
    18  H    3.413848   4.312848   0.000000
    19  H    2.172351   2.457384   4.970453   0.000000
    20  H    2.172355   4.970464   2.457363   4.328196   0.000000
    21  H    7.296949   5.953817   4.533383   7.925751   6.916312
    22  C    1.437955   4.618797   4.618815   2.707542   2.707605
    23  C    2.730337   5.989256   5.502534   3.997761   3.219052
    24  C    2.730244   5.502311   5.989192   3.218804   3.997833
    25  N    3.770051   7.113763   5.989624   5.251143   3.574081
    26  N    3.770004   5.989352   7.113689   3.573848   5.251247
    27  C    4.043389   7.327497   5.427030   5.849620   3.139724
    28  H    4.666977   7.984333   5.614533   6.610246   3.366669
    29  H    3.307411   6.449191   4.414033   5.228540   2.261423
    30  H    4.826238   7.965954   6.151405   6.482107   4.031125
    31  C    5.124351   8.419881   7.423832   6.379542   4.984460
    32  H    5.754252   9.134725   7.685314   7.208357   5.242875
    33  H    5.704804   8.887326   8.018342   6.827717   5.642072
    34  H    5.266810   8.446604   7.874451   6.252524   5.451931
    35  C    4.043438   5.426941   7.327300   3.139935   5.849610
    36  H    4.667826   5.615224   7.985000   3.367639   6.611000
    37  H    3.307329   4.413619   6.448918   2.261286   5.228530
    38  H    4.825568   6.150890   7.964775   4.031089   6.481162
    39  C    5.124272   7.423856   8.419641   4.984576   6.379341
    40  H    5.755867   7.686217   9.136250   5.243961   7.210182
    41  H    5.702764   8.018574   8.884227   5.642616   6.823898
    42  H    5.267145   7.873538   8.447595   5.450778   6.254066
                   21         22         23         24         25
    21  H    0.000000
    22  C    8.681146   0.000000
    23  C    9.723677   1.390924   0.000000
    24  C   10.021101   1.390924   1.405457   0.000000
    25  N   10.269130   2.615698   1.320012   2.637636   0.000000
    26  N   10.999310   2.615769   2.637580   1.320019   3.710272
    27  C    9.596557   3.323316   2.427082   3.829556   1.466500
    28  H    9.873803   4.016553   3.131402   4.511471   2.116103
    29  H    8.515028   2.947944   2.522521   3.819300   2.106803
    30  H   10.074493   4.102389   3.155205   4.498703   2.107351
    31  C   11.728664   3.833327   2.443015   3.381662   1.464316
    32  H   12.067794   4.559350   3.215648   4.240581   2.099889
    33  H   12.161247   4.438876   3.087972   3.969452   2.121507
    34  H   12.213115   3.870883   2.569449   3.064528   2.109087
    35  C   10.889317   3.323505   3.829539   2.427085   5.032166
    36  H   11.286920   4.017386   4.512048   3.131857   5.683071
    37  H    9.884798   2.948070   3.819283   2.522447   5.115142
    38  H   11.587730   4.101952   4.498052   3.154771   5.623665
    39  C   12.394769   3.833259   3.381319   2.442934   4.070533
    40  H   12.910388   4.561208   4.242902   3.217143   4.957260
    41  H   12.969036   4.436375   3.965281   3.085751   4.573116
    42  H   12.511709   3.871482   3.065677   2.570162   3.435476
                   26         27         28         29         30
    26  N    0.000000
    27  C    5.032173   0.000000
    28  H    5.682504   1.099832   0.000000
    29  H    5.115145   1.094164   1.793175   0.000000
    30  H    5.624310   1.099647   1.789445   1.781076   0.000000
    31  C    4.070890   2.489664   2.807656   3.413972   2.719356
    32  H    4.954407   2.671505   2.543765   3.702821   2.927511
    33  H    4.578309   2.859834   3.339600   3.788026   2.652974
    34  H    3.433825   3.410286   3.715302   4.208596   3.756908
    35  C    1.466520   6.254161   6.895058   6.163834   6.903989
    36  H    2.116067   6.895918   7.638247   6.792079   7.424978
    37  H    2.106810   6.163743   6.791145   5.894681   6.891058
    38  H    2.107432   6.903140   7.423092   6.890364   7.614098
    39  C    1.464340   5.514886   6.109434   5.855372   5.955773
    40  H    2.099679   6.365409   7.046336   6.663039   6.702694
    41  H    2.121763   6.032851   6.464818   6.437559   6.562853
    42  H    2.109140   4.869569   5.472686   5.358680   5.177551
                   31         32         33         34         35
    31  C    0.000000
    32  H    1.098903   0.000000
    33  H    1.100581   1.787621   0.000000
    34  H    1.094300   1.776448   1.794276   0.000000
    35  C    5.515113   6.361970   6.038154   4.868062   0.000000
    36  H    6.110264   7.044009   6.471299   5.470585   1.099818
    37  H    5.855560   6.659730   6.442162   5.357701   1.094166
    38  H    5.955312   6.697705   6.567505   5.176292   1.099654
    39  C    3.893515   4.759082   4.255307   3.011468   2.489792
    40  H    4.762423   5.683811   4.939094   3.923011   2.669533
    41  H    4.249635   4.928634   4.758409   3.230097   2.862368
    42  H    3.014368   3.924249   3.237059   2.169187   3.409961
                   36         37         38         39         40
    36  H    0.000000
    37  H    1.793161   0.000000
    38  H    1.789474   1.781053   0.000000
    39  C    2.807916   3.414049   2.719460   0.000000
    40  H    2.542327   3.701411   2.923902   1.098872   0.000000
    41  H    3.343145   3.789746   2.656247   1.100598   1.787570
    42  H    3.713598   4.208480   3.757634   1.094323   1.776314
                   41         42
    41  H    0.000000
    42  H    1.794434   0.000000
 Stoichiometry    C19H21N2(2+,2)
 Framework group  C1[X(C19H21N2)]
 Deg. of freedom   120
 Full point group                 C1      NOp   1
 Largest Abelian subgroup         C1      NOp   1
 Largest concise Abelian subgroup C1      NOp   1
                         Standard orientation:                         
 ---------------------------------------------------------------------
 Center     Atomic      Atomic             Coordinates (Angstroms)
 Number     Number       Type             X           Y           Z
 ---------------------------------------------------------------------
      1          6           0       -5.924302   -1.175178   -0.282560
      2          6           0       -6.625626    0.000025    0.000251
      3          6           0       -4.530324   -1.177472   -0.278212
      4          6           0       -5.924206    1.175202    0.282951
      5          6           0       -3.810936   -0.000036    0.000021
      6          6           0       -4.530233    1.177435    0.278371
      7          1           0       -7.716547    0.000056    0.000331
      8          1           0       -3.994064   -2.094974   -0.527939
      9          1           0       -6.466302    2.093210    0.514746
     10          1           0       -3.993880    2.094904    0.528010
     11          6           0       -2.333716   -0.000062   -0.000109
     12          6           0       -1.604784    1.119278   -0.452707
     13          6           0       -1.604752   -1.119433    0.452341
     14          6           0       -0.216850    1.125770   -0.449243
     15          6           0       -0.216813   -1.125977    0.448670
     16          6           0        0.504919   -0.000106   -0.000309
     17          1           0       -2.141671    1.985727   -0.840835
     18          1           0       -2.141597   -1.985891    0.840507
     19          1           0        0.315693    1.995203   -0.838189
     20          1           0        0.315745   -1.995465    0.837475
     21          1           0       -6.466484   -2.093156   -0.514265
     22          6           0        1.942874   -0.000086   -0.000402
     23          6           0        3.143323   -0.702637    0.003392
     24          6           0        3.143127    0.702801   -0.003915
     25          7           0        3.787080   -1.855019   -0.001668
     26          7           0        3.786774    1.855252    0.001097
     27          6           0        3.068411   -3.122520   -0.167733
     28          1           0        3.187886   -3.748580    0.728596
     29          1           0        2.005788   -2.927607   -0.341041
     30          1           0        3.471162   -3.663551   -1.036238
     31          6           0        5.245121   -1.944160    0.100275
     32          1           0        5.509149   -2.713998    0.838669
     33          1           0        5.688951   -2.217262   -0.869111
     34          1           0        5.659251   -0.989594    0.439085
     35          6           0        3.068047    3.122616    0.168130
     36          1           0        3.188116    3.749602   -0.727455
     37          1           0        2.005304    2.927538    0.340531
     38          1           0        3.470192    3.662707    1.037509
     39          6           0        5.244950    1.944232   -0.099391
     40          1           0        5.509538    2.718440   -0.832954
     41          1           0        5.688631    2.211256    0.871774
     42          1           0        5.658779    0.991638   -0.444142
 ---------------------------------------------------------------------
 Rotational constants (GHZ):           0.7037808           0.1205812           0.1040104
 Leave Link  202 at Thu Jan 21 06:14:06 2021, MaxMem=  4026531840 cpu:               0.2 elap:               0.0
 (Enter /opt/ohpc/pub/libs/gaussian/g16-A.03/sandybridge/g16/l301.exe)
 Standard basis: TZVP (5D, 7F)
 Ernie: Thresh=  0.10000D-02 Tol=  0.10000D-05 Strict=F.
 There are   546 symmetry adapted cartesian basis functions of A   symmetry.
 There are   525 symmetry adapted basis functions of A   symmetry.
   525 basis functions,   903 primitive gaussians,   546 cartesian basis functions
    74 alpha electrons       73 beta electrons
       nuclear repulsion energy      1487.4602048397 Hartrees.
 IExCor=33909 DFT=T Ex+Corr=LC-wHPBE ExCW=0 ScaHFX=  1.000000
 ScaDFX=  1.000000  1.000000  1.000000  1.000000 ScalE2=  1.000000  1.000000
 IRadAn=      5 IRanWt=     -1 IRanGd=            0 ICorTp=0 IEmpDi=  4
 HFx  wShort=  0.000000 wLong=  0.207400 cFull=  0.000000 cShort=  0.000000 cLong=  1.000000
 DFx  wShort=  0.000000 wLong=  0.207400 cFull=  0.000000 cShort=  1.000000 cLong=  0.000000
 NAtoms=   42 NActive=   42 NUniq=   42 SFac= 1.00D+00 NAtFMM=   60 NAOKFM=F Big=F
 Integral buffers will be    131072 words long.
 Raffenetti 2 integral format.
 Two-electron integral symmetry is turned on.
 Leave Link  301 at Thu Jan 21 06:14:06 2021, MaxMem=  4026531840 cpu:               0.4 elap:               0.1
 (Enter /opt/ohpc/pub/libs/gaussian/g16-A.03/sandybridge/g16/l302.exe)
 NPDir=0 NMtPBC=     1 NCelOv=     1 NCel=       1 NClECP=     1 NCelD=      1
         NCelK=      1 NCelE2=     1 NClLst=     1 CellRange=     0.0.
 One-electron integrals computed using PRISM.
 One-electron integral symmetry used in STVInt
 NBasis=   525 RedAO= T EigKep=  8.06D-06  NBF=   525
 NBsUse=   525 1.00D-06 EigRej= -1.00D+00 NBFU=   525
 Precomputing XC quadrature grid using
 IXCGrd= 4 IRadAn=           5 IRanWt=          -1 IRanGd=           0 AccXCQ= 0.00D+00.
 Generated NRdTot=       0 NPtTot=           0 NUsed=           0 NTot=          32
 NSgBfM=   523   523   523   523   523 MxSgAt=    42 MxSgA2=    42.
 Leave Link  302 at Thu Jan 21 06:14:07 2021, MaxMem=  4026531840 cpu:               6.8 elap:               0.9
 (Enter /opt/ohpc/pub/libs/gaussian/g16-A.03/sandybridge/g16/l303.exe)
 DipDrv:  MaxL=1.
 Leave Link  303 at Thu Jan 21 06:14:07 2021, MaxMem=  4026531840 cpu:               0.6 elap:               0.1
 (Enter /opt/ohpc/pub/libs/gaussian/g16-A.03/sandybridge/g16/l401.exe)
 ExpMin= 9.52D-02 ExpMax= 1.97D+04 ExpMxC= 6.73D+02 IAcc=3 IRadAn=         5 AccDes= 0.00D+00
 Harris functional with IExCor=33909 and IRadAn=       5 diagonalized for initial guess.
 HarFok:  IExCor=33909 AccDes= 0.00D+00 IRadAn=         5 IDoV= 1 UseB2=F ITyADJ=14
 ICtDFT=  3500011 ScaDFX=  1.000000  1.000000  1.000000  1.000000
 FoFCou: FMM=F IPFlag=           0 FMFlag=      100000 FMFlg1=           0
         NFxFlg=           0 DoJE=T BraDBF=F KetDBF=T FulRan=T
         wScrn=  0.000000 ICntrl=       500 IOpCl=  0 I1Cent=   200000004 NGrid=           0
         NMat0=    1 NMatS0=      1 NMatT0=    0 NMatD0=    1 NMtDS0=    0 NMtDT0=    0
 Petite list used in FoFCou.
 Harris En= -828.934544406149    
 JPrj=0 DoOrth=F DoCkMO=F.
 Initial guess <Sx>= 0.0000 <Sy>= 0.0000 <Sz>= 0.5000 <S**2>= 0.7500 S= 0.5000
 Leave Link  401 at Thu Jan 21 06:14:12 2021, MaxMem=  4026531840 cpu:              39.7 elap:               5.0
 (Enter /opt/ohpc/pub/libs/gaussian/g16-A.03/sandybridge/g16/l502.exe)
 Integral symmetry usage will be decided dynamically.
 UHF open shell SCF:
 Using DIIS extrapolation, IDIIS=    10.
 NGot=  4026531840 LenX=  4025925692 LenY=  4025627030
 Requested convergence on RMS density matrix=1.00D-06 within  32 cycles.
 Requested convergence on MAX density matrix=1.00D-04.
 Requested convergence on             energy=1.00D-04.
 Virtual orbitals will be shifted by   0.500 hartree.
 No special actions if energy rises.
 Dynamic level shift is on during FON iterations.

 Cycle   1  Pass 1  IDiag  1:
 FoFJK:  IHMeth= 1 ICntrl=       0 DoSepK=T KAlg= 0 I1Cent=           0 FoldK=F
 IRaf=         1 NMat=       1 IRICut=       1 DoRegI=T DoRafI=F ISym2E= 0 IDoP0=0 IntGTp=1.
 FoFCou: FMM=F IPFlag=           0 FMFlag=      100000 FMFlg1=           0
         NFxFlg=           0 DoJE=T BraDBF=F KetDBF=F FulRan=T
         wScrn=  0.000000 ICntrl=       500 IOpCl=  0 I1Cent=           0 NGrid=           0
         NMat0=    1 NMatS0=      1 NMatT0=    0 NMatD0=    1 NMtDS0=    0 NMtDT0=    0
 Symmetry not used in FoFCou.
 E= -844.638939082094    
 DIIS: error= 2.87D-02 at cycle   1 NSaved=   1.
 NSaved= 1 IEnMin= 1 EnMin= -844.638939082094     IErMin= 1 ErrMin= 2.87D-02
 ErrMax= 2.87D-02  0.00D+00 EMaxC= 1.00D+00 BMatC= 1.26D+00 BMatP= 1.26D+00
 IDIUse=1 WtCom= 1.00D+00 WtEn= 0.00D+00
 Coeff-Com:  0.100D+01
 Coeff:      0.100D+01
 Gap=     0.451 Goal=   None    Shift=    0.500
 T= 1469. Gap= 0.526 NK=0 IS=   75 IE=  525 IFin=   74
          NO(<0.9)=   0  NV(>0.1)=   0     74.00e < EF      0.00e >EF  Err=0.0D+00
 Gap=    -0.043 Goal=   None    Shift=    0.500
 T= 1469. Gap= 0.376 NK=0 IS=   74 IE=  525 IFin=   73
          NO(<0.9)=   0  NV(>0.1)=   0     73.00e < EF      0.00e >EF  Err=0.0D+00
 GapD=   -0.043 DampG=0.250 DampE=0.500 DampFc=0.1250 IDamp=-1.
 Damping current iteration by 1.25D-01
 RMSDP=3.02D-03 MaxDP=2.76D-01              OVMax= 1.06D-01

 Cycle   2  Pass 1  IDiag  1:
 E= -844.698110806359     Delta-E=       -0.059171724265 Rises=F Damp=T
 DIIS: error= 2.54D-02 at cycle   2 NSaved=   2.
 NSaved= 2 IEnMin= 2 EnMin= -844.698110806359     IErMin= 2 ErrMin= 2.54D-02
 ErrMax= 2.54D-02  0.00D+00 EMaxC= 1.00D+00 BMatC= 9.01D-01 BMatP= 1.26D+00
 IDIUse=1 WtCom= 1.00D+00 WtEn= 0.00D+00
 Coeff-Com: -0.513D+01 0.613D+01
 Coeff:     -0.513D+01 0.613D+01
 Gap=     0.187 Goal=   None    Shift=    0.500
 T= 1446. Gap= 0.678 NK=0 IS=   75 IE=  525 IFin=   74
          NO(<0.9)=   0  NV(>0.1)=   0     74.00e < EF      0.00e >EF  Err=0.0D+00
 Gap=     0.058 Goal=   None    Shift=    0.500
 T= 1446. Gap= 0.552 NK=0 IS=   74 IE=  525 IFin=   73
          NO(<0.9)=   0  NV(>0.1)=   0     73.00e < EF      0.00e >EF  Err=0.0D+00
 GapD=    0.058 DampG=0.500 DampE=0.500 DampFc=0.2500 IDamp=-1.
 Damping current iteration by 2.50D-01
 RMSDP=2.77D-03 MaxDP=2.41D-01 DE=-5.92D-02 OVMax= 4.17D-02

 Cycle   3  Pass 1  IDiag  1:
 E= -844.785561396203     Delta-E=       -0.087450589844 Rises=F Damp=T
 DIIS: error= 1.98D-02 at cycle   3 NSaved=   3.
 NSaved= 3 IEnMin= 3 EnMin= -844.785561396203     IErMin= 3 ErrMin= 1.98D-02
 ErrMax= 1.98D-02  0.00D+00 EMaxC= 1.00D+00 BMatC= 4.79D-01 BMatP= 9.01D-01
 IDIUse=1 WtCom= 1.00D+00 WtEn= 0.00D+00
 Coeff-Com:  0.249D+00-0.307D+01 0.382D+01
 Coeff:      0.249D+00-0.307D+01 0.382D+01
 Gap=     0.210 Goal=   None    Shift=    0.500
 T= 1378. Gap= 0.709 NK=0 IS=   75 IE=  525 IFin=   74
          NO(<0.9)=   0  NV(>0.1)=   0     74.00e < EF      0.00e >EF  Err=0.0D+00
 Gap=     0.077 Goal=   None    Shift=    0.500
 T= 1378. Gap= 0.578 NK=0 IS=   74 IE=  525 IFin=   73
          NO(<0.9)=   0  NV(>0.1)=   0     73.00e < EF      0.00e >EF  Err=0.0D+00
 GapD=    0.077 DampG=0.500 DampE=0.500 DampFc=0.2500 IDamp=-1.
 Damping current iteration by 2.50D-01
 RMSDP=1.99D-03 MaxDP=1.60D-01 DE=-8.75D-02 OVMax= 3.42D-02

 Cycle   4  Pass 1  IDiag  1:
 E= -844.841870303182     Delta-E=       -0.056308906979 Rises=F Damp=T
 DIIS: error= 1.54D-02 at cycle   4 NSaved=   4.
 NSaved= 4 IEnMin= 4 EnMin= -844.841870303182     IErMin= 4 ErrMin= 1.54D-02
 ErrMax= 1.54D-02  0.00D+00 EMaxC= 1.00D+00 BMatC= 2.62D-01 BMatP= 4.79D-01
 IDIUse=1 WtCom= 1.00D+00 WtEn= 0.00D+00
 Coeff-Com:  0.670D+00-0.968D+00-0.272D+01 0.402D+01
 Coeff:      0.670D+00-0.968D+00-0.272D+01 0.402D+01
 Gap=     0.217 Goal=   None    Shift=    0.500
 T= 1259. Gap= 0.718 NK=0 IS=   75 IE=  525 IFin=   74
          NO(<0.9)=   0  NV(>0.1)=   0     74.00e < EF      0.00e >EF  Err=0.0D+00
 Gap=     0.092 Goal=   None    Shift=    0.500
 T= 1259. Gap= 0.592 NK=0 IS=   74 IE=  525 IFin=   73
          NO(<0.9)=   0  NV(>0.1)=   0     73.00e < EF      0.00e >EF  Err=0.0D+00
 GapD=    0.092 DampG=0.500 DampE=0.500 DampFc=0.2500 IDamp=-1.
 Damping current iteration by 2.50D-01
 RMSDP=1.46D-03 MaxDP=1.03D-01 DE=-5.63D-02 OVMax= 3.16D-02

 Cycle   5  Pass 1  IDiag  1:
 E= -844.879852983603     Delta-E=       -0.037982680421 Rises=F Damp=T
 DIIS: error= 1.22D-02 at cycle   5 NSaved=   5.
 NSaved= 5 IEnMin= 5 EnMin= -844.879852983603     IErMin= 5 ErrMin= 1.22D-02
 ErrMax= 1.22D-02  0.00D+00 EMaxC= 1.00D+00 BMatC= 1.46D-01 BMatP= 2.62D-01
 IDIUse=1 WtCom= 1.00D+00 WtEn= 0.00D+00
 Coeff-Com: -0.456D-01 0.776D+00 0.368D+00-0.690D+01 0.680D+01
 Coeff:     -0.456D-01 0.776D+00 0.368D+00-0.690D+01 0.680D+01
 Gap=     0.230 Goal=   None    Shift=    0.500
 T= 1111. Gap= 0.729 NK=4 IS=   75 IE=   88 IFin=   74
          NO(<0.9)=   0  NV(>0.1)=   0     74.00e < EF      0.00e >EF  Err=0.0D+00
 Gap=     0.101 Goal=   None    Shift=    0.500
 T= 1111. Gap= 0.602 NK=4 IS=   74 IE=   87 IFin=   73
          NO(<0.9)=   0  NV(>0.1)=   0     73.00e < EF      0.00e >EF  Err=0.0D+00
 GapD=    0.101 DampG=1.000 DampE=0.500 DampFc=0.5000 IDamp=-1.
 Damping current iteration by 5.00D-01
 RMSDP=1.06D-03 MaxDP=6.13D-02 DE=-3.80D-02 OVMax= 3.31D-02

 Cycle   6  Pass 1  IDiag  1:
 E= -844.931008376684     Delta-E=       -0.051155393081 Rises=F Damp=T
 DIIS: error= 8.93D-03 at cycle   6 NSaved=   6.
 NSaved= 6 IEnMin= 6 EnMin= -844.931008376684     IErMin= 6 ErrMin= 8.93D-03
 ErrMax= 8.93D-03  0.00D+00 EMaxC= 1.00D+00 BMatC= 3.72D-02 BMatP= 1.46D-01
 IDIUse=1 WtCom= 1.00D+00 WtEn= 0.00D+00
 Coeff-Com: -0.347D+00 0.550D+00 0.143D+01-0.751D+00-0.399D+01 0.411D+01
 Coeff:     -0.347D+00 0.550D+00 0.143D+01-0.751D+00-0.399D+01 0.411D+01
 Gap=     0.236 Goal=   None    Shift=    0.500
 T=  954. Gap= 0.736 NK=4 IS=   75 IE=   88 IFin=   74
          NO(<0.9)=   0  NV(>0.1)=   0     74.00e < EF      0.00e >EF  Err=0.0D+00
 Gap=     0.108 Goal=   None    Shift=    0.500
 T=  954. Gap= 0.610 NK=4 IS=   74 IE=   87 IFin=   73
          NO(<0.9)=   0  NV(>0.1)=   0     73.00e < EF      0.00e >EF  Err=0.0D+00
 GapD=    0.108 DampG=1.000 DampE=1.000 DampFc=1.0000 IDamp=-1.
 RMSDP=5.39D-04 MaxDP=1.89D-02 DE=-5.12D-02 OVMax= 3.50D-02

 Cycle   7  Pass 1  IDiag  1:
 E= -844.977288706255     Delta-E=       -0.046280329571 Rises=F Damp=F
 DIIS: error= 4.92D-03 at cycle   7 NSaved=   7.
 NSaved= 7 IEnMin= 7 EnMin= -844.977288706255     IErMin= 7 ErrMin= 4.92D-03
 ErrMax= 4.92D-03  0.00D+00 EMaxC= 1.00D+00 BMatC= 8.71D-04 BMatP= 3.72D-02
 IDIUse=1 WtCom= 1.00D+00 WtEn= 0.00D+00
 Coeff-Com: -0.158D+00 0.683D-01 0.288D+00 0.242D+01-0.360D+01 0.208D+00
 Coeff-Com:  0.177D+01
 Coeff:     -0.158D+00 0.683D-01 0.288D+00 0.242D+01-0.360D+01 0.208D+00
 Coeff:      0.177D+01
 Gap=     0.240 Goal=   None    Shift=    0.500
 T=  752. Gap= 0.740 NK=4 IS=   75 IE=   88 IFin=   74
          NO(<0.9)=   0  NV(>0.1)=   0     74.00e < EF      0.00e >EF  Err=0.0D+00
 Gap=     0.113 Goal=   None    Shift=    0.500
 T=  752. Gap= 0.614 NK=4 IS=   74 IE=   87 IFin=   73
          NO(<0.9)=   0  NV(>0.1)=   0     73.00e < EF      0.00e >EF  Err=0.0D+00
 GapD=    0.113 DampG=1.000 DampE=1.000 DampFc=1.0000 IDamp=-1.
 RMSDP=1.48D-04 MaxDP=1.13D-02 DE=-4.63D-02 OVMax= 3.44D-02

 Cycle   8  Pass 1  IDiag  1:
 E= -844.978988617911     Delta-E=       -0.001699911655 Rises=F Damp=F
 DIIS: error= 4.47D-03 at cycle   8 NSaved=   8.
 NSaved= 8 IEnMin= 8 EnMin= -844.978988617911     IErMin= 8 ErrMin= 4.47D-03
 ErrMax= 4.47D-03  0.00D+00 EMaxC= 1.00D+00 BMatC= 6.94D-04 BMatP= 8.71D-04
 IDIUse=1 WtCom= 1.00D+00 WtEn= 0.00D+00
 Coeff-Com: -0.231D-01 0.229D-01-0.483D+00 0.134D+01 0.498D-01-0.197D+01
 Coeff-Com: -0.128D+00 0.219D+01
 Coeff:     -0.231D-01 0.229D-01-0.483D+00 0.134D+01 0.498D-01-0.197D+01
 Coeff:     -0.128D+00 0.219D+01
 Gap=     0.247 Goal=   None    Shift=    0.500
 T=  541. Gap= 0.747 NK=4 IS=   75 IE=   87 IFin=   74
          NO(<0.9)=   0  NV(>0.1)=   0     74.00e < EF      0.00e >EF  Err=0.0D+00
 Gap=     0.119 Goal=   None    Shift=    0.500
 T=  541. Gap= 0.621 NK=4 IS=   74 IE=   87 IFin=   73
          NO(<0.9)=   0  NV(>0.1)=   0     73.00e < EF      0.00e >EF  Err=0.0D+00
 GapD=    0.119 DampG=1.000 DampE=1.000 DampFc=1.0000 IDamp=-1.
 RMSDP=1.69D-04 MaxDP=1.28D-02 DE=-1.70D-03 OVMax= 3.63D-02

 Cycle   9  Pass 1  IDiag  1:
 E= -844.980533026613     Delta-E=       -0.001544408703 Rises=F Damp=F
 DIIS: error= 4.17D-03 at cycle   9 NSaved=   9.
 NSaved= 9 IEnMin= 9 EnMin= -844.980533026613     IErMin= 9 ErrMin= 4.17D-03
 ErrMax= 4.17D-03  0.00D+00 EMaxC= 1.00D+00 BMatC= 6.38D-04 BMatP= 6.94D-04
 IDIUse=1 WtCom= 1.00D+00 WtEn= 0.00D+00
 Coeff-Com: -0.263D-01 0.306D-01-0.471D+00 0.129D+01 0.677D-01-0.191D+01
 Coeff-Com: -0.137D+00 0.208D+01 0.795D-01
 Coeff:     -0.263D-01 0.306D-01-0.471D+00 0.129D+01 0.677D-01-0.191D+01
 Coeff:     -0.137D+00 0.208D+01 0.795D-01
 Gap=     0.247 Goal=   None    Shift=    0.500
 T=  360. Gap= 0.747 NK=4 IS=   75 IE=   87 IFin=   74
          NO(<0.9)=   0  NV(>0.1)=   0     74.00e < EF      0.00e >EF  Err=0.0D+00
 Gap=     0.123 Goal=   None    Shift=    0.500
 T=  360. Gap= 0.624 NK=4 IS=   74 IE=   87 IFin=   73
          NO(<0.9)=   0  NV(>0.1)=   0     73.00e < EF      0.00e >EF  Err=0.0D+00
 GapD=    0.123 DampG=1.000 DampE=1.000 DampFc=1.0000 IDamp=-1.
 RMSDP=8.64D-05 MaxDP=7.14D-03 DE=-1.54D-03 OVMax= 2.86D-02

 Cycle  10  Pass 1  IDiag  1:
 E= -844.981605763023     Delta-E=       -0.001072736410 Rises=F Damp=F
 DIIS: error= 3.71D-03 at cycle  10 NSaved=  10.
 NSaved=10 IEnMin=10 EnMin= -844.981605763023     IErMin=10 ErrMin= 3.71D-03
 ErrMax= 3.71D-03  0.00D+00 EMaxC= 1.00D+00 BMatC= 5.07D-04 BMatP= 6.38D-04
 IDIUse=1 WtCom= 1.00D+00 WtEn= 0.00D+00
 Coeff-Com:  0.597D-02-0.134D+00 0.101D+00 0.920D+00-0.715D+00-0.774D+00
 Coeff-Com:  0.768D+00-0.484D-01-0.193D+01 0.281D+01
 Coeff:      0.597D-02-0.134D+00 0.101D+00 0.920D+00-0.715D+00-0.774D+00
 Coeff:      0.768D+00-0.484D-01-0.193D+01 0.281D+01
 Gap=     0.253 Goal=   None    Shift=    0.500
 T=  304. Gap= 0.753 NK=4 IS=   75 IE=   87 IFin=   74
          NO(<0.9)=   0  NV(>0.1)=   0     74.00e < EF      0.00e >EF  Err=0.0D+00
 Gap=     0.126 Goal=   None    Shift=    0.500
 T=  304. Gap= 0.628 NK=4 IS=   74 IE=   87 IFin=   73
          NO(<0.9)=   0  NV(>0.1)=   0     73.00e < EF      0.00e >EF  Err=0.0D+00
 GapD=    0.126 DampG=1.000 DampE=1.000 DampFc=1.0000 IDamp=-1.
 RMSDP=1.17D-04 MaxDP=8.88D-03 DE=-1.07D-03 OVMax= 3.15D-02

 Cycle  11  Pass 1  IDiag  1:
 E= -844.982656663070     Delta-E=       -0.001050900047 Rises=F Damp=F
 DIIS: error= 3.54D-03 at cycle  11 NSaved=  11.
 NSaved=11 IEnMin=11 EnMin= -844.982656663070     IErMin=11 ErrMin= 3.54D-03
 ErrMax= 3.54D-03  0.00D+00 EMaxC= 1.00D+00 BMatC= 5.25D-04 BMatP= 5.07D-04
 IDIUse=1 WtCom= 1.00D+00 WtEn= 0.00D+00
 Coeff-Com: -0.200D-01-0.233D+00 0.536D+00 0.170D+01-0.304D+01 0.889D+00
 Coeff-Com:  0.210D+01-0.152D+01-0.452D+01 0.308D+01 0.203D+01
 Coeff:     -0.200D-01-0.233D+00 0.536D+00 0.170D+01-0.304D+01 0.889D+00
 Coeff:      0.210D+01-0.152D+01-0.452D+01 0.308D+01 0.203D+01
 Gap=     0.258 Goal=   None    Shift=    0.500
 T=  257. Gap= 0.758 NK=4 IS=   75 IE=   85 IFin=   74
          NO(<0.9)=   0  NV(>0.1)=   0     74.00e < EF      0.00e >EF  Err=0.0D+00
 Gap=     0.129 Goal=   None    Shift=    0.500
 T=  257. Gap= 0.630 NK=4 IS=   74 IE=   87 IFin=   73
          NO(<0.9)=   0  NV(>0.1)=   0     73.00e < EF      0.00e >EF  Err=0.0D+00
 GapD=    0.129 DampG=1.000 DampE=1.000 DampFc=1.0000 IDamp=-1.
 RMSDP=1.38D-04 MaxDP=1.12D-02 DE=-1.05D-03 OVMax= 3.54D-02

 Cycle  12  Pass 1  IDiag  1:
 E= -844.983724704039     Delta-E=       -0.001068040968 Rises=F Damp=F
 DIIS: error= 3.39D-03 at cycle  12 NSaved=  12.
 NSaved=12 IEnMin=12 EnMin= -844.983724704039     IErMin=12 ErrMin= 3.39D-03
 ErrMax= 3.39D-03  0.00D+00 EMaxC= 1.00D+00 BMatC= 5.84D-04 BMatP= 5.07D-04
 IDIUse=1 WtCom= 1.00D+00 WtEn= 0.00D+00
 Coeff-Com: -0.355D-01-0.143D+00-0.851D-02 0.269D+01-0.343D+01 0.592D+00
 Coeff-Com:  0.155D+01 0.990D+00-0.618D+01 0.293D+01-0.678D+00 0.272D+01
 Coeff:     -0.355D-01-0.143D+00-0.851D-02 0.269D+01-0.343D+01 0.592D+00
 Coeff:      0.155D+01 0.990D+00-0.618D+01 0.293D+01-0.678D+00 0.272D+01
 Gap=     0.262 Goal=   None    Shift=    0.500
 T=  215. Gap= 0.762 NK=4 IS=   75 IE=   85 IFin=   74
          NO(<0.9)=   0  NV(>0.1)=   0     74.00e < EF      0.00e >EF  Err=0.0D+00
 Gap=     0.131 Goal=   None    Shift=    0.500
 T=  215. Gap= 0.633 NK=4 IS=   74 IE=   87 IFin=   73
          NO(<0.9)=   0  NV(>0.1)=   0     73.00e < EF      0.00e >EF  Err=0.0D+00
 GapD=    0.131 DampG=1.000 DampE=1.000 DampFc=1.0000 IDamp=-1.
 RMSDP=1.46D-04 MaxDP=1.06D-02 DE=-1.07D-03 OVMax= 3.83D-02

 Cycle  13  Pass 1  IDiag  1:
 E= -844.984764764531     Delta-E=       -0.001040060492 Rises=F Damp=F
 DIIS: error= 3.23D-03 at cycle  13 NSaved=  13.
 NSaved=13 IEnMin=13 EnMin= -844.984764764531     IErMin=13 ErrMin= 3.23D-03
 ErrMax= 3.23D-03  0.00D+00 EMaxC= 1.00D+00 BMatC= 6.73D-04 BMatP= 5.07D-04
 IDIUse=1 WtCom= 1.00D+00 WtEn= 0.00D+00
 Coeff-Com: -0.222D-01-0.111D+00 0.124D-01 0.205D+01-0.252D+01 0.172D+00
 Coeff-Com:  0.113D+01 0.158D+01-0.595D+01 0.337D+01-0.443D+00-0.237D+00
 Coeff-Com:  0.197D+01
 Coeff:     -0.222D-01-0.111D+00 0.124D-01 0.205D+01-0.252D+01 0.172D+00
 Coeff:      0.113D+01 0.158D+01-0.595D+01 0.337D+01-0.443D+00-0.237D+00
 Coeff:      0.197D+01
 Gap=     0.263 Goal=   None    Shift=    0.500
 T=  187. Gap= 0.763 NK=4 IS=   75 IE=   86 IFin=   74
          NO(<0.9)=   0  NV(>0.1)=   0     74.00e < EF      0.00e >EF  Err=0.0D+00
 Gap=     0.135 Goal=   None    Shift=    0.500
 T=  187. Gap= 0.636 NK=4 IS=   74 IE=   87 IFin=   73
          NO(<0.9)=   0  NV(>0.1)=   0     73.00e < EF      0.00e >EF  Err=0.0D+00
 GapD=    0.135 DampG=1.000 DampE=1.000 DampFc=1.0000 IDamp=-1.
 RMSDP=1.10D-04 MaxDP=7.56D-03 DE=-1.04D-03 OVMax= 3.40D-02

 Cycle  14  Pass 1  IDiag  1:
 E= -844.985624381347     Delta-E=       -0.000859616816 Rises=F Damp=F
 DIIS: error= 2.96D-03 at cycle  14 NSaved=  14.
 NSaved=14 IEnMin=14 EnMin= -844.985624381347     IErMin=14 ErrMin= 2.96D-03
 ErrMax= 2.96D-03  0.00D+00 EMaxC= 1.00D+00 BMatC= 6.07D-04 BMatP= 5.07D-04
 IDIUse=1 WtCom= 1.00D+00 WtEn= 0.00D+00
 Coeff-Com:  0.521D-02-0.141D+00 0.262D+00 0.101D+01-0.139D+01-0.202D+00
 Coeff-Com:  0.102D+01 0.661D+00-0.357D+01 0.278D+01 0.118D+01-0.356D+01
 Coeff-Com: -0.226D+00 0.317D+01
 Coeff:      0.521D-02-0.141D+00 0.262D+00 0.101D+01-0.139D+01-0.202D+00
 Coeff:      0.102D+01 0.661D+00-0.357D+01 0.278D+01 0.118D+01-0.356D+01
 Coeff:     -0.226D+00 0.317D+01
 Gap=     0.266 Goal=   None    Shift=    0.500
 T=  152. Gap= 0.766 NK=4 IS=   75 IE=   86 IFin=   74
          NO(<0.9)=   0  NV(>0.1)=   0     74.00e < EF      0.00e >EF  Err=0.0D+00
 Gap=     0.136 Goal=   None    Shift=    0.500
 T=  152. Gap= 0.638 NK=4 IS=   74 IE=   87 IFin=   73
          NO(<0.9)=   0  NV(>0.1)=   0     73.00e < EF      0.00e >EF  Err=0.0D+00
 GapD=    0.136 DampG=1.000 DampE=1.000 DampFc=1.0000 IDamp=-1.
 RMSDP=1.25D-04 MaxDP=7.54D-03 DE=-8.60D-04 OVMax= 3.51D-02

 Cycle  15  Pass 1  IDiag  1:
 E= -844.986408239873     Delta-E=       -0.000783858526 Rises=F Damp=F
 DIIS: error= 2.76D-03 at cycle  15 NSaved=  15.
 NSaved=15 IEnMin=15 EnMin= -844.986408239873     IErMin=15 ErrMin= 2.76D-03
 ErrMax= 2.76D-03  0.00D+00 EMaxC= 1.00D+00 BMatC= 6.45D-04 BMatP= 5.07D-04
 IDIUse=1 WtCom= 1.00D+00 WtEn= 0.00D+00
 Coeff-Com:  0.186D-02-0.139D+00 0.314D+00 0.878D+00-0.134D+01-0.135D+00
 Coeff-Com:  0.100D+01 0.637D-01-0.263D+01 0.241D+01 0.178D+01-0.312D+01
 Coeff-Com: -0.181D+01 0.238D+01 0.135D+01
 Coeff:      0.186D-02-0.139D+00 0.314D+00 0.878D+00-0.134D+01-0.135D+00
 Coeff:      0.100D+01 0.637D-01-0.263D+01 0.241D+01 0.178D+01-0.312D+01
 Coeff:     -0.181D+01 0.238D+01 0.135D+01
 Gap=     0.266 Goal=   None    Shift=    0.500
 T=  112. Gap= 0.766 NK=4 IS=   75 IE=   86 IFin=   74
          NO(<0.9)=   0  NV(>0.1)=   0     74.00e < EF      0.00e >EF  Err=0.0D+00
 Gap=     0.138 Goal=   None    Shift=    0.500
 T=  112. Gap= 0.639 NK=4 IS=   74 IE=   86 IFin=   73
          NO(<0.9)=   0  NV(>0.1)=   0     73.00e < EF      0.00e >EF  Err=0.0D+00
 GapD=    0.138 DampG=1.000 DampE=1.000 DampFc=1.0000 IDamp=-1.
 RMSDP=8.69D-05 MaxDP=5.17D-03 DE=-7.84D-04 OVMax= 2.99D-02

 Cycle  16  Pass 1  IDiag  1:
 E= -844.987043502844     Delta-E=       -0.000635262971 Rises=F Damp=F
 DIIS: error= 2.47D-03 at cycle  16 NSaved=  16.
 NSaved=16 IEnMin=16 EnMin= -844.987043502844     IErMin=16 ErrMin= 2.47D-03
 ErrMax= 2.47D-03  0.00D+00 EMaxC= 1.00D+00 BMatC= 5.18D-04 BMatP= 5.07D-04
 IDIUse=1 WtCom= 1.00D+00 WtEn= 0.00D+00
 Coeff-Com: -0.177D-01-0.120D+00 0.234D-01 0.184D+01-0.241D+01 0.492D+00
 Coeff-Com:  0.111D+01-0.638D+00-0.154D+01 0.399D+00 0.925D+00 0.254D+01
 Coeff-Com: -0.334D+01-0.117D+01-0.172D+01 0.460D+01
 Coeff:     -0.177D-01-0.120D+00 0.234D-01 0.184D+01-0.241D+01 0.492D+00
 Coeff:      0.111D+01-0.638D+00-0.154D+01 0.399D+00 0.925D+00 0.254D+01
 Coeff:     -0.334D+01-0.117D+01-0.172D+01 0.460D+01
 Gap=     0.269 Goal=   None    Shift=    0.500
 T=   58. Gap= 0.768 NK=4 IS=   75 IE=   86 IFin=   74
          NO(<0.9)=   0  NV(>0.1)=   0     74.00e < EF      0.00e >EF  Err=0.0D+00
 Gap=     0.138 Goal=   None    Shift=    0.500
 T=   58. Gap= 0.640 NK=4 IS=   74 IE=   85 IFin=   73
          NO(<0.9)=   0  NV(>0.1)=   0     73.00e < EF      0.00e >EF  Err=0.0D+00
 GapD=    0.138 DampG=1.000 DampE=1.000 DampFc=1.0000 IDamp=-1.
 RMSDP=1.49D-04 MaxDP=9.44D-03 DE=-6.35D-04 OVMax= 3.71D-02

 Cycle  17  Pass 1  IDiag  1:
 E= -844.987653192030     Delta-E=       -0.000609689185 Rises=F Damp=F
 DIIS: error= 2.38D-03 at cycle  17 NSaved=  17.
 NSaved=17 IEnMin=17 EnMin= -844.987653192030     IErMin=17 ErrMin= 2.38D-03
 ErrMax= 2.38D-03  0.00D+00 EMaxC= 1.00D+00 BMatC= 7.40D-04 BMatP= 5.07D-04
 IDIUse=1 WtCom= 1.00D+00 WtEn= 0.00D+00
 Coeff-Com: -0.151D-01-0.117D+00 0.827D-02 0.177D+01-0.228D+01 0.454D+00
 Coeff-Com:  0.963D+00-0.218D+00-0.209D+01 0.665D+00 0.710D+00 0.248D+01
 Coeff-Com: -0.230D+01-0.107D+01-0.317D+01 0.459D+01 0.620D+00
 Coeff:     -0.151D-01-0.117D+00 0.827D-02 0.177D+01-0.228D+01 0.454D+00
 Coeff:      0.963D+00-0.218D+00-0.209D+01 0.665D+00 0.710D+00 0.248D+01
 Coeff:     -0.230D+01-0.107D+01-0.317D+01 0.459D+01 0.620D+00
 Gap=     0.268 Goal=   None    Shift=    0.500
 T=   14. Gap= 0.768 NK=4 IS=   75 IE=   85 IFin=   74
          NO(<0.9)=   0  NV(>0.1)=   0     74.00e < EF      0.00e >EF  Err=0.0D+00
 Gap=     0.141 Goal=   None    Shift=    0.500
 T=   14. Gap= 0.642 NK=4 IS=   74 IE=   85 IFin=   73
          NO(<0.9)=   0  NV(>0.1)=   0     73.00e < EF      0.00e >EF  Err=0.0D+00
 GapD=    0.141 DampG=1.000 DampE=1.000 DampFc=1.0000 IDamp=-1.
 RMSDP=8.65D-05 MaxDP=5.13D-03 DE=-6.10D-04 OVMax= 2.99D-02

 Cycle  18  Pass 1  IDiag  1:
 E= -844.988151633409     Delta-E=       -0.000498441380 Rises=F Damp=F
 DIIS: error= 2.10D-03 at cycle  18 NSaved=  18.
 NSaved=18 IEnMin=18 EnMin= -844.988151633409     IErMin=18 ErrMin= 2.10D-03
 ErrMax= 2.10D-03  0.00D+00 EMaxC= 1.00D+00 BMatC= 6.03D-04 BMatP= 5.07D-04
 IDIUse=1 WtCom= 1.00D+00 WtEn= 0.00D+00
 Coeff-Com:  0.276D-02-0.874D-01 0.351D-01 0.945D+00-0.112D+01-0.606D-02
 Coeff-Com:  0.488D+00 0.646D+00-0.209D+01 0.739D+00 0.108D+00 0.733D+00
 Coeff-Com:  0.549D+00-0.813D+00-0.159D+01 0.198D+01-0.375D+01 0.423D+01
 Coeff:      0.276D-02-0.874D-01 0.351D-01 0.945D+00-0.112D+01-0.606D-02
 Coeff:      0.488D+00 0.646D+00-0.209D+01 0.739D+00 0.108D+00 0.733D+00
 Coeff:      0.549D+00-0.813D+00-0.159D+01 0.198D+01-0.375D+01 0.423D+01
 Gap=     0.268 Goal=   None    Shift=    0.500
 Gap=     0.141 Goal=   None    Shift=    0.500
 GapD=    0.141 DampG=1.000 DampE=1.000 DampFc=1.0000 IDamp=-1.
 RMSDP=8.66D-05 MaxDP=5.41D-03 DE=-4.98D-04 OVMax= 2.83D-02

 Cycle  19  Pass 1  IDiag  1:
 E= -844.988555162090     Delta-E=       -0.000403528681 Rises=F Damp=F
 DIIS: error= 1.86D-03 at cycle  19 NSaved=  19.
 NSaved=19 IEnMin=19 EnMin= -844.988555162090     IErMin=19 ErrMin= 1.86D-03
 ErrMax= 1.86D-03  0.00D+00 EMaxC= 1.00D+00 BMatC= 5.32D-04 BMatP= 5.07D-04
 IDIUse=1 WtCom= 1.00D+00 WtEn= 0.00D+00
 Coeff-Com:  0.566D-02-0.795D-01 0.132D+00 0.559D+00-0.815D+00 0.784D-02
 Coeff-Com:  0.464D+00 0.184D+00-0.113D+01 0.424D+00 0.453D+00-0.169D+00
 Coeff-Com: -0.273D+00-0.183D+00 0.116D+01 0.735D+00-0.493D+01 0.238D+01
 Coeff-Com:  0.209D+01
 Coeff:      0.566D-02-0.795D-01 0.132D+00 0.559D+00-0.815D+00 0.784D-02
 Coeff:      0.464D+00 0.184D+00-0.113D+01 0.424D+00 0.453D+00-0.169D+00
 Coeff:     -0.273D+00-0.183D+00 0.116D+01 0.735D+00-0.493D+01 0.238D+01
 Coeff:      0.209D+01
 Gap=     0.267 Goal=   None    Shift=    0.500
 Gap=     0.142 Goal=   None    Shift=    0.500
 GapD=    0.142 DampG=1.000 DampE=1.000 DampFc=1.0000 IDamp=-1.
 RMSDP=6.79D-05 MaxDP=3.70D-03 DE=-4.04D-04 OVMax= 2.44D-02

 Cycle  20  Pass 1  IDiag  1:
 E= -844.988877080772     Delta-E=       -0.000321918681 Rises=F Damp=F
 DIIS: error= 1.63D-03 at cycle  20 NSaved=  20.
 NSaved=20 IEnMin=20 EnMin= -844.988877080772     IErMin=20 ErrMin= 1.63D-03
 ErrMax= 1.63D-03  0.00D+00 EMaxC= 1.00D+00 BMatC= 4.17D-04 BMatP= 5.07D-04
 IDIUse=1 WtCom= 1.00D+00 WtEn= 0.00D+00
 Coeff-Com: -0.203D-01-0.425D-02 0.118D+00 0.484D+00-0.102D+01 0.444D+00
 Coeff-Com:  0.377D+00-0.711D+00 0.189D+00-0.816D-01 0.119D+01 0.690D-01
 Coeff-Com: -0.306D+01 0.107D+01 0.951D+00 0.105D+01 0.168D+01-0.535D+01
 Coeff-Com: -0.142D+01 0.504D+01
 Coeff:     -0.203D-01-0.425D-02 0.118D+00 0.484D+00-0.102D+01 0.444D+00
 Coeff:      0.377D+00-0.711D+00 0.189D+00-0.816D-01 0.119D+01 0.690D-01
 Coeff:     -0.306D+01 0.107D+01 0.951D+00 0.105D+01 0.168D+01-0.535D+01
 Coeff:     -0.142D+01 0.504D+01
 Gap=     0.266 Goal=   None    Shift=    0.500
 Gap=     0.141 Goal=   None    Shift=    0.500
 GapD=    0.141 DampG=1.000 DampE=1.000 DampFc=1.0000 IDamp=-1.
 RMSDP=8.73D-05 MaxDP=5.26D-03 DE=-3.22D-04 OVMax= 2.50D-02

 Cycle  21  Pass 1  IDiag  1:
 E= -844.989128905503     Delta-E=       -0.000251824732 Rises=F Damp=F
 DIIS: error= 1.48D-03 at cycle  21 NSaved=  20.
 NSaved=20 IEnMin=20 EnMin= -844.989128905503     IErMin=20 ErrMin= 1.48D-03
 ErrMax= 1.48D-03  0.00D+00 EMaxC= 1.00D+00 BMatC= 4.57D-04 BMatP= 4.17D-04
 IDIUse=1 WtCom= 1.00D+00 WtEn= 0.00D+00
 Coeff-Com: -0.355D-01 0.407D-01 0.578D+00-0.911D+00 0.299D+00 0.317D+00
 Coeff-Com: -0.562D+00 0.133D+00-0.570D-01 0.118D+01 0.352D-01-0.294D+01
 Coeff-Com:  0.124D+01 0.264D-01 0.165D+01 0.184D+01-0.474D+01-0.199D+01
 Coeff-Com:  0.416D+01 0.748D+00
 Coeff:     -0.355D-01 0.407D-01 0.578D+00-0.911D+00 0.299D+00 0.317D+00
 Coeff:     -0.562D+00 0.133D+00-0.570D-01 0.118D+01 0.352D-01-0.294D+01
 Coeff:      0.124D+01 0.264D-01 0.165D+01 0.184D+01-0.474D+01-0.199D+01
 Coeff:      0.416D+01 0.748D+00
 Gap=     0.266 Goal=   None    Shift=    0.500
 Gap=     0.142 Goal=   None    Shift=    0.500
 GapD=    0.142 DampG=1.000 DampE=1.000 DampFc=1.0000 IDamp=-1.
 RMSDP=5.45D-05 MaxDP=2.73D-03 DE=-2.52D-04 OVMax= 2.01D-02

 Cycle  22  Pass 1  IDiag  1:
 E= -844.989337166239     Delta-E=       -0.000208260736 Rises=F Damp=F
 DIIS: error= 1.27D-03 at cycle  22 NSaved=  20.
 NSaved=20 IEnMin=20 EnMin= -844.989337166239     IErMin=20 ErrMin= 1.27D-03
 ErrMax= 1.27D-03  0.00D+00 EMaxC= 1.00D+00 BMatC= 3.51D-04 BMatP= 4.17D-04
 IDIUse=1 WtCom= 1.00D+00 WtEn= 0.00D+00
 Coeff-Com: -0.475D-01 0.322D+00-0.361D+00 0.283D-01 0.877D-01 0.196D+00
 Coeff-Com: -0.591D+00 0.203D+00 0.216D+00 0.814D+00-0.758D+00-0.454D+00
 Coeff-Com: -0.197D+01 0.220D+01 0.239D+01-0.894D+00-0.235D+01 0.608D+00
 Coeff-Com: -0.457D+01 0.593D+01
 Coeff:     -0.475D-01 0.322D+00-0.361D+00 0.283D-01 0.877D-01 0.196D+00
 Coeff:     -0.591D+00 0.203D+00 0.216D+00 0.814D+00-0.758D+00-0.454D+00
 Coeff:     -0.197D+01 0.220D+01 0.239D+01-0.894D+00-0.235D+01 0.608D+00
 Coeff:     -0.457D+01 0.593D+01
 Gap=     0.265 Goal=   None    Shift=    0.500
 Gap=     0.140 Goal=   None    Shift=    0.500
 GapD=    0.140 DampG=1.000 DampE=1.000 DampFc=1.0000 IDamp=-1.
 RMSDP=6.76D-05 MaxDP=3.26D-03 DE=-2.08D-04 OVMax= 1.99D-02

 Cycle  23  Pass 1  IDiag  1:
 E= -844.989493590376     Delta-E=       -0.000156424137 Rises=F Damp=F
 DIIS: error= 1.13D-03 at cycle  23 NSaved=  20.
 NSaved=20 IEnMin=20 EnMin= -844.989493590376     IErMin=20 ErrMin= 1.13D-03
 ErrMax= 1.13D-03  0.00D+00 EMaxC= 1.00D+00 BMatC= 3.49D-04 BMatP= 3.51D-04
 IDIUse=1 WtCom= 1.00D+00 WtEn= 0.00D+00
 Coeff-Com:  0.150D+00-0.218D+00 0.320D-01 0.558D-01 0.148D+00-0.502D+00
 Coeff-Com:  0.206D+00 0.169D+00 0.641D+00-0.422D+00-0.561D+00-0.177D+01
 Coeff-Com:  0.194D+01 0.189D+01-0.277D+00-0.195D+01 0.581D+00-0.553D+01
 Coeff-Com:  0.577D+01 0.641D+00
 Coeff:      0.150D+00-0.218D+00 0.320D-01 0.558D-01 0.148D+00-0.502D+00
 Coeff:      0.206D+00 0.169D+00 0.641D+00-0.422D+00-0.561D+00-0.177D+01
 Coeff:      0.194D+01 0.189D+01-0.277D+00-0.195D+01 0.581D+00-0.553D+01
 Coeff:      0.577D+01 0.641D+00
 Gap=     0.265 Goal=   None    Shift=    0.500
 Gap=     0.141 Goal=   None    Shift=    0.500
 GapD=    0.141 DampG=1.000 DampE=1.000 DampFc=1.0000 IDamp=-1.
 RMSDP=4.40D-05 MaxDP=1.84D-03 DE=-1.56D-04 OVMax= 1.62D-02

 Cycle  24  Pass 1  IDiag  1:
 E= -844.989620089639     Delta-E=       -0.000126499263 Rises=F Damp=F
 DIIS: error= 9.64D-04 at cycle  24 NSaved=  20.
 NSaved=20 IEnMin=20 EnMin= -844.989620089639     IErMin=20 ErrMin= 9.64D-04
 ErrMax= 9.64D-04  0.00D+00 EMaxC= 1.00D+00 BMatC= 2.68D-04 BMatP= 3.49D-04
 IDIUse=1 WtCom= 1.00D+00 WtEn= 0.00D+00
 Coeff-Com: -0.127D-01 0.224D-01-0.452D-01 0.726D-01-0.340D+00 0.182D+00
 Coeff-Com:  0.549D-01 0.581D+00-0.285D+00-0.485D+00-0.526D+00 0.461D+00
 Coeff-Com:  0.185D+01-0.176D+01-0.566D+00 0.194D+01-0.257D+01 0.201D+01
 Coeff-Com: -0.478D+01 0.521D+01
 Coeff:     -0.127D-01 0.224D-01-0.452D-01 0.726D-01-0.340D+00 0.182D+00
 Coeff:      0.549D-01 0.581D+00-0.285D+00-0.485D+00-0.526D+00 0.461D+00
 Coeff:      0.185D+01-0.176D+01-0.566D+00 0.194D+01-0.257D+01 0.201D+01
 Coeff:     -0.478D+01 0.521D+01
 Gap=     0.265 Goal=   None    Shift=    0.500
 Gap=     0.141 Goal=   None    Shift=    0.500
 RMSDP=4.98D-05 MaxDP=2.26D-03 DE=-1.26D-04 OVMax= 1.54D-02

 Cycle  25  Pass 1  IDiag  1:
 E= -844.989701558180     Delta-E=       -0.000081468541 Rises=F Damp=F
 DIIS: error= 8.52D-04 at cycle  25 NSaved=  20.
 NSaved=20 IEnMin=20 EnMin= -844.989701558180     IErMin=20 ErrMin= 8.52D-04
 ErrMax= 8.52D-04  0.00D+00 EMaxC= 1.00D+00 BMatC= 2.61D-04 BMatP= 2.68D-04
 IDIUse=1 WtCom= 1.00D+00 WtEn= 0.00D+00
 Coeff-Com: -0.265D-02-0.384D-01 0.911D-01-0.367D+00 0.203D+00 0.192D+00
 Coeff-Com:  0.474D+00-0.610D+00-0.196D+00-0.386D+00 0.480D+00 0.173D+01
 Coeff-Com: -0.203D+01-0.692D+00 0.206D+01-0.121D+01 0.128D+01-0.527D+01
 Coeff-Com:  0.430D+01 0.996D+00
 Coeff:     -0.265D-02-0.384D-01 0.911D-01-0.367D+00 0.203D+00 0.192D+00
 Coeff:      0.474D+00-0.610D+00-0.196D+00-0.386D+00 0.480D+00 0.173D+01
 Coeff:     -0.203D+01-0.692D+00 0.206D+01-0.121D+01 0.128D+01-0.527D+01
 Coeff:      0.430D+01 0.996D+00
 Gap=     0.265 Goal=   None    Shift=    0.500
 Gap=     0.141 Goal=   None    Shift=    0.500
 RMSDP=3.00D-05 MaxDP=1.36D-03 DE=-8.15D-05 OVMax= 1.20D-02

 Cycle  26  Pass 1  IDiag  1:
 E= -844.989771787004     Delta-E=       -0.000070228824 Rises=F Damp=F
 DIIS: error= 7.12D-04 at cycle  26 NSaved=  20.
 NSaved=20 IEnMin=20 EnMin= -844.989771787004     IErMin=20 ErrMin= 7.12D-04
 ErrMax= 7.12D-04  0.00D+00 EMaxC= 1.00D+00 BMatC= 1.88D-04 BMatP= 2.61D-04
 IDIUse=1 WtCom= 1.00D+00 WtEn= 0.00D+00
 Coeff-Com:  0.736D-01-0.117D+00-0.242D+00 0.151D+00 0.286D+00 0.381D+00
 Coeff-Com: -0.671D+00-0.268D+00-0.373D+00 0.578D+00 0.199D+01-0.171D+01
 Coeff-Com: -0.109D+01 0.760D+00-0.308D+00 0.120D+01 0.150D+00 0.293D+00
 Coeff-Com: -0.646D+01 0.637D+01
 Coeff:      0.736D-01-0.117D+00-0.242D+00 0.151D+00 0.286D+00 0.381D+00
 Coeff:     -0.671D+00-0.268D+00-0.373D+00 0.578D+00 0.199D+01-0.171D+01
 Coeff:     -0.109D+01 0.760D+00-0.308D+00 0.120D+01 0.150D+00 0.293D+00
 Coeff:     -0.646D+01 0.637D+01
 Gap=     0.265 Goal=   None    Shift=    0.500
 Gap=     0.141 Goal=   None    Shift=    0.500
 RMSDP=2.43D-05 MaxDP=1.14D-03 DE=-7.02D-05 OVMax= 9.90D-03

 Cycle  27  Pass 1  IDiag  1:
 E= -844.989819425681     Delta-E=       -0.000047638677 Rises=F Damp=F
 DIIS: error= 5.89D-04 at cycle  27 NSaved=  20.
 NSaved=20 IEnMin=20 EnMin= -844.989819425681     IErMin=20 ErrMin= 5.89D-04
 ErrMax= 5.89D-04  0.00D+00 EMaxC= 1.00D+00 BMatC= 1.37D-04 BMatP= 1.88D-04
 IDIUse=1 WtCom= 1.00D+00 WtEn= 0.00D+00
 Coeff-Com:  0.852D-02-0.189D+00 0.120D+00 0.301D-01 0.408D+00-0.257D+00
 Coeff-Com: -0.396D+00-0.616D+00 0.593D+00 0.167D+01-0.798D+00-0.106D+01
 Coeff-Com:  0.226D+00-0.137D+01 0.179D+01 0.164D+01-0.139D+00-0.636D+01
 Coeff-Com:  0.386D+01 0.183D+01
 Coeff:      0.852D-02-0.189D+00 0.120D+00 0.301D-01 0.408D+00-0.257D+00
 Coeff:     -0.396D+00-0.616D+00 0.593D+00 0.167D+01-0.798D+00-0.106D+01
 Coeff:      0.226D+00-0.137D+01 0.179D+01 0.164D+01-0.139D+00-0.636D+01
 Coeff:      0.386D+01 0.183D+01
 Gap=     0.265 Goal=   None    Shift=    0.500
 Gap=     0.141 Goal=   None    Shift=    0.500
 RMSDP=1.78D-05 MaxDP=9.13D-04 DE=-4.76D-05 OVMax= 7.83D-03

 Cycle  28  Pass 1  IDiag  1:
 E= -844.989852667537     Delta-E=       -0.000033241856 Rises=F Damp=F
 DIIS: error= 4.83D-04 at cycle  28 NSaved=  20.
 NSaved=20 IEnMin=20 EnMin= -844.989852667537     IErMin=20 ErrMin= 4.83D-04
 ErrMax= 4.83D-04  0.00D+00 EMaxC= 1.00D+00 BMatC= 9.34D-05 BMatP= 1.37D-04
 IDIUse=1 WtCom= 1.00D+00 WtEn= 0.00D+00
 Coeff-Com: -0.152D+00 0.125D+00-0.243D-01 0.350D+00-0.137D+00-0.335D+00
 Coeff-Com: -0.561D+00 0.516D+00 0.104D+01-0.234D+00-0.719D+00 0.124D+00
 Coeff-Com: -0.166D+01 0.164D+01 0.924D+00 0.295D+00-0.259D+01 0.137D+00
 Coeff-Com:  0.155D+00 0.211D+01
 Coeff:     -0.152D+00 0.125D+00-0.243D-01 0.350D+00-0.137D+00-0.335D+00
 Coeff:     -0.561D+00 0.516D+00 0.104D+01-0.234D+00-0.719D+00 0.124D+00
 Coeff:     -0.166D+01 0.164D+01 0.924D+00 0.295D+00-0.259D+01 0.137D+00
 Coeff:      0.155D+00 0.211D+01
 Gap=     0.265 Goal=   None    Shift=    0.500
 Gap=     0.141 Goal=   None    Shift=    0.500
 RMSDP=1.29D-05 MaxDP=6.64D-04 DE=-3.32D-05 OVMax= 6.07D-03

 Cycle  29  Pass 1  IDiag  1:
 E= -844.989876022822     Delta-E=       -0.000023355285 Rises=F Damp=F
 DIIS: error= 3.87D-04 at cycle  29 NSaved=  20.
 NSaved=20 IEnMin=20 EnMin= -844.989876022822     IErMin=20 ErrMin= 3.87D-04
 ErrMax= 3.87D-04  0.00D+00 EMaxC= 1.00D+00 BMatC= 5.91D-05 BMatP= 9.34D-05
 IDIUse=1 WtCom= 1.00D+00 WtEn= 0.00D+00
 Coeff-Com: -0.197D-02-0.597D-02 0.151D+00-0.725D-01-0.168D+00-0.223D+00
 Coeff-Com:  0.301D+00 0.687D-01 0.216D+00-0.144D+00 0.913D-01-0.120D+01
 Coeff-Com:  0.884D+00-0.357D+00 0.713D+00 0.165D+01-0.250D+01-0.148D+01
 Coeff-Com:  0.801D+00 0.229D+01
 Coeff:     -0.197D-02-0.597D-02 0.151D+00-0.725D-01-0.168D+00-0.223D+00
 Coeff:      0.301D+00 0.687D-01 0.216D+00-0.144D+00 0.913D-01-0.120D+01
 Coeff:      0.884D+00-0.357D+00 0.713D+00 0.165D+01-0.250D+01-0.148D+01
 Coeff:      0.801D+00 0.229D+01
 Gap=     0.265 Goal=   None    Shift=    0.500
 Gap=     0.141 Goal=   None    Shift=    0.500
 RMSDP=1.22D-05 MaxDP=5.68D-04 DE=-2.34D-05 OVMax= 5.23D-03

 Cycle  30  Pass 1  IDiag  1:
 E= -844.989891575468     Delta-E=       -0.000015552646 Rises=F Damp=F
 DIIS: error= 3.07D-04 at cycle  30 NSaved=  20.
 NSaved=20 IEnMin=20 EnMin= -844.989891575468     IErMin=20 ErrMin= 3.07D-04
 ErrMax= 3.07D-04  0.00D+00 EMaxC= 1.00D+00 BMatC= 3.70D-05 BMatP= 5.91D-05
 IDIUse=1 WtCom= 1.00D+00 WtEn= 0.00D+00
 Coeff-Com:  0.241D-01-0.594D-01 0.710D-02 0.610D-01-0.108D+00 0.159D+00
 Coeff-Com: -0.769D-01 0.108D-01-0.518D-01 0.130D+00-0.235D+00 0.130D+00
 Coeff-Com: -0.552D+00 0.538D+00 0.914D+00-0.548D+00-0.109D+01-0.103D+01
 Coeff-Com:  0.108D+01 0.170D+01
 Coeff:      0.241D-01-0.594D-01 0.710D-02 0.610D-01-0.108D+00 0.159D+00
 Coeff:     -0.769D-01 0.108D-01-0.518D-01 0.130D+00-0.235D+00 0.130D+00
 Coeff:     -0.552D+00 0.538D+00 0.914D+00-0.548D+00-0.109D+01-0.103D+01
 Coeff:      0.108D+01 0.170D+01
 Gap=     0.265 Goal=   None    Shift=    0.500
 Gap=     0.141 Goal=   None    Shift=    0.500
 RMSDP=7.89D-06 MaxDP=3.54D-04 DE=-1.56D-05 OVMax= 3.72D-03

 Cycle  31  Pass 1  IDiag  1:
 E= -844.989901771547     Delta-E=       -0.000010196080 Rises=F Damp=F
 DIIS: error= 2.43D-04 at cycle  31 NSaved=  20.
 NSaved=20 IEnMin=20 EnMin= -844.989901771547     IErMin=20 ErrMin= 2.43D-04
 ErrMax= 2.43D-04  0.00D+00 EMaxC= 1.00D+00 BMatC= 2.10D-05 BMatP= 3.70D-05
 IDIUse=1 WtCom= 1.00D+00 WtEn= 0.00D+00
 Coeff-Com: -0.175D-01 0.403D-02 0.491D-01-0.827D-01 0.620D-01 0.402D-01
 Coeff-Com: -0.740D-01-0.146D+00 0.584D-01 0.269D+00-0.105D-01-0.104D+00
 Coeff-Com: -0.122D+00-0.703D+00 0.132D+01 0.917D-01-0.139D+01-0.161D+00
 Coeff-Com: -0.507D+00 0.242D+01
 Coeff:     -0.175D-01 0.403D-02 0.491D-01-0.827D-01 0.620D-01 0.402D-01
 Coeff:     -0.740D-01-0.146D+00 0.584D-01 0.269D+00-0.105D-01-0.104D+00
 Coeff:     -0.122D+00-0.703D+00 0.132D+01 0.917D-01-0.139D+01-0.161D+00
 Coeff:     -0.507D+00 0.242D+01
 Gap=     0.264 Goal=   None    Shift=    0.500
 Gap=     0.141 Goal=   None    Shift=    0.500
 RMSDP=7.07D-06 MaxDP=2.97D-04 DE=-1.02D-05 OVMax= 3.13D-03

 Cycle  32  Pass 1  IDiag  1:
 E= -844.989907372259     Delta-E=       -0.000005600712 Rises=F Damp=F
 DIIS: error= 1.98D-04 at cycle  32 NSaved=  20.
 NSaved=20 IEnMin=20 EnMin= -844.989907372259     IErMin=20 ErrMin= 1.98D-04
 ErrMax= 1.98D-04  0.00D+00 EMaxC= 1.00D+00 BMatC= 1.42D-05 BMatP= 2.10D-05
 IDIUse=1 WtCom= 1.00D+00 WtEn= 0.00D+00
 Coeff-Com: -0.130D-01 0.124D-01-0.138D-01 0.116D-01 0.845D-01-0.493D-02
 Coeff-Com: -0.222D+00 0.481D-01-0.968D-01 0.248D+00 0.403D+00-0.389D+00
 Coeff-Com: -0.777D+00 0.730D+00 0.352D+00-0.357D+00-0.218D+00-0.131D+01
 Coeff-Com:  0.606D+00 0.191D+01
 Coeff:     -0.130D-01 0.124D-01-0.138D-01 0.116D-01 0.845D-01-0.493D-02
 Coeff:     -0.222D+00 0.481D-01-0.968D-01 0.248D+00 0.403D+00-0.389D+00
 Coeff:     -0.777D+00 0.730D+00 0.352D+00-0.357D+00-0.218D+00-0.131D+01
 Coeff:      0.606D+00 0.191D+01
 Gap=     0.264 Goal=   None    Shift=    0.500
 Gap=     0.141 Goal=   None    Shift=    0.500
 RMSDP=5.99D-06 MaxDP=2.65D-04 DE=-5.60D-06 OVMax= 2.58D-03

 >>>>>>>>>> Convergence criterion not met.
 SCF Done:  E(ULC-wHPBE) =  -844.989907372     A.U. after   33 cycles
            NFock= 32  Conv=0.60D-05     -V/T= 2.0052
 <Sx>= 0.0000 <Sy>= 0.0000 <Sz>= 0.5000 <S**2>= 0.7803 S= 0.5150
 <L.S>= 0.000000000000E+00
 KE= 8.405791339170D+02 PE=-4.898842349039D+03 EE= 1.725813102910D+03
 Annihilation of the first spin contaminant:
 S**2 before annihilation     0.7803,   after     0.7506
 Leave Link  502 at Thu Jan 21 06:33:05 2021, MaxMem=  4026531840 cpu:            9036.7 elap:            1132.5
 (Enter /opt/ohpc/pub/libs/gaussian/g16-A.03/sandybridge/g16/l508.exe)
 Integral symmetry usage will be decided dynamically.
 Tight linear equation convergence will be used.
 ULC-wHPBE wavefunction.
 Quadratic Convergence SCF Method.
 Line search only if initial step raises energy.
 FoFJK:  IHMeth= 1 ICntrl=       0 DoSepK=T KAlg= 0 I1Cent=           0 FoldK=F
 IRaf=         1 NMat=       1 IRICut=       1 DoRegI=T DoRafI=F ISym2E= 1 IDoP0=0 IntGTp=1.
 FoFCou: FMM=F IPFlag=           0 FMFlag=      100000 FMFlg1=           0
         NFxFlg=           0 DoJE=T BraDBF=F KetDBF=F FulRan=T
         wScrn=  0.000000 ICntrl=       500 IOpCl=  0 I1Cent=           0 NGrid=           0
         NMat0=    1 NMatS0=      1 NMatT0=    0 NMatD0=    1 NMtDS0=    0 NMtDT0=    0
 Petite list used in FoFCou.
 Iteration   1 EE= -844.989911029820                                    Grad=2.220D-03 Max rot=    0.0419 deg.
 QCNR:  CnvC1=2.22D-08 CnvC2=2.22D-07
 LinEq1:  Iter=  0 NonCon=     1 RMS=2.34D-05 Max=5.20D-03 NDo=     1
 AX will form     1 AO Fock derivatives at one time.
 LinEq1:  Iter=  1 NonCon=     1 RMS=1.06D-05 Max=9.18D-04 NDo=     1
 LinEq1:  Iter=  2 NonCon=     1 RMS=5.31D-06 Max=3.46D-04 NDo=     1
 LinEq1:  Iter=  3 NonCon=     1 RMS=4.61D-06 Max=4.90D-04 NDo=     1
 LinEq1:  Iter=  4 NonCon=     1 RMS=2.15D-06 Max=1.28D-04 NDo=     1
 LinEq1:  Iter=  5 NonCon=     1 RMS=1.59D-06 Max=1.80D-04 NDo=     1
 LinEq1:  Iter=  6 NonCon=     1 RMS=7.06D-07 Max=4.59D-05 NDo=     1
 LinEq1:  Iter=  7 NonCon=     1 RMS=4.88D-07 Max=4.04D-05 NDo=     1
 LinEq1:  Iter=  8 NonCon=     1 RMS=2.18D-07 Max=1.15D-05 NDo=     1
 LinEq1:  Iter=  9 NonCon=     1 RMS=1.22D-07 Max=9.86D-06 NDo=     1
 LinEq1:  Iter= 10 NonCon=     1 RMS=8.33D-08 Max=6.36D-06 NDo=     1
 LinEq1:  Iter= 11 NonCon=     1 RMS=5.41D-08 Max=4.38D-06 NDo=     1
 LinEq1:  Iter= 12 NonCon=     1 RMS=4.01D-08 Max=3.15D-06 NDo=     1
 LinEq1:  Iter= 13 NonCon=     1 RMS=1.79D-08 Max=1.04D-06 NDo=     1
 LinEq1:  Iter= 14 NonCon=     1 RMS=1.06D-08 Max=5.24D-07 NDo=     1
 LinEq1:  Iter= 15 NonCon=     1 RMS=5.45D-09 Max=3.54D-07 NDo=     1
 LinEq1:  Iter= 16 NonCon=     0 RMS=3.01D-09 Max=2.15D-07 NDo=     1
 Linear equations converged to 2.220D-08 2.220D-07 after    16 iterations.
 Angle between quadratic step and gradient=  68.54 degrees.
     ILin= 1 X=0.000D+00 Y=-8.449899110298D+02 DE= 0.00D+00 F= -1.33D-05
     ILin= 2 X=1.000D+00 Y=-8.449899177060D+02 DE=-6.68D-06
 Iteration   2 EE= -844.989917705955     Delta-E=       -0.000006676135 Grad=1.096D-05 Max rot=    0.0002 deg.
 Rotation gradient small -- convergence achieved.
 SCF Done:  E(ULC-wHPBE) =  -844.989917706     a.u. after    2 cycles
            Convg  =    0.1096D-04                    18 Fock formations.
              S**2 =  0.7806                  -V/T =  2.0052
 <Sx>= 0.0000 <Sy>= 0.0000 <Sz>= 0.5000 <S**2>= 0.7806 S= 0.5152
 <L.S>= 0.000000000000E+00
 Annihilation of the first spin contaminant:
 S**2 before annihilation     0.7806,   after     0.7506
 Leave Link  508 at Thu Jan 21 06:42:42 2021, MaxMem=  4026531840 cpu:            4599.4 elap:             577.2
 (Enter /opt/ohpc/pub/libs/gaussian/g16-A.03/sandybridge/g16/l601.exe)
 Copying SCF densities to generalized density rwf, IOpCl= 1 IROHF=0.

 **********************************************************************

            Population analysis using the SCF density.

 **********************************************************************

 Orbital symmetries:
 Alpha Orbitals:
       Occupied  (A) (A) (A) (A) (A) (A) (A) (A) (A) (A) (A) (A)
                 (A) (A) (A) (A) (A) (A) (A) (A) (A) (A) (A) (A)
                 (A) (A) (A) (A) (A) (A) (A) (A) (A) (A) (A) (A)
                 (A) (A) (A) (A) (A) (A) (A) (A) (A) (A) (A) (A)
                 (A) (A) (A) (A) (A) (A) (A) (A) (A) (A) (A) (A)
                 (A) (A) (A) (A) (A) (A) (A) (A) (A) (A) (A) (A)
                 (A) (A)
       Virtual   (A) (A) (A) (A) (A) (A) (A) (A) (A) (A) (A) (A)
                 (A) (A) (A) (A) (A) (A) (A) (A) (A) (A) (A) (A)
                 (A) (A) (A) (A) (A) (A) (A) (A) (A) (A) (A) (A)
                 (A) (A) (A) (A) (A) (A) (A) (A) (A) (A) (A) (A)
                 (A) (A) (A) (A) (A) (A) (A) (A) (A) (A) (A) (A)
                 (A) (A) (A) (A) (A) (A) (A) (A) (A) (A) (A) (A)
                 (A) (A) (A) (A) (A) (A) (A) (A) (A) (A) (A) (A)
                 (A) (A) (A) (A) (A) (A) (A) (A) (A) (A) (A) (A)
                 (A) (A) (A) (A) (A) (A) (A) (A) (A) (A) (A) (A)
                 (A) (A) (A) (A) (A) (A) (A) (A) (A) (A) (A) (A)
                 (A) (A) (A) (A) (A) (A) (A) (A) (A) (A) (A) (A)
                 (A) (A) (A) (A) (A) (A) (A) (A) (A) (A) (A) (A)
                 (A) (A) (A) (A) (A) (A) (A) (A) (A) (A) (A) (A)
                 (A) (A) (A) (A) (A) (A) (A) (A) (A) (A) (A) (A)
                 (A) (A) (A) (A) (A) (A) (A) (A) (A) (A) (A) (A)
                 (A) (A) (A) (A) (A) (A) (A) (A) (A) (A) (A) (A)
                 (A) (A) (A) (A) (A) (A) (A) (A) (A) (A) (A) (A)
                 (A) (A) (A) (A) (A) (A) (A) (A) (A) (A) (A) (A)
                 (A) (A) (A) (A) (A) (A) (A) (A) (A) (A) (A) (A)
                 (A) (A) (A) (A) (A) (A) (A) (A) (A) (A) (A) (A)
                 (A) (A) (A) (A) (A) (A) (A) (A) (A) (A) (A) (A)
                 (A) (A) (A) (A) (A) (A) (A) (A) (A) (A) (A) (A)
                 (A) (A) (A) (A) (A) (A) (A) (A) (A) (A) (A) (A)
                 (A) (A) (A) (A) (A) (A) (A) (A) (A) (A) (A) (A)
                 (A) (A) (A) (A) (A) (A) (A) (A) (A) (A) (A) (A)
                 (A) (A) (A) (A) (A) (A) (A) (A) (A) (A) (A) (A)
                 (A) (A) (A) (A) (A) (A) (A) (A) (A) (A) (A) (A)
                 (A) (A) (A) (A) (A) (A) (A) (A) (A) (A) (A) (A)
                 (A) (A) (A) (A) (A) (A) (A) (A) (A) (A) (A) (A)
                 (A) (A) (A) (A) (A) (A) (A) (A) (A) (A) (A) (A)
                 (A) (A) (A) (A) (A) (A) (A) (A) (A) (A) (A) (A)
                 (A) (A) (A) (A) (A) (A) (A) (A) (A) (A) (A) (A)
                 (A) (A) (A) (A) (A) (A) (A) (A) (A) (A) (A) (A)
                 (A) (A) (A) (A) (A) (A) (A) (A) (A) (A) (A) (A)
                 (A) (A) (A) (A) (A) (A) (A) (A) (A) (A) (A) (A)
                 (A) (A) (A) (A) (A) (A) (A) (A) (A) (A) (A) (A)
                 (A) (A) (A) (A) (A) (A) (A) (A) (A) (A) (A) (A)
                 (A) (A) (A) (A) (A) (A) (A)
 Beta  Orbitals:
       Occupied  (A) (A) (A) (A) (A) (A) (A) (A) (A) (A) (A) (A)
                 (A) (A) (A) (A) (A) (A) (A) (A) (A) (A) (A) (A)
                 (A) (A) (A) (A) (A) (A) (A) (A) (A) (A) (A) (A)
                 (A) (A) (A) (A) (A) (A) (A) (A) (A) (A) (A) (A)
                 (A) (A) (A) (A) (A) (A) (A) (A) (A) (A) (A) (A)
                 (A) (A) (A) (A) (A) (A) (A) (A) (A) (A) (A) (A)
                 (A)
       Virtual   (A) (A) (A) (A) (A) (A) (A) (A) (A) (A) (A) (A)
                 (A) (A) (A) (A) (A) (A) (A) (A) (A) (A) (A) (A)
                 (A) (A) (A) (A) (A) (A) (A) (A) (A) (A) (A) (A)
                 (A) (A) (A) (A) (A) (A) (A) (A) (A) (A) (A) (A)
                 (A) (A) (A) (A) (A) (A) (A) (A) (A) (A) (A) (A)
                 (A) (A) (A) (A) (A) (A) (A) (A) (A) (A) (A) (A)
                 (A) (A) (A) (A) (A) (A) (A) (A) (A) (A) (A) (A)
                 (A) (A) (A) (A) (A) (A) (A) (A) (A) (A) (A) (A)
                 (A) (A) (A) (A) (A) (A) (A) (A) (A) (A) (A) (A)
                 (A) (A) (A) (A) (A) (A) (A) (A) (A) (A) (A) (A)
                 (A) (A) (A) (A) (A) (A) (A) (A) (A) (A) (A) (A)
                 (A) (A) (A) (A) (A) (A) (A) (A) (A) (A) (A) (A)
                 (A) (A) (A) (A) (A) (A) (A) (A) (A) (A) (A) (A)
                 (A) (A) (A) (A) (A) (A) (A) (A) (A) (A) (A) (A)
                 (A) (A) (A) (A) (A) (A) (A) (A) (A) (A) (A) (A)
                 (A) (A) (A) (A) (A) (A) (A) (A) (A) (A) (A) (A)
                 (A) (A) (A) (A) (A) (A) (A) (A) (A) (A) (A) (A)
                 (A) (A) (A) (A) (A) (A) (A) (A) (A) (A) (A) (A)
                 (A) (A) (A) (A) (A) (A) (A) (A) (A) (A) (A) (A)
                 (A) (A) (A) (A) (A) (A) (A) (A) (A) (A) (A) (A)
                 (A) (A) (A) (A) (A) (A) (A) (A) (A) (A) (A) (A)
                 (A) (A) (A) (A) (A) (A) (A) (A) (A) (A) (A) (A)
                 (A) (A) (A) (A) (A) (A) (A) (A) (A) (A) (A) (A)
                 (A) (A) (A) (A) (A) (A) (A) (A) (A) (A) (A) (A)
                 (A) (A) (A) (A) (A) (A) (A) (A) (A) (A) (A) (A)
                 (A) (A) (A) (A) (A) (A) (A) (A) (A) (A) (A) (A)
                 (A) (A) (A) (A) (A) (A) (A) (A) (A) (A) (A) (A)
                 (A) (A) (A) (A) (A) (A) (A) (A) (A) (A) (A) (A)
                 (A) (A) (A) (A) (A) (A) (A) (A) (A) (A) (A) (A)
                 (A) (A) (A) (A) (A) (A) (A) (A) (A) (A) (A) (A)
                 (A) (A) (A) (A) (A) (A) (A) (A) (A) (A) (A) (A)
                 (A) (A) (A) (A) (A) (A) (A) (A) (A) (A) (A) (A)
                 (A) (A) (A) (A) (A) (A) (A) (A) (A) (A) (A) (A)
                 (A) (A) (A) (A) (A) (A) (A) (A) (A) (A) (A) (A)
                 (A) (A) (A) (A) (A) (A) (A) (A) (A) (A) (A) (A)
                 (A) (A) (A) (A) (A) (A) (A) (A) (A) (A) (A) (A)
[...]
    28  H(1)               0.00199       8.91226       3.18012       2.97281
    29  H(1)               0.00004       0.19994       0.07134       0.06669
    30  H(1)               0.00188       8.41423       3.00241       2.80669
    31  C(13)             -0.00189      -2.12073      -0.75673      -0.70740
    32  H(1)               0.00161       7.21260       2.57363       2.40586
    33  H(1)               0.00200       8.93464       3.18810       2.98028
    34  H(1)               0.00012       0.52932       0.18887       0.17656
    35  C(13)             -0.00203      -2.28184      -0.81422      -0.76114
    36  H(1)               0.00199       8.89992       3.17571       2.96869
    37  H(1)               0.00004       0.19763       0.07052       0.06592
    38  H(1)               0.00189       8.43036       3.00816       2.81207
    39  C(13)             -0.00189      -2.12186      -0.75713      -0.70778
    40  H(1)               0.00160       7.14733       2.55034       2.38409
    41  H(1)               0.00201       8.97496       3.20249       2.99372
    42  H(1)               0.00012       0.55466       0.19792       0.18501
 --------------------------------------------------------
       Center         ----  Spin Dipole Couplings  ----
                      3XX-RR        3YY-RR        3ZZ-RR
 --------------------------------------------------------
     1   Atom        0.014779      0.013213     -0.027992
     2   Atom       -0.151837     -0.134649      0.286486
     3   Atom       -0.057296     -0.037443      0.094739
     4   Atom        0.014781      0.013212     -0.027993
     5   Atom       -0.112227     -0.110065      0.222293
     6   Atom       -0.057288     -0.037441      0.094729
     7   Atom        0.021719     -0.018146     -0.003574
     8   Atom       -0.005935      0.010078     -0.004143
     9   Atom       -0.001425      0.004438     -0.003013
    10   Atom       -0.005934      0.010078     -0.004143
    11   Atom       -0.044262     -0.048330      0.092591
    12   Atom       -0.058065     -0.017786      0.075852
    13   Atom       -0.058075     -0.017794      0.075869
    14   Atom        0.027277      0.015182     -0.042459
    15   Atom        0.027277      0.015185     -0.042462
    16   Atom       -0.104929     -0.072354      0.177283
    17   Atom       -0.004466      0.007509     -0.003043
    18   Atom       -0.004467      0.007510     -0.003043
    19   Atom        0.001372      0.000661     -0.002033
    20   Atom        0.001372      0.000661     -0.002033
    21   Atom       -0.001425      0.004438     -0.003013
    22   Atom        0.034530      0.016180     -0.050710
    23   Atom       -0.004954     -0.003572      0.008526
    24   Atom       -0.004948     -0.003581      0.008529
    25   Atom       -0.096126     -0.095495      0.191620
    26   Atom       -0.096135     -0.095480      0.191615
    27   Atom       -0.001396      0.000316      0.001080
    28   Atom       -0.000518      0.001434     -0.000916
    29   Atom        0.001303      0.000267     -0.001570
    30   Atom       -0.000361      0.001100     -0.000739
    31   Atom        0.001876     -0.002304      0.000428
    32   Atom        0.001062     -0.000162     -0.000901
    33   Atom        0.001457     -0.000779     -0.000679
    34   Atom        0.001423     -0.000221     -0.001202
    35   Atom       -0.001399      0.000314      0.001085
    36   Atom       -0.000519      0.001438     -0.000919
    37   Atom        0.001303      0.000267     -0.001570
    38   Atom       -0.000361      0.001096     -0.000736
    39   Atom        0.001879     -0.002299      0.000419
    40   Atom        0.001065     -0.000157     -0.000909
    41   Atom        0.001456     -0.000784     -0.000672
    42   Atom        0.001424     -0.000221     -0.001202
 --------------------------------------------------------
                        XY            XZ            YZ
 --------------------------------------------------------
     1   Atom        0.000107     -0.009265      0.006129
     2   Atom       -0.000007      0.000030     -0.104237
     3   Atom        0.007831     -0.020064     -0.049413
     4   Atom       -0.000106      0.009259      0.006129
     5   Atom       -0.000004      0.000031     -0.042688
     6   Atom       -0.007838      0.020086     -0.049410
     7   Atom       -0.000001     -0.000002     -0.003828
     8   Atom       -0.004205     -0.000417      0.002176
     9   Atom        0.000405      0.000163      0.002503
    10   Atom        0.004206      0.000417      0.002175
    11   Atom        0.000002      0.000014      0.024743
    12   Atom        0.010461      0.016189      0.072105
    13   Atom       -0.010449     -0.016167      0.072107
    14   Atom        0.002410      0.006721     -0.024635
    15   Atom       -0.002414     -0.006734     -0.024634
    16   Atom        0.000005      0.000014      0.104219
    17   Atom       -0.003122      0.000708     -0.003348
    18   Atom        0.003122     -0.000708     -0.003348
    19   Atom       -0.001062      0.000770     -0.001722
    20   Atom        0.001062     -0.000771     -0.001722
    21   Atom       -0.000405     -0.000163      0.002503
    22   Atom        0.000001     -0.000001     -0.000729
    23   Atom       -0.003426      0.013220      0.000866
    24   Atom        0.003431     -0.013243      0.000835
    25   Atom        0.000928     -0.013399     -0.023808
    26   Atom       -0.000922      0.013280     -0.023905
    27   Atom        0.001141      0.000925      0.000967
    28   Atom        0.000223     -0.000053     -0.001059
    29   Atom        0.000082      0.000135      0.000308
    30   Atom       -0.000181     -0.000214      0.001237
    31   Atom       -0.000664      0.001060     -0.000723
    32   Atom       -0.001025      0.000817     -0.000621
    33   Atom       -0.000725     -0.001071      0.000448
    34   Atom        0.000447      0.000509      0.000037
    35   Atom       -0.001142     -0.000932      0.000976
    36   Atom       -0.000223      0.000053     -0.001058
    37   Atom       -0.000082     -0.000135      0.000309
    38   Atom        0.000181      0.000215      0.001239
    39   Atom        0.000663     -0.001045     -0.000729
    40   Atom        0.001031     -0.000812     -0.000615
    41   Atom        0.000717      0.001075      0.000445
    42   Atom       -0.000445     -0.000513      0.000037
 --------------------------------------------------------


 ---------------------------------------------------------------------------------
              Anisotropic Spin Dipole Couplings in Principal Axis System
 ---------------------------------------------------------------------------------

       Atom             a.u.   MegaHertz   Gauss  10(-4) cm-1        Axes

              Baa    -0.0307    -4.125    -1.472    -1.376  0.1979 -0.1359  0.9708
     1 C(13)  Bbb     0.0136     1.828     0.652     0.610  0.3636  0.9299  0.0560
              Bcc     0.0171     2.297     0.819     0.766  0.9103 -0.3419 -0.2334
 
              Baa    -0.1590   -21.341    -7.615    -7.119  0.0000  0.9737  0.2278
     2 C(13)  Bbb    -0.1518   -20.375    -7.270    -6.796  1.0000 -0.0000 -0.0001
              Bcc     0.3109    41.716    14.885    13.915  0.0001 -0.2278  0.9737
 
              Baa    -0.0602    -8.077    -2.882    -2.694  0.9777 -0.2004  0.0627
     3 C(13)  Bbb    -0.0537    -7.204    -2.571    -2.403  0.1689  0.9281  0.3318
              Bcc     0.1139    15.281     5.452     5.097 -0.1247 -0.3138  0.9413
 
              Baa    -0.0307    -4.125    -1.472    -1.376 -0.1978 -0.1358  0.9708
     4 C(13)  Bbb     0.0136     1.828     0.652     0.610 -0.3635  0.9299  0.0561
              Bcc     0.0171     2.297     0.819     0.766  0.9103  0.3418  0.2333
 
              Baa    -0.1155   -15.494    -5.529    -5.168  0.0000  0.9921  0.1254
     5 C(13)  Bbb    -0.1122   -15.060    -5.374    -5.023  1.0000 -0.0000 -0.0001
              Bcc     0.2277    30.554    10.902    10.192  0.0001 -0.1254  0.9921
 
              Baa    -0.0602    -8.076    -2.882    -2.694  0.9777  0.2003 -0.0629
     6 C(13)  Bbb    -0.0537    -7.204    -2.570    -2.403 -0.1688  0.9281  0.3318
              Bcc     0.1139    15.280     5.452     5.097  0.1248 -0.3138  0.9412
 
              Baa    -0.0191   -10.185    -3.634    -3.398  0.0000  0.9709  0.2395
     7 H(1)   Bbb    -0.0026    -1.403    -0.501    -0.468  0.0001 -0.2395  0.9709
              Bcc     0.0217    11.588     4.135     3.865  1.0000 -0.0000 -0.0001
 
              Baa    -0.0070    -3.723    -1.328    -1.242  0.9686  0.2446 -0.0453
     8 H(1)   Bbb    -0.0045    -2.376    -0.848    -0.792  0.0779 -0.1255  0.9890
              Bcc     0.0114     6.098     2.176     2.034 -0.2362  0.9615  0.1407
 
              Baa    -0.0038    -2.015    -0.719    -0.672 -0.0161 -0.2907  0.9567
     9 H(1)   Bbb    -0.0015    -0.775    -0.277    -0.259  0.9977 -0.0671 -0.0036
              Bcc     0.0052     2.790     0.995     0.931  0.0653  0.9545  0.2911
 
              Baa    -0.0070    -3.723    -1.328    -1.242  0.9686 -0.2446  0.0451
    10 H(1)   Bbb    -0.0045    -2.376    -0.848    -0.792 -0.0778 -0.1255  0.9890
              Bcc     0.0114     6.098     2.176     2.034  0.2363  0.9615  0.1406
 
              Baa    -0.0525    -7.051    -2.516    -2.352  0.0000  0.9858 -0.1681
    11 C(13)  Bbb    -0.0443    -5.939    -2.119    -1.981  1.0000 -0.0000 -0.0001
              Bcc     0.0968    12.991     4.635     4.333  0.0001  0.1681  0.9858
 
              Baa    -0.0607    -8.150    -2.908    -2.719  0.9278 -0.3639  0.0821
    12 C(13)  Bbb    -0.0564    -7.565    -2.700    -2.524  0.3567  0.8012 -0.4805
              Bcc     0.1171    15.715     5.608     5.242  0.1091  0.4751  0.8731
 
              Baa    -0.0607    -8.151    -2.908    -2.719  0.9278  0.3638 -0.0822
    13 C(13)  Bbb    -0.0564    -7.566    -2.700    -2.524 -0.3567  0.8012 -0.4804
              Bcc     0.1171    15.716     5.608     5.242 -0.1089  0.4751  0.8732
 
              Baa    -0.0522    -7.004    -2.499    -2.336 -0.0895  0.3448  0.9344
    14 C(13)  Bbb     0.0243     3.257     1.162     1.087  0.0183  0.9386 -0.3446
              Bcc     0.0279     3.747     1.337     1.250  0.9958  0.0138  0.0903
 
              Baa    -0.0522    -7.004    -2.499    -2.336  0.0896  0.3448  0.9344
    15 C(13)  Bbb     0.0243     3.258     1.162     1.087 -0.0183  0.9386 -0.3446
              Bcc     0.0279     3.747     1.337     1.250  0.9958 -0.0138 -0.0904
 
              Baa    -0.1101   -14.780    -5.274    -4.930  0.0000  0.9401 -0.3409
    16 C(13)  Bbb    -0.1049   -14.080    -5.024    -4.697  1.0000 -0.0000 -0.0000
              Bcc     0.2151    28.861    10.298     9.627  0.0000  0.3409  0.9401
 
              Baa    -0.0052    -2.796    -0.998    -0.933  0.9629  0.2572  0.0814
    17 H(1)   Bbb    -0.0040    -2.127    -0.759    -0.710 -0.1453  0.2401  0.9598
              Bcc     0.0092     4.923     1.757     1.642 -0.2273  0.9361 -0.2685
 
              Baa    -0.0052    -2.796    -0.998    -0.933  0.9629 -0.2572 -0.0816
    18 H(1)   Bbb    -0.0040    -2.128    -0.759    -0.710  0.1454  0.2400  0.9598
              Bcc     0.0092     4.924     1.757     1.642  0.2273  0.9361 -0.2685
 
              Baa    -0.0029    -1.539    -0.549    -0.513 -0.0585  0.4217  0.9048
    19 H(1)   Bbb     0.0002     0.081     0.029     0.027  0.7210  0.6447 -0.2539
              Bcc     0.0027     1.459     0.521     0.487  0.6904 -0.6376  0.3418
 
              Baa    -0.0029    -1.539    -0.549    -0.514  0.0586  0.4217  0.9048
    20 H(1)   Bbb     0.0002     0.081     0.029     0.027  0.7210 -0.6447  0.2538
              Bcc     0.0027     1.459     0.521     0.487  0.6904  0.6376 -0.3418
 
              Baa    -0.0038    -2.015    -0.719    -0.672  0.0163 -0.2907  0.9567
    21 H(1)   Bbb    -0.0015    -0.775    -0.277    -0.259  0.9977  0.0671  0.0034
              Bcc     0.0052     2.790     0.995     0.931 -0.0652  0.9545  0.2911
 
              Baa    -0.0507    -6.806    -2.428    -2.270  0.0000  0.0109  0.9999
    22 C(13)  Bbb     0.0162     2.172     0.775     0.725 -0.0000  0.9999 -0.0109
              Bcc     0.0345     4.634     1.653     1.546  1.0000  0.0000 -0.0000
 
              Baa    -0.0141    -1.897    -0.677    -0.633  0.8174  0.3052 -0.4886
    23 C(13)  Bbb    -0.0025    -0.342    -0.122    -0.114 -0.2331  0.9508  0.2040
              Bcc     0.0167     2.238     0.799     0.747  0.5268 -0.0528  0.8484
 
              Baa    -0.0141    -1.898    -0.677    -0.633  0.8176 -0.3043  0.4888
    24 C(13)  Bbb    -0.0026    -0.344    -0.123    -0.115  0.2315  0.9510  0.2047
              Bcc     0.0167     2.242     0.800     0.748 -0.5272 -0.0542  0.8480
 
              Baa    -0.0975    -3.760    -1.342    -1.254  0.2272  0.9697  0.0904
    25 N(14)  Bbb    -0.0967    -3.730    -1.331    -1.244  0.9728 -0.2303  0.0262
              Bcc     0.1942     7.490     2.673     2.498 -0.0462 -0.0820  0.9956
 
              Baa    -0.0975    -3.760    -1.342    -1.254 -0.2272  0.9696  0.0906
    26 N(14)  Bbb    -0.0967    -3.730    -1.331    -1.244  0.9728  0.2303 -0.0257
              Bcc     0.1942     7.490     2.673     2.498  0.0458 -0.0823  0.9956
 
              Baa    -0.0020    -0.272    -0.097    -0.091  0.9119 -0.3809 -0.1528
    27 C(13)  Bbb    -0.0003    -0.035    -0.012    -0.012  0.1931  0.7268 -0.6592
              Bcc     0.0023     0.307     0.109     0.102  0.3622  0.5716  0.7363
 
              Baa    -0.0013    -0.707    -0.252    -0.236 -0.0390  0.3608  0.9318
    28 H(1)   Bbb    -0.0005    -0.287    -0.103    -0.096  0.9947 -0.0747  0.0705
              Bcc     0.0019     0.994     0.355     0.332  0.0951  0.9296 -0.3560
 
              Baa    -0.0016    -0.867    -0.309    -0.289 -0.0410 -0.1588  0.9865
    29 H(1)   Bbb     0.0003     0.164     0.058     0.055 -0.1020  0.9828  0.1540
              Bcc     0.0013     0.703     0.251     0.235  0.9939  0.0943  0.0565
 
              Baa    -0.0014    -0.733    -0.261    -0.244  0.1105 -0.4380  0.8921
    30 H(1)   Bbb    -0.0004    -0.203    -0.072    -0.068  0.9864  0.1579 -0.0446
              Bcc     0.0018     0.936     0.334     0.312 -0.1213  0.8850  0.4495
 
              Baa    -0.0025    -0.338    -0.121    -0.113  0.0981  0.9741  0.2036
    31 C(13)  Bbb    -0.0001    -0.012    -0.004    -0.004 -0.5040 -0.1278  0.8542
              Bcc     0.0026     0.350     0.125     0.117  0.8581 -0.1864  0.4784
 
              Baa    -0.0013    -0.687    -0.245    -0.229 -0.1631  0.3585  0.9192
    32 H(1)   Bbb    -0.0007    -0.381    -0.136    -0.127  0.5601  0.8006 -0.2128
              Bcc     0.0020     1.068     0.381     0.356  0.8122 -0.4801  0.3314
 
              Baa    -0.0012    -0.647    -0.231    -0.216  0.1812 -0.5435  0.8196
    33 H(1)   Bbb    -0.0009    -0.497    -0.177    -0.166  0.4330  0.7923  0.4297
              Bcc     0.0021     1.144     0.408     0.382  0.8830 -0.2771 -0.3789
 
              Baa    -0.0013    -0.693    -0.247    -0.231 -0.1910  0.0457  0.9805
    34 H(1)   Bbb    -0.0003    -0.174    -0.062    -0.058 -0.2224  0.9709 -0.0886
              Bcc     0.0016     0.868     0.310     0.289  0.9561  0.2349  0.1752
 
              Baa    -0.0020    -0.273    -0.097    -0.091  0.9121  0.3801  0.1536
    35 C(13)  Bbb    -0.0003    -0.036    -0.013    -0.012 -0.1924  0.7278 -0.6583
              Bcc     0.0023     0.308     0.110     0.103 -0.3620  0.5708  0.7370
 
              Baa    -0.0013    -0.707    -0.252    -0.236  0.0388  0.3599  0.9322
    36 H(1)   Bbb    -0.0005    -0.288    -0.103    -0.096  0.9947  0.0747 -0.0702
              Bcc     0.0019     0.995     0.355     0.332 -0.0949  0.9300 -0.3551
 
              Baa    -0.0016    -0.867    -0.309    -0.289  0.0412 -0.1591  0.9864
    37 H(1)   Bbb     0.0003     0.164     0.058     0.055  0.1017  0.9828  0.1543
              Bcc     0.0013     0.703     0.251     0.235  0.9940 -0.0939 -0.0567
 
              Baa    -0.0014    -0.732    -0.261    -0.244 -0.1113 -0.4391  0.8915
    38 H(1)   Bbb    -0.0004    -0.203    -0.072    -0.068  0.9863 -0.1586  0.0450
              Bcc     0.0018     0.935     0.334     0.312  0.1217  0.8843  0.4507
 
              Baa    -0.0025    -0.338    -0.121    -0.113 -0.0976  0.9735  0.2066
    39 C(13)  Bbb    -0.0001    -0.011    -0.004    -0.004  0.5007 -0.1314  0.8556
              Bcc     0.0026     0.349     0.124     0.116  0.8601  0.1870 -0.4747
 
              Baa    -0.0013    -0.687    -0.245    -0.229  0.1638  0.3518  0.9216
    40 H(1)   Bbb    -0.0007    -0.382    -0.136    -0.127 -0.5591  0.8028 -0.2071
              Bcc     0.0020     1.069     0.382     0.357  0.8128  0.4814 -0.3282
 
              Baa    -0.0012    -0.646    -0.230    -0.215 -0.1822 -0.5470  0.8171
    41 H(1)   Bbb    -0.0009    -0.497    -0.177    -0.166 -0.4324  0.7909  0.4331
              Bcc     0.0021     1.143     0.408     0.381  0.8831  0.2743  0.3806
 
              Baa    -0.0013    -0.694    -0.248    -0.232  0.1920  0.0453  0.9803
    42 H(1)   Bbb    -0.0003    -0.174    -0.062    -0.058  0.2213  0.9712 -0.0883
              Bcc     0.0016     0.868     0.310     0.290  0.9561 -0.2339 -0.1765
 

 ---------------------------------------------------------------------------------

 No NMR shielding tensors so no spin-rotation constants.
 Leave Link  601 at Thu Jan 21 06:42:43 2021, MaxMem=  4026531840 cpu:               4.9 elap:               0.7
 (Enter /opt/ohpc/pub/libs/gaussian/g16-A.03/sandybridge/g16/l9999.exe)

 Test job not archived.
 1\1\GINC-CASCADEB025\SP\ULC-wHPBE\TZVP\C19H21N2(2+,2)\RDU230\21-Jan-20
 21\0\\#P LC-wHPBE/TZVP iop(3/107=0207400000, 3/108=0207400000) scf=(co
 nver=6,fermi,ndamp=35,noincfock,novaracc,vshift=500,xqc)\\H21 C19 N2\\
 2,2\C,0,5.924302,-1.175178,0.28256\C,0,6.625626,0.000025,-0.000251\C,0
 ,4.530324,-1.177472,0.278212\C,0,5.924206,1.175202,-0.282951\C,0,3.810
 936,-0.000036,-0.000021\C,0,4.530233,1.177435,-0.278371\H,0,7.716547,0
 .000056,-0.000331\H,0,3.994064,-2.094974,0.527939\H,0,6.466302,2.09321
 ,-0.514746\H,0,3.99388,2.094904,-0.52801\C,0,2.333716,-0.000062,0.0001
 09\C,0,1.604784,1.119278,0.452707\C,0,1.604752,-1.119433,-0.452341\C,0
 ,0.21685,1.12577,0.449243\C,0,0.216813,-1.125977,-0.44867\C,0,-0.50491
 9,-0.000106,0.000309\H,0,2.141671,1.985727,0.840835\H,0,2.141597,-1.98
 5891,-0.840507\H,0,-0.315693,1.995203,0.838189\H,0,-0.315745,-1.995465
 ,-0.837475\H,0,6.466484,-2.093156,0.514265\C,0,-1.942874,-0.000086,0.0
 00402\C,0,-3.143323,-0.702637,-0.003392\C,0,-3.143127,0.702801,0.00391
 5\N,0,-3.78708,-1.855019,0.001668\N,0,-3.786774,1.855252,-0.001097\C,0
 ,-3.068411,-3.12252,0.167733\H,0,-3.187886,-3.74858,-0.728596\H,0,-2.0
 05788,-2.927607,0.341041\H,0,-3.471162,-3.663551,1.036238\C,0,-5.24512
 1,-1.94416,-0.100275\H,0,-5.509149,-2.713998,-0.838669\H,0,-5.688951,-
 2.217262,0.869111\H,0,-5.659251,-0.989594,-0.439085\C,0,-3.068047,3.12
 2616,-0.16813\H,0,-3.188116,3.749602,0.727455\H,0,-2.005304,2.927538,-
 0.340531\H,0,-3.470192,3.662707,-1.037509\C,0,-5.24495,1.944232,0.0993
 91\H,0,-5.509538,2.71844,0.832954\H,0,-5.688631,2.211256,-0.871774\H,0
 ,-5.658779,0.991638,0.444142\\Version=EM64L-G16RevA.03\State=2-A\HF=-8
 44.9899177\S2=0.780607\S2-1=0.\S2A=0.750605\RMSD=4.253e-08\Dipole=-1.1
 250596,0.0000459,-0.0008358\Quadrupole=87.0520022,-23.5272895,-63.5247
 128,-0.0001353,0.0046177,0.1937428\PG=C01 [X(C19H21N2)]\\@


 ALMOST ANYTHING IS EASIER TO GET INTO THAN OUT OF.

                         -- AGNES ALLEN'S LAW FROM
                PAUL DICKSON'S "THE OFFICIAL RULES"
 Job cpu time:       0 days  3 hours 48 minutes 10.9 seconds.
 Elapsed time:       0 days  0 hours 28 minutes 36.9 seconds.
 File lengths (MBytes):  RWF=    188 Int=      0 D2E=      0 Chk=     24 Scr=      8
 Normal termination of Gaussian 16 at Thu Jan 21 06:42:43 2021.
