 Entering Gaussian System, Link 0=g16
 Input=mol_bp_cp_half_tune_c6.gjf
 Output=mol_bp_cp_half_tune_c6.log
 Initial command:
 /opt/ohpc/pub/libs/gaussian/g16-A.03/sandybridge/g16/l1.exe "/mnt/gpfs2_4m/scratch/rdu230/ondemand/projects/init_structures/wtuning/mol_bp_cp_half/tuning_mol_bp_cp_half_ocycle0/Gau-269669.inp" -scrdir="/mnt/gpfs2_4m/scratch/rdu230/ondemand/projects/init_structures/wtuning/mol_bp_cp_half/tuning_mol_bp_cp_half_ocycle0/"
 Entering Link 1 = /opt/ohpc/pub/libs/gaussian/g16-A.03/sandybridge/g16/l1.exe PID=    269670.
  
 Copyright (c) 1988,1990,1992,1993,1995,1998,2003,2009,2016,
            Gaussian, Inc.  All Rights Reserved.
  
 This is part of the Gaussian(R) 16 program.  It is based on
 the Gaussian(R) 09 system (copyright 2009, Gaussian, Inc.),
 the Gaussian(R) 03 system (copyright 2003, Gaussian, Inc.),
 the Gaussian(R) 98 system (copyright 1998, Gaussian, Inc.),
 the Gaussian(R) 94 system (copyright 1995, Gaussian, Inc.),
 the Gaussian 92(TM) system (copyright 1992, Gaussian, Inc.),
 the Gaussian 90(TM) system (copyright 1990, Gaussian, Inc.),
 the Gaussian 88(TM) system (copyright 1988, Gaussian, Inc.),
 the Gaussian 86(TM) system (copyright 1986, Carnegie Mellon
 University), and the Gaussian 82(TM) system (copyright 1983,
 Carnegie Mellon University). Gaussian is a federally registered
 trademark of Gaussian, Inc.
  
 This software contains proprietary and confidential information,
 including trade secrets, belonging to Gaussian, Inc.
  
 This software is provided under written license and may be
 used, copied, transmitted, or stored only in accord with that
 written license.
  
 The following legend is applicable only to US Government
 contracts under FAR:
  
                    RESTRICTED RIGHTS LEGEND
  
 Use, reproduction and disclosure by the US Government is
 subject to restrictions as set forth in subparagraphs (a)
 and (c) of the Commercial Computer Software - Restricted
 Rights clause in FAR 52.227-19.
  
 Gaussian, Inc.
 340 Quinnipiac St., Bldg. 40, Wallingford CT 06492
  
  
 ---------------------------------------------------------------
 Warning -- This program may not be used in any manner that
 competes with the business of Gaussian, Inc. or will provide
 assistance to any competitor of Gaussian, Inc.  The licensee
 of this program is prohibited from giving any competitor of
 Gaussian, Inc. access to this program.  By using this program,
 the user acknowledges that Gaussian, Inc. is engaged in the
 business of creating and licensing software in the field of
 computational chemistry and represents and warrants to the
 licensee that it is not a competitor of Gaussian, Inc. and that
 it will not use this program in any manner prohibited above.
 ---------------------------------------------------------------
  

 Cite this work as:
 Gaussian 16, Revision A.03,
 M. J. Frisch, G. W. Trucks, H. B. Schlegel, G. E. Scuseria, 
 M. A. Robb, J. R. Cheeseman, G. Scalmani, V. Barone, 
 G. A. Petersson, H. Nakatsuji, X. Li, M. Caricato, A. V. Marenich, 
 J. Bloino, B. G. Janesko, R. Gomperts, B. Mennucci, H. P. Hratchian, 
 J. V. Ortiz, A. F. Izmaylov, J. L. Sonnenberg, D. Williams-Young, 
 F. Ding, F. Lipparini, F. Egidi, J. Goings, B. Peng, A. Petrone, 
 T. Henderson, D. Ranasinghe, V. G. Zakrzewski, J. Gao, N. Rega, 
 G. Zheng, W. Liang, M. Hada, M. Ehara, K. Toyota, R. Fukuda, 
 J. Hasegawa, M. Ishida, T. Nakajima, Y. Honda, O. Kitao, H. Nakai, 
 T. Vreven, K. Throssell, J. A. Montgomery, Jr., J. E. Peralta, 
 F. Ogliaro, M. J. Bearpark, J. J. Heyd, E. N. Brothers, K. N. Kudin, 
 V. N. Staroverov, T. A. Keith, R. Kobayashi, J. Normand, 
 K. Raghavachari, A. P. Rendell, J. C. Burant, S. S. Iyengar, 
 J. Tomasi, M. Cossi, J. M. Millam, M. Klene, C. Adamo, R. Cammi, 
 J. W. Ochterski, R. L. Martin, K. Morokuma, O. Farkas, 
 J. B. Foresman, and D. J. Fox, Gaussian, Inc., Wallingford CT, 2016.
 
 ******************************************
 Gaussian 16:  EM64L-G16RevA.03 25-Dec-2016
                21-Jan-2021 
 ******************************************
 %mem=30GB
 %nproc=8
 Will use up to    8 processors via shared memory.
 ----------------------------------------------------------------------
 #P LC-wHPBE/TZVP iop(3/107=0197900000, 3/108=0197900000) scf=(conver=6
 ,fermi,ndamp=35,noincfock,novaracc,vshift=500,xqc)
 ----------------------------------------------------------------------
 1/38=1,172=1/1;
 2/12=2,17=6,18=5,40=1/2;
 3/5=19,7=101,11=2,25=1,30=1,74=-71,107=197900000,108=197900000/1,2,3;
 4//1;
 5/5=100002,6=6,8=3,10=500,13=1,18=-1,22=13,38=1,93=35/2,8;
 6/7=2,8=2,9=2,10=2,28=1/1;
 99/5=1,9=1/99;
 Leave Link    1 at Thu Jan 21 03:48:47 2021, MaxMem=  4026531840 cpu:               1.5 elap:               0.2
 (Enter /opt/ohpc/pub/libs/gaussian/g16-A.03/sandybridge/g16/l101.exe)
 ----------
 H21 C19 N2
 ----------
 Symbolic Z-matrix:
 Charge =  2 Multiplicity = 2
 C                     5.9243   -1.17518   0.28256 
 C                     6.62563   0.00003  -0.00025 
 C                     4.53032  -1.17747   0.27821 
 C                     5.92421   1.1752   -0.28295 
 C                     3.81094  -0.00004  -0.00002 
 C                     4.53023   1.17744  -0.27837 
 H                     7.71655   0.00006  -0.00033 
 H                     3.99406  -2.09497   0.52794 
 H                     6.4663    2.09321  -0.51475 
 H                     3.99388   2.0949   -0.52801 
 C                     2.33372  -0.00006   0.00011 
 C                     1.60478   1.11928   0.45271 
 C                     1.60475  -1.11943  -0.45234 
 C                     0.21685   1.12577   0.44924 
 C                     0.21681  -1.12598  -0.44867 
 C                    -0.50492  -0.00011   0.00031 
 H                     2.14167   1.98573   0.84084 
 H                     2.1416   -1.98589  -0.84051 
 H                    -0.31569   1.9952    0.83819 
 H                    -0.31575  -1.99547  -0.83748 
 H                     6.46648  -2.09316   0.51427 
 C                    -1.94287  -0.00009   0.0004 
 C                    -3.14332  -0.70264  -0.00339 
 C                    -3.14313   0.7028    0.00392 
 N                    -3.78708  -1.85502   0.00167 
 N                    -3.78677   1.85525  -0.0011 
 C                    -3.06841  -3.12252   0.16773 
 H                    -3.18789  -3.74858  -0.7286 
 H                    -2.00579  -2.92761   0.34104 
 H                    -3.47116  -3.66355   1.03624 
 C                    -5.24512  -1.94416  -0.10028 
 H                    -5.50915  -2.714    -0.83867 
 H                    -5.68895  -2.21726   0.86911 
 H                    -5.65925  -0.98959  -0.43909 
 C                    -3.06805   3.12262  -0.16813 
 H                    -3.18812   3.7496    0.72746 
 H                    -2.0053    2.92754  -0.34053 
 H                    -3.47019   3.66271  -1.03751 
 C                    -5.24495   1.94423   0.09939 
 H                    -5.50954   2.71844   0.83295 
 H                    -5.68863   2.21126  -0.87177 
 H                    -5.65878   0.99164   0.44414 
 
 ITRead=  0  0  0  0  0  0  0  0  0  0  0  0  0  0  0  0  0  0  0  0
 ITRead=  0  0  0  0  0  0  0  0  0  0  0  0  0  0  0  0  0  0  0  0
 ITRead=  0  0
 MicOpt= -1 -1 -1 -1 -1 -1 -1 -1 -1 -1 -1 -1 -1 -1 -1 -1 -1 -1 -1 -1
 MicOpt= -1 -1 -1 -1 -1 -1 -1 -1 -1 -1 -1 -1 -1 -1 -1 -1 -1 -1 -1 -1
 MicOpt= -1 -1
 NAtoms=     42 NQM=       42 NQMF=       0 NMMI=      0 NMMIF=      0
                NMic=       0 NMicF=      0.
                    Isotopes and Nuclear Properties:
 (Nuclear quadrupole moments (NQMom) in fm**2, nuclear magnetic moments (NMagM)
  in nuclear magnetons)

  Atom         1           2           3           4           5           6           7           8           9          10
 IAtWgt=          12          12          12          12          12          12           1           1           1           1
 AtmWgt=  12.0000000  12.0000000  12.0000000  12.0000000  12.0000000  12.0000000   1.0078250   1.0078250   1.0078250   1.0078250
 NucSpn=           0           0           0           0           0           0           1           1           1           1
 AtZEff=  -0.0000000  -0.0000000  -0.0000000  -0.0000000  -0.0000000  -0.0000000  -0.0000000  -0.0000000  -0.0000000  -0.0000000
 NQMom=    0.0000000   0.0000000   0.0000000   0.0000000   0.0000000   0.0000000   0.0000000   0.0000000   0.0000000   0.0000000
 NMagM=    0.0000000   0.0000000   0.0000000   0.0000000   0.0000000   0.0000000   2.7928460   2.7928460   2.7928460   2.7928460
 AtZNuc=   6.0000000   6.0000000   6.0000000   6.0000000   6.0000000   6.0000000   1.0000000   1.0000000   1.0000000   1.0000000

  Atom        11          12          13          14          15          16          17          18          19          20
 IAtWgt=          12          12          12          12          12          12           1           1           1           1
 AtmWgt=  12.0000000  12.0000000  12.0000000  12.0000000  12.0000000  12.0000000   1.0078250   1.0078250   1.0078250   1.0078250
 NucSpn=           0           0           0           0           0           0           1           1           1           1
 AtZEff=  -0.0000000  -0.0000000  -0.0000000  -0.0000000  -0.0000000  -0.0000000  -0.0000000  -0.0000000  -0.0000000  -0.0000000
 NQMom=    0.0000000   0.0000000   0.0000000   0.0000000   0.0000000   0.0000000   0.0000000   0.0000000   0.0000000   0.0000000
 NMagM=    0.0000000   0.0000000   0.0000000   0.0000000   0.0000000   0.0000000   2.7928460   2.7928460   2.7928460   2.7928460
 AtZNuc=   6.0000000   6.0000000   6.0000000   6.0000000   6.0000000   6.0000000   1.0000000   1.0000000   1.0000000   1.0000000

  Atom        21          22          23          24          25          26          27          28          29          30
 IAtWgt=           1          12          12          12          14          14          12           1           1           1
 AtmWgt=   1.0078250  12.0000000  12.0000000  12.0000000  14.0030740  14.0030740  12.0000000   1.0078250   1.0078250   1.0078250
 NucSpn=           1           0           0           0           2           2           0           1           1           1
 AtZEff=  -0.0000000  -0.0000000  -0.0000000  -0.0000000  -0.0000000  -0.0000000  -0.0000000  -0.0000000  -0.0000000  -0.0000000
 NQMom=    0.0000000   0.0000000   0.0000000   0.0000000   2.0440000   2.0440000   0.0000000   0.0000000   0.0000000   0.0000000
 NMagM=    2.7928460   0.0000000   0.0000000   0.0000000   0.4037610   0.4037610   0.0000000   2.7928460   2.7928460   2.7928460
 AtZNuc=   1.0000000   6.0000000   6.0000000   6.0000000   7.0000000   7.0000000   6.0000000   1.0000000   1.0000000   1.0000000

  Atom        31          32          33          34          35          36          37          38          39          40
 IAtWgt=          12           1           1           1          12           1           1           1          12           1
 AtmWgt=  12.0000000   1.0078250   1.0078250   1.0078250  12.0000000   1.0078250   1.0078250   1.0078250  12.0000000   1.0078250
 NucSpn=           0           1           1           1           0           1           1           1           0           1
 AtZEff=  -0.0000000  -0.0000000  -0.0000000  -0.0000000  -0.0000000  -0.0000000  -0.0000000  -0.0000000  -0.0000000  -0.0000000
 NQMom=    0.0000000   0.0000000   0.0000000   0.0000000   0.0000000   0.0000000   0.0000000   0.0000000   0.0000000   0.0000000
 NMagM=    0.0000000   2.7928460   2.7928460   2.7928460   0.0000000   2.7928460   2.7928460   2.7928460   0.0000000   2.7928460
 AtZNuc=   6.0000000   1.0000000   1.0000000   1.0000000   6.0000000   1.0000000   1.0000000   1.0000000   6.0000000   1.0000000

  Atom        41          42
 IAtWgt=           1           1
 AtmWgt=   1.0078250   1.0078250
 NucSpn=           1           1
 AtZEff=  -0.0000000  -0.0000000
 NQMom=    0.0000000   0.0000000
 NMagM=    2.7928460   2.7928460
 AtZNuc=   1.0000000   1.0000000
 Leave Link  101 at Thu Jan 21 03:48:48 2021, MaxMem=  4026531840 cpu:               0.6 elap:               0.1
 (Enter /opt/ohpc/pub/libs/gaussian/g16-A.03/sandybridge/g16/l202.exe)
                          Input orientation:                          
 ---------------------------------------------------------------------
 Center     Atomic      Atomic             Coordinates (Angstroms)
 Number     Number       Type             X           Y           Z
 ---------------------------------------------------------------------
      1          6           0        5.924302   -1.175178    0.282560
      2          6           0        6.625626    0.000025   -0.000251
      3          6           0        4.530324   -1.177472    0.278212
      4          6           0        5.924206    1.175202   -0.282951
      5          6           0        3.810936   -0.000036   -0.000021
      6          6           0        4.530233    1.177435   -0.278371
      7          1           0        7.716547    0.000056   -0.000331
      8          1           0        3.994064   -2.094974    0.527939
      9          1           0        6.466302    2.093210   -0.514746
     10          1           0        3.993880    2.094904   -0.528010
     11          6           0        2.333716   -0.000062    0.000109
     12          6           0        1.604784    1.119278    0.452707
     13          6           0        1.604752   -1.119433   -0.452341
     14          6           0        0.216850    1.125770    0.449243
     15          6           0        0.216813   -1.125977   -0.448670
     16          6           0       -0.504919   -0.000106    0.000309
     17          1           0        2.141671    1.985727    0.840835
     18          1           0        2.141597   -1.985891   -0.840507
     19          1           0       -0.315693    1.995203    0.838189
     20          1           0       -0.315745   -1.995465   -0.837475
     21          1           0        6.466484   -2.093156    0.514265
     22          6           0       -1.942874   -0.000086    0.000402
     23          6           0       -3.143323   -0.702637   -0.003392
     24          6           0       -3.143127    0.702801    0.003915
     25          7           0       -3.787080   -1.855019    0.001668
     26          7           0       -3.786774    1.855252   -0.001097
     27          6           0       -3.068411   -3.122520    0.167733
     28          1           0       -3.187886   -3.748580   -0.728596
     29          1           0       -2.005788   -2.927607    0.341041
     30          1           0       -3.471162   -3.663551    1.036238
     31          6           0       -5.245121   -1.944160   -0.100275
     32          1           0       -5.509149   -2.713998   -0.838669
     33          1           0       -5.688951   -2.217262    0.869111
     34          1           0       -5.659251   -0.989594   -0.439085
     35          6           0       -3.068047    3.122616   -0.168130
     36          1           0       -3.188116    3.749602    0.727455
     37          1           0       -2.005304    2.927538   -0.340531
     38          1           0       -3.470192    3.662707   -1.037509
     39          6           0       -5.244950    1.944232    0.099391
     40          1           0       -5.509538    2.718440    0.832954
     41          1           0       -5.688631    2.211256   -0.871774
     42          1           0       -5.658779    0.991638    0.444142
 ---------------------------------------------------------------------
                    Distance matrix (angstroms):
                    1          2          3          4          5
     1  C    0.000000
     2  C    1.397476   0.000000
     3  C    1.393987   2.419573   0.000000
     4  C    2.417455   1.397480   2.791574   0.000000
     5  C    2.434569   2.814690   1.407582   2.434573   0.000000
     6  C    2.791569   2.419570   2.419788   1.393982   1.407588
     7  H    2.161792   1.090921   3.408251   2.161788   3.905611
     8  H    2.152221   3.404868   1.091672   3.882917   2.168189
     9  H    3.407612   2.161368   3.882545   1.091025   3.420174
    10  H    3.882910   3.404869   3.412655   2.152223   2.168182
    11  C    3.788533   4.291910   2.507733   3.788534   1.477220
    12  C    4.894049   5.163986   3.723479   4.381977   2.514942
    13  C    4.381974   5.163986   3.015965   4.894050   2.514934
    14  C    6.156066   6.522404   4.892876   5.754343   3.792985
    15  C    5.754350   6.522411   4.374630   6.156072   3.792987
    16  C    6.541815   7.130545   5.178522   6.541807   4.315855
    17  H    4.960977   4.975569   4.003503   4.028327   2.727039
    18  H    4.028324   4.975581   2.758820   4.960999   2.727037
    19  H    7.021223   7.270875   5.819220   6.392628   4.659683
    20  H    6.392616   7.270870   5.039668   7.021226   4.659674
    21  H    1.091023   2.161356   2.154742   3.407607   3.420172
    22  C    7.959454   8.568500   6.585265   7.959431   5.753810
    23  C    9.084431   9.794187   7.693480   9.264152   6.989662
    24  C    9.264055   9.794001   7.905221   9.084161   6.989491
    25  N    9.739200  10.576655   8.349536  10.177049   7.821177
    26  N   10.176884  10.576386   8.857175   9.738842   7.820952
    27  C    9.201859  10.185915   7.844501   9.977008   7.556683
    28  H    9.522437  10.530315   8.197257  10.366892   7.972823
    29  H    8.121623   9.120790   6.766659   8.950263   6.520834
    30  H    9.748578  10.790794   8.413024  10.650199   8.217307
    31  C   11.202406  12.029318   9.812767  11.598175   9.262928
    32  H   11.590898  12.462810  10.217600  12.089512   9.743352
    33  H   11.674657  12.542765  10.289019  12.153250   9.793842
    34  H   11.607494  12.332482  10.216519  11.785041   9.531865
    35  C    9.976798  10.185581   8.742152   9.201425   7.556429
    36  H   10.367620  10.530832   9.167998   9.522755   7.973439
    37  H    8.949814   9.120256   7.742634   8.121030   6.520375
    38  H   10.649142  10.789656   9.442813   9.747397   8.216258
    39  C   11.598123  12.029150  10.263186  11.202127   9.262782
    40  H   12.091149  12.463796  10.783538  11.591261   9.744496
    41  H   12.151569  12.541532  10.827418  11.673821   9.792423
    42  H   11.785116  12.332372  10.418752  11.607235   9.531852
                    6          7          8          9         10
     6  C    0.000000
     7  H    3.408244   0.000000
     8  H    3.412664   4.304079   0.000000
     9  H    2.154734   2.491792   4.973936   0.000000
    10  H    1.091670   4.304077   4.320892   2.472458   0.000000
    11  C    2.507735   5.382831   2.724705   4.661022   2.724690
    12  C    3.015976   6.229892   4.005713   5.051620   2.760694
    13  C    3.723481   6.229896   2.760696   5.827490   4.005699
    14  C    4.374627   7.597026   4.964547   6.396942   4.019975
    15  C    4.892883   7.597037   4.019993   7.030195   4.964535
    16  C    5.178515   8.221466   4.990763   7.296929   4.990729
    17  H    2.758838   5.977432   4.492370   4.533386   2.305718
    18  H    4.003525   5.977453   2.305684   5.953844   4.492382
    19  H    5.039687   8.318690   5.949774   6.916321   4.522042
    20  H    5.819226   8.318692   4.522025   7.925754   5.949769
    21  H    3.882539   2.491787   2.472458   4.310977   4.973927
    22  C    6.585240   9.659421   6.317759   8.681101   6.317693
    23  C    7.905299  10.882581   7.291310  10.021134   7.683822
    24  C    7.693206  10.882389   7.683856   9.723342   7.290937
    25  N    8.857307  11.652242   7.802611  10.999411   8.742184
    26  N    8.349187  11.651959   8.742174  10.268692   7.802157
    27  C    8.742312  11.229160   7.145919  10.889461   8.808038
    28  H    9.167207  11.553757   7.476209  11.286079   9.260902
    29  H    7.743036  10.159308   6.060234   9.885205   7.872540
    30  H    9.443816  11.817839   7.645155  11.588746   9.556858
    31  C   10.263217  13.107052   9.261746  12.394740  10.092380
    32  H   10.781761  13.527303   9.620908  12.908354  10.655027
    33  H   10.829238  13.615425   9.689795  12.970945  10.691302
    34  H   10.418610  13.419534   9.764399  12.511532  10.134346
    35  C    7.844090  11.228802   8.808017   9.596022   7.145384
    36  H    8.197600  11.554239   9.261889   9.873930   7.476315
    37  H    6.766090  10.158754   7.872248   8.514374   6.059590
    38  H    8.411877  11.816678   9.555974  10.073257   7.643950
    39  C    9.812486  13.106875  10.092483  11.728290   9.261334
    40  H   10.217962  13.528241  10.657412  12.067641   9.620602
    41  H   10.288153  13.614243  10.689125  12.160748   9.689310
    42  H   10.216287  13.419394  10.134672  12.212719   9.764021
                   11         12         13         14         15
    11  C    0.000000
    12  C    1.410358   0.000000
    13  C    1.410351   2.414734   0.000000
    14  C    2.439332   1.387954   2.789276   0.000000
    15  C    2.439337   2.789286   1.387959   2.424172   0.000000
    16  C    2.838635   2.430747   2.430740   1.410705   1.410697
    17  H    2.164962   1.090699   3.406260   2.144250   3.879511
    18  H    2.164962   3.406266   1.090699   3.879503   2.144244
    19  H    3.420940   2.145710   3.880017   1.091235   3.417797
    20  H    3.420939   3.880029   2.145709   3.417808   1.091236
    21  H    4.661027   5.827491   5.051624   7.030195   6.396958
    22  C    4.276590   3.747457   3.747474   2.476574   2.476599
    23  C    5.521918   5.106067   4.787430   3.852105   3.415846
    24  C    5.521761   4.787225   5.105983   3.415650   3.852072
    25  N    6.395703   6.174308   5.460683   5.011675   4.094565
    26  N    6.395513   5.460448   6.174214   4.094381   5.011662
    27  C    6.241860   6.317659   5.122041   5.377746   3.893435
    28  H    6.713456   6.932619   5.473400   6.061256   4.306783
    29  H    5.245765   5.424572   4.115209   4.624034   2.968075
    30  H    6.941997   6.998656   5.869694   6.073186   4.716502
    31  C    7.824856   7.524071   6.908320   6.289640   5.533853
    32  H    8.341434   8.183502   7.300649   7.013530   5.954876
    33  H    8.368651   8.031467   7.493301   6.799312   6.148618
    34  H    8.065952   7.616353   7.265175   6.308126   5.877654
    35  C    6.241672   5.121928   6.317500   3.893468   5.377690
    36  H    6.714137   5.474119   6.933326   4.307632   6.062020
    37  H    5.245376   4.114823   5.424295   2.967841   4.623903
    38  H    6.941028   5.869000   6.997595   4.716011   6.072251
    39  C    7.824725   6.908273   7.523887   5.533854   6.289468
    40  H    8.342692   7.301745   8.185009   5.956119   7.015212
    41  H    8.367088   7.492701   8.028876   6.148014   6.796353
    42  H    8.066016   7.264689   7.617033   5.877162   6.309040
                   16         17         18         19         20
    16  C    0.000000
    17  H    3.413862   0.000000
    18  H    3.413848   4.312848   0.000000
    19  H    2.172351   2.457384   4.970453   0.000000
    20  H    2.172355   4.970464   2.457363   4.328196   0.000000
    21  H    7.296949   5.953817   4.533383   7.925751   6.916312
    22  C    1.437955   4.618797   4.618815   2.707542   2.707605
    23  C    2.730337   5.989256   5.502534   3.997761   3.219052
    24  C    2.730244   5.502311   5.989192   3.218804   3.997833
    25  N    3.770051   7.113763   5.989624   5.251143   3.574081
    26  N    3.770004   5.989352   7.113689   3.573848   5.251247
    27  C    4.043389   7.327497   5.427030   5.849620   3.139724
    28  H    4.666977   7.984333   5.614533   6.610246   3.366669
    29  H    3.307411   6.449191   4.414033   5.228540   2.261423
    30  H    4.826238   7.965954   6.151405   6.482107   4.031125
    31  C    5.124351   8.419881   7.423832   6.379542   4.984460
    32  H    5.754252   9.134725   7.685314   7.208357   5.242875
    33  H    5.704804   8.887326   8.018342   6.827717   5.642072
    34  H    5.266810   8.446604   7.874451   6.252524   5.451931
    35  C    4.043438   5.426941   7.327300   3.139935   5.849610
    36  H    4.667826   5.615224   7.985000   3.367639   6.611000
    37  H    3.307329   4.413619   6.448918   2.261286   5.228530
    38  H    4.825568   6.150890   7.964775   4.031089   6.481162
    39  C    5.124272   7.423856   8.419641   4.984576   6.379341
    40  H    5.755867   7.686217   9.136250   5.243961   7.210182
    41  H    5.702764   8.018574   8.884227   5.642616   6.823898
    42  H    5.267145   7.873538   8.447595   5.450778   6.254066
                   21         22         23         24         25
    21  H    0.000000
    22  C    8.681146   0.000000
    23  C    9.723677   1.390924   0.000000
    24  C   10.021101   1.390924   1.405457   0.000000
    25  N   10.269130   2.615698   1.320012   2.637636   0.000000
    26  N   10.999310   2.615769   2.637580   1.320019   3.710272
    27  C    9.596557   3.323316   2.427082   3.829556   1.466500
    28  H    9.873803   4.016553   3.131402   4.511471   2.116103
    29  H    8.515028   2.947944   2.522521   3.819300   2.106803
    30  H   10.074493   4.102389   3.155205   4.498703   2.107351
    31  C   11.728664   3.833327   2.443015   3.381662   1.464316
    32  H   12.067794   4.559350   3.215648   4.240581   2.099889
    33  H   12.161247   4.438876   3.087972   3.969452   2.121507
    34  H   12.213115   3.870883   2.569449   3.064528   2.109087
    35  C   10.889317   3.323505   3.829539   2.427085   5.032166
    36  H   11.286920   4.017386   4.512048   3.131857   5.683071
    37  H    9.884798   2.948070   3.819283   2.522447   5.115142
    38  H   11.587730   4.101952   4.498052   3.154771   5.623665
    39  C   12.394769   3.833259   3.381319   2.442934   4.070533
    40  H   12.910388   4.561208   4.242902   3.217143   4.957260
    41  H   12.969036   4.436375   3.965281   3.085751   4.573116
    42  H   12.511709   3.871482   3.065677   2.570162   3.435476
                   26         27         28         29         30
    26  N    0.000000
    27  C    5.032173   0.000000
    28  H    5.682504   1.099832   0.000000
    29  H    5.115145   1.094164   1.793175   0.000000
    30  H    5.624310   1.099647   1.789445   1.781076   0.000000
    31  C    4.070890   2.489664   2.807656   3.413972   2.719356
    32  H    4.954407   2.671505   2.543765   3.702821   2.927511
    33  H    4.578309   2.859834   3.339600   3.788026   2.652974
    34  H    3.433825   3.410286   3.715302   4.208596   3.756908
    35  C    1.466520   6.254161   6.895058   6.163834   6.903989
    36  H    2.116067   6.895918   7.638247   6.792079   7.424978
    37  H    2.106810   6.163743   6.791145   5.894681   6.891058
    38  H    2.107432   6.903140   7.423092   6.890364   7.614098
    39  C    1.464340   5.514886   6.109434   5.855372   5.955773
    40  H    2.099679   6.365409   7.046336   6.663039   6.702694
    41  H    2.121763   6.032851   6.464818   6.437559   6.562853
    42  H    2.109140   4.869569   5.472686   5.358680   5.177551
                   31         32         33         34         35
    31  C    0.000000
    32  H    1.098903   0.000000
    33  H    1.100581   1.787621   0.000000
    34  H    1.094300   1.776448   1.794276   0.000000
    35  C    5.515113   6.361970   6.038154   4.868062   0.000000
    36  H    6.110264   7.044009   6.471299   5.470585   1.099818
    37  H    5.855560   6.659730   6.442162   5.357701   1.094166
    38  H    5.955312   6.697705   6.567505   5.176292   1.099654
    39  C    3.893515   4.759082   4.255307   3.011468   2.489792
    40  H    4.762423   5.683811   4.939094   3.923011   2.669533
    41  H    4.249635   4.928634   4.758409   3.230097   2.862368
    42  H    3.014368   3.924249   3.237059   2.169187   3.409961
                   36         37         38         39         40
    36  H    0.000000
    37  H    1.793161   0.000000
    38  H    1.789474   1.781053   0.000000
    39  C    2.807916   3.414049   2.719460   0.000000
    40  H    2.542327   3.701411   2.923902   1.098872   0.000000
    41  H    3.343145   3.789746   2.656247   1.100598   1.787570
    42  H    3.713598   4.208480   3.757634   1.094323   1.776314
                   41         42
    41  H    0.000000
    42  H    1.794434   0.000000
 Stoichiometry    C19H21N2(2+,2)
 Framework group  C1[X(C19H21N2)]
 Deg. of freedom   120
 Full point group                 C1      NOp   1
 Largest Abelian subgroup         C1      NOp   1
 Largest concise Abelian subgroup C1      NOp   1
                         Standard orientation:                         
 ---------------------------------------------------------------------
 Center     Atomic      Atomic             Coordinates (Angstroms)
 Number     Number       Type             X           Y           Z
 ---------------------------------------------------------------------
      1          6           0       -5.924302   -1.175178   -0.282560
      2          6           0       -6.625626    0.000025    0.000251
      3          6           0       -4.530324   -1.177472   -0.278212
      4          6           0       -5.924206    1.175202    0.282951
      5          6           0       -3.810936   -0.000036    0.000021
      6          6           0       -4.530233    1.177435    0.278371
      7          1           0       -7.716547    0.000056    0.000331
      8          1           0       -3.994064   -2.094974   -0.527939
      9          1           0       -6.466302    2.093210    0.514746
     10          1           0       -3.993880    2.094904    0.528010
     11          6           0       -2.333716   -0.000062   -0.000109
     12          6           0       -1.604784    1.119278   -0.452707
     13          6           0       -1.604752   -1.119433    0.452341
     14          6           0       -0.216850    1.125770   -0.449243
     15          6           0       -0.216813   -1.125977    0.448670
     16          6           0        0.504919   -0.000106   -0.000309
     17          1           0       -2.141671    1.985727   -0.840835
     18          1           0       -2.141597   -1.985891    0.840507
     19          1           0        0.315693    1.995203   -0.838189
     20          1           0        0.315745   -1.995465    0.837475
     21          1           0       -6.466484   -2.093156   -0.514265
     22          6           0        1.942874   -0.000086   -0.000402
     23          6           0        3.143323   -0.702637    0.003392
     24          6           0        3.143127    0.702801   -0.003915
     25          7           0        3.787080   -1.855019   -0.001668
     26          7           0        3.786774    1.855252    0.001097
     27          6           0        3.068411   -3.122520   -0.167733
     28          1           0        3.187886   -3.748580    0.728596
     29          1           0        2.005788   -2.927607   -0.341041
     30          1           0        3.471162   -3.663551   -1.036238
     31          6           0        5.245121   -1.944160    0.100275
     32          1           0        5.509149   -2.713998    0.838669
     33          1           0        5.688951   -2.217262   -0.869111
     34          1           0        5.659251   -0.989594    0.439085
     35          6           0        3.068047    3.122616    0.168130
     36          1           0        3.188116    3.749602   -0.727455
     37          1           0        2.005304    2.927538    0.340531
     38          1           0        3.470192    3.662707    1.037509
     39          6           0        5.244950    1.944232   -0.099391
     40          1           0        5.509538    2.718440   -0.832954
     41          1           0        5.688631    2.211256    0.871774
     42          1           0        5.658779    0.991638   -0.444142
 ---------------------------------------------------------------------
 Rotational constants (GHZ):           0.7037808           0.1205812           0.1040104
 Leave Link  202 at Thu Jan 21 03:48:48 2021, MaxMem=  4026531840 cpu:               0.3 elap:               0.1
 (Enter /opt/ohpc/pub/libs/gaussian/g16-A.03/sandybridge/g16/l301.exe)
 Standard basis: TZVP (5D, 7F)
 Ernie: Thresh=  0.10000D-02 Tol=  0.10000D-05 Strict=F.
 There are   546 symmetry adapted cartesian basis functions of A   symmetry.
 There are   525 symmetry adapted basis functions of A   symmetry.
   525 basis functions,   903 primitive gaussians,   546 cartesian basis functions
    74 alpha electrons       73 beta electrons
       nuclear repulsion energy      1487.4602048397 Hartrees.
 IExCor=33909 DFT=T Ex+Corr=LC-wHPBE ExCW=0 ScaHFX=  1.000000
 ScaDFX=  1.000000  1.000000  1.000000  1.000000 ScalE2=  1.000000  1.000000
 IRadAn=      5 IRanWt=     -1 IRanGd=            0 ICorTp=0 IEmpDi=  4
 HFx  wShort=  0.000000 wLong=  0.197900 cFull=  0.000000 cShort=  0.000000 cLong=  1.000000
 DFx  wShort=  0.000000 wLong=  0.197900 cFull=  0.000000 cShort=  1.000000 cLong=  0.000000
 NAtoms=   42 NActive=   42 NUniq=   42 SFac= 1.00D+00 NAtFMM=   60 NAOKFM=F Big=F
 Integral buffers will be    131072 words long.
 Raffenetti 2 integral format.
 Two-electron integral symmetry is turned on.
 Leave Link  301 at Thu Jan 21 03:48:48 2021, MaxMem=  4026531840 cpu:               0.3 elap:               0.1
 (Enter /opt/ohpc/pub/libs/gaussian/g16-A.03/sandybridge/g16/l302.exe)
 NPDir=0 NMtPBC=     1 NCelOv=     1 NCel=       1 NClECP=     1 NCelD=      1
         NCelK=      1 NCelE2=     1 NClLst=     1 CellRange=     0.0.
 One-electron integrals computed using PRISM.
 One-electron integral symmetry used in STVInt
 NBasis=   525 RedAO= T EigKep=  8.06D-06  NBF=   525
 NBsUse=   525 1.00D-06 EigRej= -1.00D+00 NBFU=   525
 Precomputing XC quadrature grid using
 IXCGrd= 4 IRadAn=           5 IRanWt=          -1 IRanGd=           0 AccXCQ= 0.00D+00.
 Generated NRdTot=       0 NPtTot=           0 NUsed=           0 NTot=          32
 NSgBfM=   523   523   523   523   523 MxSgAt=    42 MxSgA2=    42.
 Leave Link  302 at Thu Jan 21 03:48:49 2021, MaxMem=  4026531840 cpu:               7.0 elap:               0.9
 (Enter /opt/ohpc/pub/libs/gaussian/g16-A.03/sandybridge/g16/l303.exe)
 DipDrv:  MaxL=1.
 Leave Link  303 at Thu Jan 21 03:48:49 2021, MaxMem=  4026531840 cpu:               0.7 elap:               0.1
 (Enter /opt/ohpc/pub/libs/gaussian/g16-A.03/sandybridge/g16/l401.exe)
 ExpMin= 9.52D-02 ExpMax= 1.97D+04 ExpMxC= 6.73D+02 IAcc=3 IRadAn=         5 AccDes= 0.00D+00
 Harris functional with IExCor=33909 and IRadAn=       5 diagonalized for initial guess.
 HarFok:  IExCor=33909 AccDes= 0.00D+00 IRadAn=         5 IDoV= 1 UseB2=F ITyADJ=14
 ICtDFT=  3500011 ScaDFX=  1.000000  1.000000  1.000000  1.000000
 FoFCou: FMM=F IPFlag=           0 FMFlag=      100000 FMFlg1=           0
         NFxFlg=           0 DoJE=T BraDBF=F KetDBF=T FulRan=T
         wScrn=  0.000000 ICntrl=       500 IOpCl=  0 I1Cent=   200000004 NGrid=           0
         NMat0=    1 NMatS0=      1 NMatT0=    0 NMatD0=    1 NMtDS0=    0 NMtDT0=    0
 Petite list used in FoFCou.
 Harris En= -829.622669859926    
 JPrj=0 DoOrth=F DoCkMO=F.
 Initial guess <Sx>= 0.0000 <Sy>= 0.0000 <Sz>= 0.5000 <S**2>= 0.7500 S= 0.5000
 Leave Link  401 at Thu Jan 21 03:48:54 2021, MaxMem=  4026531840 cpu:              40.0 elap:               5.0
 (Enter /opt/ohpc/pub/libs/gaussian/g16-A.03/sandybridge/g16/l502.exe)
 Integral symmetry usage will be decided dynamically.
 UHF open shell SCF:
 Using DIIS extrapolation, IDIIS=    10.
 NGot=  4026531840 LenX=  4025925692 LenY=  4025627030
 Requested convergence on RMS density matrix=1.00D-06 within  32 cycles.
 Requested convergence on MAX density matrix=1.00D-04.
 Requested convergence on             energy=1.00D-04.
 Virtual orbitals will be shifted by   0.500 hartree.
 No special actions if energy rises.
 Dynamic level shift is on during FON iterations.

 Cycle   1  Pass 1  IDiag  1:
 FoFJK:  IHMeth= 1 ICntrl=       0 DoSepK=T KAlg= 0 I1Cent=           0 FoldK=F
 IRaf=         1 NMat=       1 IRICut=       1 DoRegI=T DoRafI=F ISym2E= 0 IDoP0=0 IntGTp=1.
 FoFCou: FMM=F IPFlag=           0 FMFlag=      100000 FMFlg1=           0
         NFxFlg=           0 DoJE=T BraDBF=F KetDBF=F FulRan=T
         wScrn=  0.000000 ICntrl=       500 IOpCl=  0 I1Cent=           0 NGrid=           0
         NMat0=    1 NMatS0=      1 NMatT0=    0 NMatD0=    1 NMtDS0=    0 NMtDT0=    0
 Symmetry not used in FoFCou.
 E= -844.624395682199    
 DIIS: error= 2.84D-02 at cycle   1 NSaved=   1.
 NSaved= 1 IEnMin= 1 EnMin= -844.624395682199     IErMin= 1 ErrMin= 2.84D-02
 ErrMax= 2.84D-02  0.00D+00 EMaxC= 1.00D+00 BMatC= 1.27D+00 BMatP= 1.27D+00
 IDIUse=1 WtCom= 1.00D+00 WtEn= 0.00D+00
 Coeff-Com:  0.100D+01
 Coeff:      0.100D+01
 Gap=     0.447 Goal=   None    Shift=    0.500
 T= 1463. Gap= 0.521 NK=0 IS=   75 IE=  525 IFin=   74
          NO(<0.9)=   0  NV(>0.1)=   0     74.00e < EF      0.00e >EF  Err=0.0D+00
 Gap=    -0.046 Goal=   None    Shift=    0.500
 T= 1463. Gap= 0.372 NK=0 IS=   74 IE=  525 IFin=   73
          NO(<0.9)=   0  NV(>0.1)=   0     73.00e < EF      0.00e >EF  Err=0.0D+00
 GapD=   -0.046 DampG=0.250 DampE=0.500 DampFc=0.1250 IDamp=-1.
 Damping current iteration by 1.25D-01
 RMSDP=3.03D-03 MaxDP=2.79D-01              OVMax= 1.07D-01

 Cycle   2  Pass 1  IDiag  1:
 E= -844.684561267911     Delta-E=       -0.060165585712 Rises=F Damp=T
 DIIS: error= 2.51D-02 at cycle   2 NSaved=   2.
 NSaved= 2 IEnMin= 2 EnMin= -844.684561267911     IErMin= 2 ErrMin= 2.51D-02
 ErrMax= 2.51D-02  0.00D+00 EMaxC= 1.00D+00 BMatC= 9.08D-01 BMatP= 1.27D+00
 IDIUse=1 WtCom= 1.00D+00 WtEn= 0.00D+00
 Coeff-Com: -0.511D+01 0.611D+01
 Coeff:     -0.511D+01 0.611D+01
 Gap=     0.184 Goal=   None    Shift=    0.500
 T= 1439. Gap= 0.674 NK=0 IS=   75 IE=  525 IFin=   74
          NO(<0.9)=   0  NV(>0.1)=   0     74.00e < EF      0.00e >EF  Err=0.0D+00
 Gap=     0.055 Goal=   None    Shift=    0.500
 T= 1439. Gap= 0.549 NK=0 IS=   74 IE=  525 IFin=   73
          NO(<0.9)=   0  NV(>0.1)=   0     73.00e < EF      0.00e >EF  Err=0.0D+00
 GapD=    0.055 DampG=0.500 DampE=0.500 DampFc=0.2500 IDamp=-1.
 Damping current iteration by 2.50D-01
 RMSDP=2.76D-03 MaxDP=2.43D-01 DE=-6.02D-02 OVMax= 4.23D-02

 Cycle   3  Pass 1  IDiag  1:
 E= -844.773293580488     Delta-E=       -0.088732312577 Rises=F Damp=T
 DIIS: error= 1.95D-02 at cycle   3 NSaved=   3.
 NSaved= 3 IEnMin= 3 EnMin= -844.773293580488     IErMin= 3 ErrMin= 1.95D-02
 ErrMax= 1.95D-02  0.00D+00 EMaxC= 1.00D+00 BMatC= 4.82D-01 BMatP= 9.08D-01
 IDIUse=1 WtCom= 1.00D+00 WtEn= 0.00D+00
 Coeff-Com:  0.254D+00-0.307D+01 0.381D+01
 Coeff:      0.254D+00-0.307D+01 0.381D+01
 Gap=     0.206 Goal=   None    Shift=    0.500
 T= 1371. Gap= 0.706 NK=4 IS=   75 IE=   90 IFin=   74
          NO(<0.9)=   0  NV(>0.1)=   0     74.00e < EF      0.00e >EF  Err=0.0D+00
 Gap=     0.074 Goal=   None    Shift=    0.500
 T= 1371. Gap= 0.575 NK=4 IS=   74 IE=   87 IFin=   73
          NO(<0.9)=   0  NV(>0.1)=   0     73.00e < EF      0.00e >EF  Err=0.0D+00
 GapD=    0.074 DampG=0.500 DampE=0.500 DampFc=0.2500 IDamp=-1.
 Damping current iteration by 2.50D-01
 RMSDP=1.97D-03 MaxDP=1.61D-01 DE=-8.87D-02 OVMax= 3.47D-02

 Cycle   4  Pass 1  IDiag  1:
 E= -844.830284826180     Delta-E=       -0.056991245692 Rises=F Damp=T
 DIIS: error= 1.52D-02 at cycle   4 NSaved=   4.
 NSaved= 4 IEnMin= 4 EnMin= -844.830284826180     IErMin= 4 ErrMin= 1.52D-02
 ErrMax= 1.52D-02  0.00D+00 EMaxC= 1.00D+00 BMatC= 2.64D-01 BMatP= 4.82D-01
 IDIUse=1 WtCom= 1.00D+00 WtEn= 0.00D+00
 Coeff-Com:  0.674D+00-0.991D+00-0.267D+01 0.399D+01
 Coeff:      0.674D+00-0.991D+00-0.267D+01 0.399D+01
 Gap=     0.214 Goal=   None    Shift=    0.500
 T= 1251. Gap= 0.714 NK=0 IS=   75 IE=  525 IFin=   74
          NO(<0.9)=   0  NV(>0.1)=   0     74.00e < EF      0.00e >EF  Err=0.0D+00
 Gap=     0.089 Goal=   None    Shift=    0.500
 T= 1251. Gap= 0.590 NK=0 IS=   74 IE=  525 IFin=   73
          NO(<0.9)=   0  NV(>0.1)=   0     73.00e < EF      0.00e >EF  Err=0.0D+00
 GapD=    0.089 DampG=0.500 DampE=0.500 DampFc=0.2500 IDamp=-1.
 Damping current iteration by 2.50D-01
 RMSDP=1.44D-03 MaxDP=1.04D-01 DE=-5.70D-02 OVMax= 3.21D-02

 Cycle   5  Pass 1  IDiag  1:
 E= -844.868661930289     Delta-E=       -0.038377104109 Rises=F Damp=T
 DIIS: error= 1.22D-02 at cycle   5 NSaved=   5.
 NSaved= 5 IEnMin= 5 EnMin= -844.868661930289     IErMin= 5 ErrMin= 1.22D-02
 ErrMax= 1.22D-02  0.00D+00 EMaxC= 1.00D+00 BMatC= 1.47D-01 BMatP= 2.64D-01
 IDIUse=1 WtCom= 1.00D+00 WtEn= 0.00D+00
 Coeff-Com: -0.391D-01 0.758D+00 0.346D+00-0.681D+01 0.675D+01
 Coeff:     -0.391D-01 0.758D+00 0.346D+00-0.681D+01 0.675D+01
 Gap=     0.226 Goal=   None    Shift=    0.500
 T= 1105. Gap= 0.726 NK=4 IS=   75 IE=   88 IFin=   74
          NO(<0.9)=   0  NV(>0.1)=   0     74.00e < EF      0.00e >EF  Err=0.0D+00
 Gap=     0.099 Goal=   None    Shift=    0.500
 T= 1105. Gap= 0.600 NK=4 IS=   74 IE=   87 IFin=   73
          NO(<0.9)=   0  NV(>0.1)=   0     73.00e < EF      0.00e >EF  Err=0.0D+00
 GapD=    0.099 DampG=0.500 DampE=0.500 DampFc=0.2500 IDamp=-1.
 Damping current iteration by 2.50D-01
 RMSDP=1.04D-03 MaxDP=6.20D-02 DE=-3.84D-02 OVMax= 3.34D-02

 Cycle   6  Pass 1  IDiag  1:
 E= -844.895351326610     Delta-E=       -0.026689396321 Rises=F Damp=T
 DIIS: error= 1.07D-02 at cycle   6 NSaved=   6.
 NSaved= 6 IEnMin= 6 EnMin= -844.895351326610     IErMin= 6 ErrMin= 1.07D-02
 ErrMax= 1.07D-02  0.00D+00 EMaxC= 1.00D+00 BMatC= 8.28D-02 BMatP= 1.47D-01
 IDIUse=1 WtCom= 1.00D+00 WtEn= 0.00D+00
 Coeff-Com: -0.346D+00 0.625D+00 0.141D+01-0.134D+01-0.713D+01 0.778D+01
 Coeff:     -0.346D+00 0.625D+00 0.141D+01-0.134D+01-0.713D+01 0.778D+01
 Gap=     0.232 Goal=   None    Shift=    0.500
 T=  979. Gap= 0.732 NK=4 IS=   75 IE=   88 IFin=   74
          NO(<0.9)=   0  NV(>0.1)=   0     74.00e < EF      0.00e >EF  Err=0.0D+00
 Gap=     0.106 Goal=   None    Shift=    0.500
 T=  979. Gap= 0.608 NK=4 IS=   74 IE=   87 IFin=   73
          NO(<0.9)=   0  NV(>0.1)=   0     73.00e < EF      0.00e >EF  Err=0.0D+00
 GapD=    0.106 DampG=1.000 DampE=0.500 DampFc=0.5000 IDamp=-1.
 Damping current iteration by 5.00D-01
 RMSDP=7.73D-04 MaxDP=3.48D-02 DE=-2.67D-02 OVMax= 3.51D-02

 Cycle   7  Pass 1  IDiag  1:
 E= -844.932724361579     Delta-E=       -0.037373034969 Rises=F Damp=T
 DIIS: error= 7.91D-03 at cycle   7 NSaved=   7.
 NSaved= 7 IEnMin= 7 EnMin= -844.932724361579     IErMin= 7 ErrMin= 7.91D-03
 ErrMax= 7.91D-03  0.00D+00 EMaxC= 1.00D+00 BMatC= 2.17D-02 BMatP= 8.28D-02
 IDIUse=1 WtCom= 1.00D+00 WtEn= 0.00D+00
 Coeff-Com: -0.137D+00 0.359D-01 0.188D+00 0.248D+01-0.239D+01-0.344D+01
 Coeff-Com:  0.426D+01
 Coeff:     -0.137D+00 0.359D-01 0.188D+00 0.248D+01-0.239D+01-0.344D+01
 Coeff:      0.426D+01
 Gap=     0.237 Goal=   None    Shift=    0.500
 T=  853. Gap= 0.737 NK=4 IS=   75 IE=   88 IFin=   74
          NO(<0.9)=   0  NV(>0.1)=   0     74.00e < EF      0.00e >EF  Err=0.0D+00
 Gap=     0.111 Goal=   None    Shift=    0.500
 T=  853. Gap= 0.613 NK=4 IS=   74 IE=   87 IFin=   73
          NO(<0.9)=   0  NV(>0.1)=   0     73.00e < EF      0.00e >EF  Err=0.0D+00
 GapD=    0.111 DampG=1.000 DampE=1.000 DampFc=1.0000 IDamp=-1.
 RMSDP=4.27D-04 MaxDP=1.89D-02 DE=-3.74D-02 OVMax= 3.62D-02

 Cycle   8  Pass 1  IDiag  1:
 E= -844.968493632851     Delta-E=       -0.035769271272 Rises=F Damp=F
 DIIS: error= 4.48D-03 at cycle   8 NSaved=   8.
 NSaved= 8 IEnMin= 8 EnMin= -844.968493632851     IErMin= 8 ErrMin= 4.48D-03
 ErrMax= 4.48D-03  0.00D+00 EMaxC= 1.00D+00 BMatC= 7.02D-04 BMatP= 2.17D-02
 IDIUse=1 WtCom= 1.00D+00 WtEn= 0.00D+00
 Coeff-Com:  0.221D-01 0.767D-01-0.727D+00 0.108D+00 0.494D+01-0.483D+01
 Coeff-Com: -0.113D+01 0.254D+01
 Coeff:      0.221D-01 0.767D-01-0.727D+00 0.108D+00 0.494D+01-0.483D+01
 Coeff:     -0.113D+01 0.254D+01
 Gap=     0.244 Goal=   None    Shift=    0.500
 T=  679. Gap= 0.743 NK=4 IS=   75 IE=   87 IFin=   74
          NO(<0.9)=   0  NV(>0.1)=   0     74.00e < EF      0.00e >EF  Err=0.0D+00
 Gap=     0.117 Goal=   None    Shift=    0.500
 T=  679. Gap= 0.619 NK=4 IS=   74 IE=   87 IFin=   73
          NO(<0.9)=   0  NV(>0.1)=   0     73.00e < EF      0.00e >EF  Err=0.0D+00
 GapD=    0.117 DampG=1.000 DampE=1.000 DampFc=1.0000 IDamp=-1.
 RMSDP=1.61D-04 MaxDP=1.28D-02 DE=-3.58D-02 OVMax= 3.65D-02

 Cycle   9  Pass 1  IDiag  1:
 E= -844.970020503367     Delta-E=       -0.001526870516 Rises=F Damp=F
 DIIS: error= 4.16D-03 at cycle   9 NSaved=   9.
 NSaved= 9 IEnMin= 9 EnMin= -844.970020503367     IErMin= 9 ErrMin= 4.16D-03
 ErrMax= 4.16D-03  0.00D+00 EMaxC= 1.00D+00 BMatC= 6.36D-04 BMatP= 7.02D-04
 IDIUse=1 WtCom= 1.00D+00 WtEn= 0.00D+00
 Coeff-Com:  0.250D-02 0.196D+00-0.659D+00-0.117D+01 0.551D+01-0.299D+01
 Coeff-Com: -0.273D+01 0.189D+01 0.949D+00
 Coeff:      0.250D-02 0.196D+00-0.659D+00-0.117D+01 0.551D+01-0.299D+01
 Coeff:     -0.273D+01 0.189D+01 0.949D+00
 Gap=     0.246 Goal=   None    Shift=    0.500
 T=  480. Gap= 0.746 NK=4 IS=   75 IE=   87 IFin=   74
          NO(<0.9)=   0  NV(>0.1)=   0     74.00e < EF      0.00e >EF  Err=0.0D+00
 Gap=     0.121 Goal=   None    Shift=    0.500
 T=  480. Gap= 0.622 NK=4 IS=   74 IE=   87 IFin=   73
          NO(<0.9)=   0  NV(>0.1)=   0     73.00e < EF      0.00e >EF  Err=0.0D+00
 GapD=    0.121 DampG=1.000 DampE=1.000 DampFc=1.0000 IDamp=-1.
 RMSDP=1.14D-04 MaxDP=8.61D-03 DE=-1.53D-03 OVMax= 3.32D-02

 Cycle  10  Pass 1  IDiag  1:
 E= -844.971246816233     Delta-E=       -0.001226312866 Rises=F Damp=F
 DIIS: error= 3.76D-03 at cycle  10 NSaved=  10.
 NSaved=10 IEnMin=10 EnMin= -844.971246816233     IErMin=10 ErrMin= 3.76D-03
 ErrMax= 3.76D-03  0.00D+00 EMaxC= 1.00D+00 BMatC= 5.29D-04 BMatP= 6.36D-04
 IDIUse=1 WtCom= 1.00D+00 WtEn= 0.00D+00
 Coeff-Com: -0.430D-02 0.119D+00-0.212D+00-0.117D+01 0.310D+01-0.959D+00
 Coeff-Com: -0.193D+01 0.115D+01-0.218D+01 0.308D+01
 Coeff:     -0.430D-02 0.119D+00-0.212D+00-0.117D+01 0.310D+01-0.959D+00
 Coeff:     -0.193D+01 0.115D+01-0.218D+01 0.308D+01
 Gap=     0.253 Goal=   None    Shift=    0.500
 T=  307. Gap= 0.753 NK=4 IS=   75 IE=   87 IFin=   74
          NO(<0.9)=   0  NV(>0.1)=   0     74.00e < EF      0.00e >EF  Err=0.0D+00
 Gap=     0.126 Goal=   None    Shift=    0.500
 T=  307. Gap= 0.628 NK=4 IS=   74 IE=   87 IFin=   73
          NO(<0.9)=   0  NV(>0.1)=   0     73.00e < EF      0.00e >EF  Err=0.0D+00
 GapD=    0.126 DampG=1.000 DampE=1.000 DampFc=1.0000 IDamp=-1.
 RMSDP=1.58D-04 MaxDP=1.19D-02 DE=-1.23D-03 OVMax= 3.71D-02

 Cycle  11  Pass 1  IDiag  1:
 E= -844.972421252151     Delta-E=       -0.001174435918 Rises=F Damp=F
 DIIS: error= 3.66D-03 at cycle  11 NSaved=  11.
 NSaved=11 IEnMin=11 EnMin= -844.972421252151     IErMin=11 ErrMin= 3.66D-03
 ErrMax= 3.66D-03  0.00D+00 EMaxC= 1.00D+00 BMatC= 6.68D-04 BMatP= 5.29D-04
 IDIUse=1 WtCom= 1.00D+00 WtEn= 0.00D+00
 Coeff-Com: -0.566D-02 0.112D+00-0.216D+00-0.992D+00 0.281D+01-0.993D+00
 Coeff-Com: -0.166D+01 0.130D+01-0.269D+01 0.309D+01 0.237D+00
 Coeff:     -0.566D-02 0.112D+00-0.216D+00-0.992D+00 0.281D+01-0.993D+00
 Coeff:     -0.166D+01 0.130D+01-0.269D+01 0.309D+01 0.237D+00
 Gap=     0.253 Goal=   None    Shift=    0.500
 T=  266. Gap= 0.753 NK=4 IS=   75 IE=   87 IFin=   74
          NO(<0.9)=   0  NV(>0.1)=   0     74.00e < EF      0.00e >EF  Err=0.0D+00
 Gap=     0.129 Goal=   None    Shift=    0.500
 T=  266. Gap= 0.631 NK=4 IS=   74 IE=   87 IFin=   73
          NO(<0.9)=   0  NV(>0.1)=   0     73.00e < EF      0.00e >EF  Err=0.0D+00
 GapD=    0.129 DampG=1.000 DampE=1.000 DampFc=1.0000 IDamp=-1.
 RMSDP=8.78D-05 MaxDP=7.00D-03 DE=-1.17D-03 OVMax= 3.00D-02

 Cycle  12  Pass 1  IDiag  1:
 E= -844.973313025136     Delta-E=       -0.000891772985 Rises=F Damp=F
 DIIS: error= 3.28D-03 at cycle  12 NSaved=  12.
 NSaved=12 IEnMin=12 EnMin= -844.973313025136     IErMin=12 ErrMin= 3.28D-03
 ErrMax= 3.28D-03  0.00D+00 EMaxC= 1.00D+00 BMatC= 5.47D-04 BMatP= 5.29D-04
 IDIUse=1 WtCom= 1.00D+00 WtEn= 0.00D+00
 Coeff-Com:  0.110D+00-0.190D+00-0.341D+00 0.427D+00 0.309D+01-0.421D+01
 Coeff-Com:  0.686D+00 0.218D+01-0.174D+01-0.254D+00-0.391D+01 0.514D+01
 Coeff:      0.110D+00-0.190D+00-0.341D+00 0.427D+00 0.309D+01-0.421D+01
 Coeff:      0.686D+00 0.218D+01-0.174D+01-0.254D+00-0.391D+01 0.514D+01
 Gap=     0.259 Goal=   None    Shift=    0.500
 T=  219. Gap= 0.758 NK=4 IS=   75 IE=   85 IFin=   74
          NO(<0.9)=   0  NV(>0.1)=   0     74.00e < EF      0.00e >EF  Err=0.0D+00
 Gap=     0.129 Goal=   None    Shift=    0.500
 T=  219. Gap= 0.631 NK=4 IS=   74 IE=   87 IFin=   73
          NO(<0.9)=   0  NV(>0.1)=   0     73.00e < EF      0.00e >EF  Err=0.0D+00
 GapD=    0.129 DampG=1.000 DampE=1.000 DampFc=1.0000 IDamp=-1.
 RMSDP=1.24D-04 MaxDP=8.54D-03 DE=-8.92D-04 OVMax= 3.52D-02

 Cycle  13  Pass 1  IDiag  1:
 E= -844.974242232205     Delta-E=       -0.000929207069 Rises=F Damp=F
 DIIS: error= 3.09D-03 at cycle  13 NSaved=  13.
 NSaved=13 IEnMin=13 EnMin= -844.974242232205     IErMin=13 ErrMin= 3.09D-03
 ErrMax= 3.09D-03  0.00D+00 EMaxC= 1.00D+00 BMatC= 6.07D-04 BMatP= 5.29D-04
 IDIUse=1 WtCom= 1.00D+00 WtEn= 0.00D+00
 Coeff-Com:  0.120D+00-0.193D+00-0.487D+00 0.678D+00 0.353D+01-0.489D+01
 Coeff-Com:  0.630D+00 0.235D+01 0.522D+00-0.216D+01-0.654D+01 0.599D+01
 Coeff-Com:  0.145D+01
 Coeff:      0.120D+00-0.193D+00-0.487D+00 0.678D+00 0.353D+01-0.489D+01
 Coeff:      0.630D+00 0.235D+01 0.522D+00-0.216D+01-0.654D+01 0.599D+01
 Coeff:      0.145D+01
 Gap=     0.261 Goal=   None    Shift=    0.500
 T=  180. Gap= 0.761 NK=4 IS=   75 IE=   86 IFin=   74
          NO(<0.9)=   0  NV(>0.1)=   0     74.00e < EF      0.00e >EF  Err=0.0D+00
 Gap=     0.131 Goal=   None    Shift=    0.500
 T=  180. Gap= 0.633 NK=4 IS=   74 IE=   87 IFin=   73
          NO(<0.9)=   0  NV(>0.1)=   0     73.00e < EF      0.00e >EF  Err=0.0D+00
 GapD=    0.131 DampG=1.000 DampE=1.000 DampFc=1.0000 IDamp=-1.
 RMSDP=1.23D-04 MaxDP=8.53D-03 DE=-9.29D-04 OVMax= 3.64D-02

 Cycle  14  Pass 1  IDiag  1:
 E= -844.975115295167     Delta-E=       -0.000873062962 Rises=F Damp=F
 DIIS: error= 2.89D-03 at cycle  14 NSaved=  14.
 NSaved=14 IEnMin=14 EnMin= -844.975115295167     IErMin=14 ErrMin= 2.89D-03
 ErrMax= 2.89D-03  0.00D+00 EMaxC= 1.00D+00 BMatC= 6.22D-04 BMatP= 5.29D-04
 IDIUse=1 WtCom= 1.00D+00 WtEn= 0.00D+00
 Coeff-Com:  0.683D-01-0.166D-01-0.560D+00-0.319D-02 0.343D+01-0.287D+01
 Coeff-Com: -0.112D+01 0.162D+01 0.203D+01-0.124D+01-0.646D+01 0.447D+01
 Coeff-Com: -0.715D+00 0.238D+01
 Coeff:      0.683D-01-0.166D-01-0.560D+00-0.319D-02 0.343D+01-0.287D+01
 Coeff:     -0.112D+01 0.162D+01 0.203D+01-0.124D+01-0.646D+01 0.447D+01
 Coeff:     -0.715D+00 0.238D+01
 Gap=     0.263 Goal=   None    Shift=    0.500
 T=  132. Gap= 0.762 NK=4 IS=   75 IE=   86 IFin=   74
          NO(<0.9)=   0  NV(>0.1)=   0     74.00e < EF      0.00e >EF  Err=0.0D+00
 Gap=     0.134 Goal=   None    Shift=    0.500
 T=  132. Gap= 0.636 NK=4 IS=   74 IE=   86 IFin=   73
          NO(<0.9)=   0  NV(>0.1)=   0     73.00e < EF      0.00e >EF  Err=0.0D+00
 GapD=    0.134 DampG=1.000 DampE=1.000 DampFc=1.0000 IDamp=-1.
 RMSDP=1.27D-04 MaxDP=7.98D-03 DE=-8.73D-04 OVMax= 3.64D-02

 Cycle  15  Pass 1  IDiag  1:
 E= -844.975883641776     Delta-E=       -0.000768346609 Rises=F Damp=F
 DIIS: error= 2.68D-03 at cycle  15 NSaved=  15.
 NSaved=15 IEnMin=15 EnMin= -844.975883641776     IErMin=15 ErrMin= 2.68D-03
 ErrMax= 2.68D-03  0.00D+00 EMaxC= 1.00D+00 BMatC= 6.74D-04 BMatP= 5.29D-04
 IDIUse=1 WtCom= 1.00D+00 WtEn= 0.00D+00
 Coeff-Com:  0.609D-01-0.119D-01-0.418D+00-0.185D+00 0.302D+01-0.231D+01
 Coeff-Com: -0.117D+01 0.150D+01 0.105D+01 0.341D-01-0.557D+01 0.395D+01
 Coeff-Com: -0.626D+00-0.234D+00 0.192D+01
 Coeff:      0.609D-01-0.119D-01-0.418D+00-0.185D+00 0.302D+01-0.231D+01
 Coeff:     -0.117D+01 0.150D+01 0.105D+01 0.341D-01-0.557D+01 0.395D+01
 Coeff:     -0.626D+00-0.234D+00 0.192D+01
 Gap=     0.263 Goal=   None    Shift=    0.500
 T=   92. Gap= 0.763 NK=4 IS=   75 IE=   87 IFin=   74
          NO(<0.9)=   0  NV(>0.1)=   0     74.00e < EF      0.00e >EF  Err=0.0D+00
 Gap=     0.137 Goal=   None    Shift=    0.500
 T=   92. Gap= 0.638 NK=4 IS=   74 IE=   86 IFin=   73
          NO(<0.9)=   0  NV(>0.1)=   0     73.00e < EF      0.00e >EF  Err=0.0D+00
 GapD=    0.137 DampG=1.000 DampE=1.000 DampFc=1.0000 IDamp=-1.
 RMSDP=8.93D-05 MaxDP=5.43D-03 DE=-7.68D-04 OVMax= 3.06D-02

 Cycle  16  Pass 1  IDiag  1:
 E= -844.976495499738     Delta-E=       -0.000611857962 Rises=F Damp=F
 DIIS: error= 2.39D-03 at cycle  16 NSaved=  16.
 NSaved=16 IEnMin=16 EnMin= -844.976495499738     IErMin=16 ErrMin= 2.39D-03
 ErrMax= 2.39D-03  0.00D+00 EMaxC= 1.00D+00 BMatC= 5.51D-04 BMatP= 5.29D-04
 IDIUse=1 WtCom= 1.00D+00 WtEn= 0.00D+00
 Coeff-Com:  0.677D-01-0.939D-01-0.100D+00-0.373D+00 0.255D+01-0.221D+01
 Coeff-Com: -0.477D+00 0.118D+01-0.279D+00 0.448D+00-0.222D+01 0.212D+01
 Coeff-Com:  0.959D+00-0.355D+01-0.125D+01 0.423D+01
 Coeff:      0.677D-01-0.939D-01-0.100D+00-0.373D+00 0.255D+01-0.221D+01
 Coeff:     -0.477D+00 0.118D+01-0.279D+00 0.448D+00-0.222D+01 0.212D+01
 Coeff:      0.959D+00-0.355D+01-0.125D+01 0.423D+01
 Gap=     0.264 Goal=   None    Shift=    0.500
 T=   41. Gap= 0.763 NK=4 IS=   75 IE=   86 IFin=   74
          NO(<0.9)=   0  NV(>0.1)=   0     74.00e < EF      0.00e >EF  Err=0.0D+00
 Gap=     0.136 Goal=   None    Shift=    0.500
 T=   41. Gap= 0.638 NK=4 IS=   74 IE=   85 IFin=   73
          NO(<0.9)=   0  NV(>0.1)=   0     73.00e < EF      0.00e >EF  Err=0.0D+00
 GapD=    0.136 DampG=1.000 DampE=1.000 DampFc=1.0000 IDamp=-1.
 RMSDP=1.15D-04 MaxDP=6.57D-03 DE=-6.12D-04 OVMax= 3.23D-02

 Cycle  17  Pass 1  IDiag  1:
 E= -844.977025665616     Delta-E=       -0.000530165878 Rises=F Damp=F
 DIIS: error= 2.21D-03 at cycle  17 NSaved=  17.
 NSaved=17 IEnMin=17 EnMin= -844.977025665616     IErMin=17 ErrMin= 2.21D-03
 ErrMax= 2.21D-03  0.00D+00 EMaxC= 1.00D+00 BMatC= 6.21D-04 BMatP= 5.29D-04
 IDIUse=1 WtCom= 1.00D+00 WtEn= 0.00D+00
 Coeff-Com:  0.685D-01-0.119D+00-0.111D+00-0.861D-01 0.219D+01-0.230D+01
 Coeff-Com: -0.164D+00 0.160D+01-0.139D+01 0.370D+00-0.143D+01 0.224D+01
 Coeff-Com:  0.785D+00-0.207D+01-0.342D+01 0.331D+01 0.151D+01
 Coeff:      0.685D-01-0.119D+00-0.111D+00-0.861D-01 0.219D+01-0.230D+01
 Coeff:     -0.164D+00 0.160D+01-0.139D+01 0.370D+00-0.143D+01 0.224D+01
 Coeff:      0.785D+00-0.207D+01-0.342D+01 0.331D+01 0.151D+01
 Gap=     0.263 Goal=   None    Shift=    0.500
 Gap=     0.138 Goal=   None    Shift=    0.500
 GapD=    0.138 DampG=1.000 DampE=1.000 DampFc=1.0000 IDamp=-1.
 RMSDP=7.82D-05 MaxDP=4.22D-03 DE=-5.30D-04 OVMax= 2.74D-02

 Cycle  18  Pass 1  IDiag  1:
 E= -844.977461659463     Delta-E=       -0.000435993848 Rises=F Damp=F
 DIIS: error= 1.94D-03 at cycle  18 NSaved=  18.
 NSaved=18 IEnMin=18 EnMin= -844.977461659463     IErMin=18 ErrMin= 1.94D-03
 ErrMax= 1.94D-03  0.00D+00 EMaxC= 1.00D+00 BMatC= 5.03D-04 BMatP= 5.29D-04
 IDIUse=1 WtCom= 1.00D+00 WtEn= 0.00D+00
 Coeff-Com:  0.467D-01-0.661D-01-0.157D+00 0.508D-01 0.154D+01-0.163D+01
 Coeff-Com: -0.211D+00 0.154D+01-0.124D+01-0.280D+00-0.893D+00 0.188D+01
 Coeff-Com: -0.754D-01 0.123D+01-0.386D+01 0.979D+00-0.121D+01 0.334D+01
 Coeff:      0.467D-01-0.661D-01-0.157D+00 0.508D-01 0.154D+01-0.163D+01
 Coeff:     -0.211D+00 0.154D+01-0.124D+01-0.280D+00-0.893D+00 0.188D+01
 Coeff:     -0.754D-01 0.123D+01-0.386D+01 0.979D+00-0.121D+01 0.334D+01
 Gap=     0.263 Goal=   None    Shift=    0.500
 Gap=     0.138 Goal=   None    Shift=    0.500
 GapD=    0.138 DampG=1.000 DampE=1.000 DampFc=1.0000 IDamp=-1.
 RMSDP=9.09D-05 MaxDP=5.76D-03 DE=-4.36D-04 OVMax= 2.76D-02

 Cycle  19  Pass 1  IDiag  1:
 E= -844.977813230248     Delta-E=       -0.000351570785 Rises=F Damp=F
 DIIS: error= 1.76D-03 at cycle  19 NSaved=  19.
 NSaved=19 IEnMin=19 EnMin= -844.977813230248     IErMin=19 ErrMin= 1.76D-03
 ErrMax= 1.76D-03  0.00D+00 EMaxC= 1.00D+00 BMatC= 5.15D-04 BMatP= 5.03D-04
 IDIUse=1 WtCom= 1.00D+00 WtEn= 0.00D+00
 Coeff-Com:  0.340D-01-0.228D-01-0.131D+00-0.129D+00 0.120D+01-0.857D+00
 Coeff-Com: -0.527D+00 0.104D+01-0.561D+00 0.133D+00-0.162D+01 0.182D+01
 Coeff-Com: -0.573D+00 0.869D+00-0.123D+00 0.202D+00-0.468D+01 0.301D+01
 Coeff-Com:  0.191D+01
 Coeff:      0.340D-01-0.228D-01-0.131D+00-0.129D+00 0.120D+01-0.857D+00
 Coeff:     -0.527D+00 0.104D+01-0.561D+00 0.133D+00-0.162D+01 0.182D+01
 Coeff:     -0.573D+00 0.869D+00-0.123D+00 0.202D+00-0.468D+01 0.301D+01
 Coeff:      0.191D+01
 Gap=     0.263 Goal=   None    Shift=    0.500
 Gap=     0.139 Goal=   None    Shift=    0.500
 GapD=    0.139 DampG=1.000 DampE=1.000 DampFc=1.0000 IDamp=-1.
 RMSDP=7.12D-05 MaxDP=4.19D-03 DE=-3.52D-04 OVMax= 2.42D-02

 Cycle  20  Pass 1  IDiag  1:
 E= -844.978095961928     Delta-E=       -0.000282731680 Rises=F Damp=F
 DIIS: error= 1.56D-03 at cycle  20 NSaved=  20.
 NSaved=20 IEnMin=20 EnMin= -844.978095961928     IErMin=20 ErrMin= 1.56D-03
 ErrMax= 1.56D-03  0.00D+00 EMaxC= 1.00D+00 BMatC= 4.55D-04 BMatP= 5.03D-04
 IDIUse=1 WtCom= 1.00D+00 WtEn= 0.00D+00
 Coeff-Com:  0.294D-01-0.128D-01-0.639D-01-0.310D+00 0.112D+01-0.561D+00
 Coeff-Com: -0.608D+00 0.757D+00-0.343D+00 0.471D+00-0.172D+01 0.160D+01
 Coeff-Com: -0.387D+00-0.397D+00 0.139D+01 0.412D+00-0.423D+01 0.232D+01
 Coeff-Com: -0.852D+00 0.238D+01
 Coeff:      0.294D-01-0.128D-01-0.639D-01-0.310D+00 0.112D+01-0.561D+00
 Coeff:     -0.608D+00 0.757D+00-0.343D+00 0.471D+00-0.172D+01 0.160D+01
 Coeff:     -0.387D+00-0.397D+00 0.139D+01 0.412D+00-0.423D+01 0.232D+01
 Coeff:     -0.852D+00 0.238D+01
 Gap=     0.263 Goal=   None    Shift=    0.500
 Gap=     0.139 Goal=   None    Shift=    0.500
 GapD=    0.139 DampG=1.000 DampE=1.000 DampFc=1.0000 IDamp=-1.
 RMSDP=5.57D-05 MaxDP=2.91D-03 DE=-2.83D-04 OVMax= 2.07D-02

 Cycle  21  Pass 1  IDiag  1:
 E= -844.978321584026     Delta-E=       -0.000225622097 Rises=F Damp=F
 DIIS: error= 1.35D-03 at cycle  21 NSaved=  20.
 NSaved=20 IEnMin=20 EnMin= -844.978321584026     IErMin=20 ErrMin= 1.35D-03
 ErrMax= 1.35D-03  0.00D+00 EMaxC= 1.00D+00 BMatC= 3.55D-04 BMatP= 4.55D-04
 IDIUse=1 WtCom= 1.00D+00 WtEn= 0.00D+00
 Coeff-Com: -0.345D-02 0.180D+00-0.427D+00 0.403D+00-0.143D+00-0.114D+00
 Coeff-Com:  0.501D+00-0.102D+01 0.625D+00 0.162D+00 0.373D+00 0.497D+00
 Coeff-Com: -0.188D+01-0.947D+00 0.129D+01 0.321D+01-0.193D-01-0.639D+01
 Coeff-Com: -0.471D+00 0.518D+01
 Coeff:     -0.345D-02 0.180D+00-0.427D+00 0.403D+00-0.143D+00-0.114D+00
 Coeff:      0.501D+00-0.102D+01 0.625D+00 0.162D+00 0.373D+00 0.497D+00
 Coeff:     -0.188D+01-0.947D+00 0.129D+01 0.321D+01-0.193D-01-0.639D+01
 Coeff:     -0.471D+00 0.518D+01
 Gap=     0.262 Goal=   None    Shift=    0.500
 Gap=     0.137 Goal=   None    Shift=    0.500
 GapD=    0.137 DampG=1.000 DampE=1.000 DampFc=1.0000 IDamp=-1.
 RMSDP=7.03D-05 MaxDP=3.16D-03 DE=-2.26D-04 OVMax= 2.06D-02

 Cycle  22  Pass 1  IDiag  1:
 E= -844.978491683512     Delta-E=       -0.000170099487 Rises=F Damp=F
 DIIS: error= 1.21D-03 at cycle  22 NSaved=  20.
 NSaved=20 IEnMin=20 EnMin= -844.978491683512     IErMin=20 ErrMin= 1.21D-03
 ErrMax= 1.21D-03  0.00D+00 EMaxC= 1.00D+00 BMatC= 3.63D-04 BMatP= 3.55D-04
 IDIUse=1 WtCom= 1.00D+00 WtEn= 0.00D+00
 Coeff-Com:  0.139D+00-0.299D+00 0.236D+00-0.734D-01-0.915D-01 0.725D+00
 Coeff-Com: -0.163D+01 0.710D+00 0.732D+00 0.362D+00 0.208D+00-0.157D+01
 Coeff-Com: -0.174D+01 0.158D+01 0.328D+01 0.799D-01-0.501D+01-0.200D+01
 Coeff-Com:  0.429D+01 0.108D+01
 Coeff:      0.139D+00-0.299D+00 0.236D+00-0.734D-01-0.915D-01 0.725D+00
 Coeff:     -0.163D+01 0.710D+00 0.732D+00 0.362D+00 0.208D+00-0.157D+01
 Coeff:     -0.174D+01 0.158D+01 0.328D+01 0.799D-01-0.501D+01-0.200D+01
 Coeff:      0.429D+01 0.108D+01
 Gap=     0.262 Goal=   None    Shift=    0.500
 Gap=     0.138 Goal=   None    Shift=    0.500
 GapD=    0.138 DampG=1.000 DampE=1.000 DampFc=1.0000 IDamp=-1.
 RMSDP=4.57D-05 MaxDP=1.83D-03 DE=-1.70D-04 OVMax= 1.68D-02

 Cycle  23  Pass 1  IDiag  1:
 E= -844.978631455541     Delta-E=       -0.000139772028 Rises=F Damp=F
 DIIS: error= 1.04D-03 at cycle  23 NSaved=  20.
 NSaved=20 IEnMin=20 EnMin= -844.978631455541     IErMin=20 ErrMin= 1.04D-03
 ErrMax= 1.04D-03  0.00D+00 EMaxC= 1.00D+00 BMatC= 2.82D-04 BMatP= 3.55D-04
 IDIUse=1 WtCom= 1.00D+00 WtEn= 0.00D+00
 Coeff-Com:  0.956D-01-0.879D-01-0.611D-01 0.104D-01 0.602D+00-0.140D+01
 Coeff-Com:  0.419D+00 0.777D+00 0.265D+00-0.300D+00 0.337D-01-0.162D+01
 Coeff-Com:  0.848D+00 0.156D+00 0.761D+00 0.124D+01-0.320D+01 0.128D+01
 Coeff-Com: -0.334D+01 0.451D+01
 Coeff:      0.956D-01-0.879D-01-0.611D-01 0.104D-01 0.602D+00-0.140D+01
 Coeff:      0.419D+00 0.777D+00 0.265D+00-0.300D+00 0.337D-01-0.162D+01
 Coeff:      0.848D+00 0.156D+00 0.761D+00 0.124D+01-0.320D+01 0.128D+01
 Coeff:     -0.334D+01 0.451D+01
 Gap=     0.261 Goal=   None    Shift=    0.500
 Gap=     0.138 Goal=   None    Shift=    0.500
 GapD=    0.138 DampG=1.000 DampE=1.000 DampFc=1.0000 IDamp=-1.
 RMSDP=4.58D-05 MaxDP=1.95D-03 DE=-1.40D-04 OVMax= 1.53D-02

 Cycle  24  Pass 1  IDiag  1:
 E= -844.978727099130     Delta-E=       -0.000095643589 Rises=F Damp=F
 DIIS: error= 9.16D-04 at cycle  24 NSaved=  20.
 NSaved=20 IEnMin=20 EnMin= -844.978727099130     IErMin=20 ErrMin= 9.16D-04
 ErrMax= 9.16D-04  0.00D+00 EMaxC= 1.00D+00 BMatC= 2.60D-04 BMatP= 2.82D-04
 IDIUse=1 WtCom= 1.00D+00 WtEn= 0.00D+00
 Coeff-Com:  0.550D-01-0.225D-01-0.107D+00 0.356D+00-0.819D+00 0.427D+00
 Coeff-Com:  0.121D+00 0.368D+00-0.275D+00 0.245D+00-0.585D+00 0.104D+00
 Coeff-Com: -0.123D+01 0.127D+01 0.181D+01-0.152D+01 0.549D+00-0.515D+01
 Coeff-Com:  0.404D+01 0.137D+01
 Coeff:      0.550D-01-0.225D-01-0.107D+00 0.356D+00-0.819D+00 0.427D+00
 Coeff:      0.121D+00 0.368D+00-0.275D+00 0.245D+00-0.585D+00 0.104D+00
 Coeff:     -0.123D+01 0.127D+01 0.181D+01-0.152D+01 0.549D+00-0.515D+01
 Coeff:      0.404D+01 0.137D+01
 Gap=     0.261 Goal=   None    Shift=    0.500
 Gap=     0.139 Goal=   None    Shift=    0.500
 RMSDP=3.30D-05 MaxDP=1.47D-03 DE=-9.56D-05 OVMax= 1.25D-02

 Cycle  25  Pass 1  IDiag  1:
 E= -844.978803837661     Delta-E=       -0.000076738531 Rises=F Damp=F
 DIIS: error= 7.78D-04 at cycle  25 NSaved=  20.
 NSaved=20 IEnMin=20 EnMin= -844.978803837661     IErMin=20 ErrMin= 7.78D-04
 ErrMax= 7.78D-04  0.00D+00 EMaxC= 1.00D+00 BMatC= 2.00D-04 BMatP= 2.60D-04
 IDIUse=1 WtCom= 1.00D+00 WtEn= 0.00D+00
 Coeff-Com:  0.710D-01-0.149D+00 0.286D+00-0.673D+00 0.517D+00-0.159D+00
 Coeff-Com:  0.339D+00-0.252D+00 0.276D+00 0.213D+00-0.713D+00-0.835D+00
 Coeff-Com:  0.121D+01 0.356D+00-0.425D+00 0.615D+00-0.243D+01 0.180D+01
 Coeff-Com: -0.238D+01 0.334D+01
 Coeff:      0.710D-01-0.149D+00 0.286D+00-0.673D+00 0.517D+00-0.159D+00
 Coeff:      0.339D+00-0.252D+00 0.276D+00 0.213D+00-0.713D+00-0.835D+00
 Coeff:      0.121D+01 0.356D+00-0.425D+00 0.615D+00-0.243D+01 0.180D+01
 Coeff:     -0.238D+01 0.334D+01
 Gap=     0.261 Goal=   None    Shift=    0.500
 Gap=     0.138 Goal=   None    Shift=    0.500
 RMSDP=2.57D-05 MaxDP=1.16D-03 DE=-7.67D-05 OVMax= 1.04D-02

 Cycle  26  Pass 1  IDiag  1:
 E= -844.978860687611     Delta-E=       -0.000056849950 Rises=F Damp=F
 DIIS: error= 6.48D-04 at cycle  26 NSaved=  20.
 NSaved=20 IEnMin=20 EnMin= -844.978860687611     IErMin=20 ErrMin= 6.48D-04
 ErrMax= 6.48D-04  0.00D+00 EMaxC= 1.00D+00 BMatC= 1.44D-04 BMatP= 2.00D-04
 IDIUse=1 WtCom= 1.00D+00 WtEn= 0.00D+00
 Coeff-Com: -0.406D-02 0.226D+00-0.774D+00 0.425D+00 0.301D+00 0.903D-01
 Coeff-Com:  0.160D-01-0.298D+00-0.169D+00-0.173D+00 0.419D+00 0.555D+00
 Coeff-Com: -0.102D+01-0.450D+00 0.111D+01 0.223D+00 0.283D+00-0.318D+01
 Coeff-Com:  0.877D+00 0.255D+01
 Coeff:     -0.406D-02 0.226D+00-0.774D+00 0.425D+00 0.301D+00 0.903D-01
 Coeff:      0.160D-01-0.298D+00-0.169D+00-0.173D+00 0.419D+00 0.555D+00
 Coeff:     -0.102D+01-0.450D+00 0.111D+01 0.223D+00 0.283D+00-0.318D+01
 Coeff:      0.877D+00 0.255D+01
 Gap=     0.261 Goal=   None    Shift=    0.500
 Gap=     0.138 Goal=   None    Shift=    0.500
 RMSDP=2.19D-05 MaxDP=1.03D-03 DE=-5.68D-05 OVMax= 8.87D-03

 Cycle  27  Pass 1  IDiag  1:
 E= -844.978898759392     Delta-E=       -0.000038071781 Rises=F Damp=F
 DIIS: error= 5.41D-04 at cycle  27 NSaved=  20.
 NSaved=20 IEnMin=20 EnMin= -844.978898759392     IErMin=20 ErrMin= 5.41D-04
 ErrMax= 5.41D-04  0.00D+00 EMaxC= 1.00D+00 BMatC= 1.06D-04 BMatP= 1.44D-04
 IDIUse=1 WtCom= 1.00D+00 WtEn= 0.00D+00
 Coeff-Com:  0.117D+00-0.529D+00 0.186D+00 0.585D+00-0.481D-01-0.134D+00
 Coeff-Com: -0.102D+00-0.106D+01 0.901D+00 0.269D+00 0.587D-01 0.411D+00
 Coeff-Com: -0.164D+01 0.109D+01-0.105D+01 0.155D+01 0.141D+01-0.391D+01
 Coeff-Com: -0.623D+00 0.352D+01
 Coeff:      0.117D+00-0.529D+00 0.186D+00 0.585D+00-0.481D-01-0.134D+00
 Coeff:     -0.102D+00-0.106D+01 0.901D+00 0.269D+00 0.587D-01 0.411D+00
 Coeff:     -0.164D+01 0.109D+01-0.105D+01 0.155D+01 0.141D+01-0.391D+01
 Coeff:     -0.623D+00 0.352D+01
 Gap=     0.261 Goal=   None    Shift=    0.500
 Gap=     0.139 Goal=   None    Shift=    0.500
 RMSDP=1.76D-05 MaxDP=8.36D-04 DE=-3.81D-05 OVMax= 7.21D-03

 Cycle  28  Pass 1  IDiag  1:
 E= -844.978922802701     Delta-E=       -0.000024043310 Rises=F Damp=F
 DIIS: error= 4.54D-04 at cycle  28 NSaved=  20.
 NSaved=20 IEnMin=20 EnMin= -844.978922802701     IErMin=20 ErrMin= 4.54D-04
 ErrMax= 4.54D-04  0.00D+00 EMaxC= 1.00D+00 BMatC= 8.23D-05 BMatP= 1.06D-04
 IDIUse=1 WtCom= 1.00D+00 WtEn= 0.00D+00
 Coeff-Com: -0.208D+00 0.236D+00 0.643D-01 0.990D-01-0.289D+00 0.199D+00
 Coeff-Com: -0.511D+00 0.654D+00-0.664D+00 0.166D+00 0.146D+01-0.139D+01
 Coeff-Com:  0.376D+00-0.235D+01 0.217D+01 0.306D+01-0.364D+01-0.248D+01
 Coeff-Com:  0.222D+01 0.182D+01
 Coeff:     -0.208D+00 0.236D+00 0.643D-01 0.990D-01-0.289D+00 0.199D+00
 Coeff:     -0.511D+00 0.654D+00-0.664D+00 0.166D+00 0.146D+01-0.139D+01
 Coeff:      0.376D+00-0.235D+01 0.217D+01 0.306D+01-0.364D+01-0.248D+01
 Coeff:      0.222D+01 0.182D+01
 Gap=     0.261 Goal=   None    Shift=    0.500
 Gap=     0.138 Goal=   None    Shift=    0.500
 RMSDP=1.23D-05 MaxDP=5.22D-04 DE=-2.40D-05 OVMax= 5.70D-03

 Cycle  29  Pass 1  IDiag  1:
 E= -844.978941877368     Delta-E=       -0.000019074667 Rises=F Damp=F
 DIIS: error= 3.68D-04 at cycle  29 NSaved=  20.
 NSaved=20 IEnMin=20 EnMin= -844.978941877368     IErMin=20 ErrMin= 3.68D-04
 ErrMax= 3.68D-04  0.00D+00 EMaxC= 1.00D+00 BMatC= 5.52D-05 BMatP= 8.23D-05
 IDIUse=1 WtCom= 1.00D+00 WtEn= 0.00D+00
 Coeff-Com:  0.616D-01-0.275D+00 0.281D+00-0.239D+00 0.463D+00-0.239D+00
 Coeff-Com:  0.434D-01-0.100D+01 0.620D+00 0.148D+01-0.673D+00-0.339D+00
 Coeff-Com: -0.235D+01 0.190D+01 0.200D+01-0.633D+00-0.243D+01 0.121D+00
 Coeff-Com: -0.697D+00 0.290D+01
 Coeff:      0.616D-01-0.275D+00 0.281D+00-0.239D+00 0.463D+00-0.239D+00
 Coeff:      0.434D-01-0.100D+01 0.620D+00 0.148D+01-0.673D+00-0.339D+00
 Coeff:     -0.235D+01 0.190D+01 0.200D+01-0.633D+00-0.243D+01 0.121D+00
 Coeff:     -0.697D+00 0.290D+01
 Gap=     0.261 Goal=   None    Shift=    0.500
 Gap=     0.138 Goal=   None    Shift=    0.500
 RMSDP=9.49D-06 MaxDP=4.10D-04 DE=-1.91D-05 OVMax= 4.45D-03

 Cycle  30  Pass 1  IDiag  1:
 E= -844.978955580373     Delta-E=       -0.000013703005 Rises=F Damp=F
 DIIS: error= 2.91D-04 at cycle  30 NSaved=  20.
 NSaved=20 IEnMin=20 EnMin= -844.978955580373     IErMin=20 ErrMin= 2.91D-04
 ErrMax= 2.91D-04  0.00D+00 EMaxC= 1.00D+00 BMatC= 3.31D-05 BMatP= 5.52D-05
 IDIUse=1 WtCom= 1.00D+00 WtEn= 0.00D+00
 Coeff-Com: -0.142D+00 0.164D+00-0.636D-01 0.140D+00 0.992D-01-0.184D+00
 Coeff-Com: -0.652D+00 0.537D+00 0.613D+00-0.166D+00-0.209D+00-0.978D+00
 Coeff-Com:  0.796D+00 0.744D-01 0.556D+00-0.439D+00-0.180D+00-0.162D+01
 Coeff-Com:  0.365D+00 0.229D+01
 Coeff:     -0.142D+00 0.164D+00-0.636D-01 0.140D+00 0.992D-01-0.184D+00
 Coeff:     -0.652D+00 0.537D+00 0.613D+00-0.166D+00-0.209D+00-0.978D+00
 Coeff:      0.796D+00 0.744D-01 0.556D+00-0.439D+00-0.180D+00-0.162D+01
 Coeff:      0.365D+00 0.229D+01
 Gap=     0.261 Goal=   None    Shift=    0.500
 Gap=     0.138 Goal=   None    Shift=    0.500
 RMSDP=6.77D-06 MaxDP=3.18D-04 DE=-1.37D-05 OVMax= 3.33D-03

 Cycle  31  Pass 1  IDiag  1:
 E= -844.978964169747     Delta-E=       -0.000008589374 Rises=F Damp=F
 DIIS: error= 2.32D-04 at cycle  31 NSaved=  20.
 NSaved=20 IEnMin=20 EnMin= -844.978964169747     IErMin=20 ErrMin= 2.32D-04
 ErrMax= 2.32D-04  0.00D+00 EMaxC= 1.00D+00 BMatC= 1.97D-05 BMatP= 3.31D-05
 IDIUse=1 WtCom= 1.00D+00 WtEn= 0.00D+00
 Coeff-Com: -0.152D-01 0.256D-01-0.604D-01 0.150D+00-0.621D-01-0.181D+00
 Coeff-Com:  0.794D-01 0.123D+00-0.179D+00 0.174D+00-0.550D-01 0.411D-01
 Coeff-Com:  0.205D-01-0.538D+00 0.359D+00 0.645D+00-0.256D+00-0.156D+01
 Coeff-Com: -0.175D+00 0.246D+01
 Coeff:     -0.152D-01 0.256D-01-0.604D-01 0.150D+00-0.621D-01-0.181D+00
 Coeff:      0.794D-01 0.123D+00-0.179D+00 0.174D+00-0.550D-01 0.411D-01
 Coeff:      0.205D-01-0.538D+00 0.359D+00 0.645D+00-0.256D+00-0.156D+01
 Coeff:     -0.175D+00 0.246D+01
 Gap=     0.261 Goal=   None    Shift=    0.500
 Gap=     0.138 Goal=   None    Shift=    0.500
 RMSDP=6.45D-06 MaxDP=2.75D-04 DE=-8.59D-06 OVMax= 2.88D-03

 Cycle  32  Pass 1  IDiag  1:
 E= -844.978969398140     Delta-E=       -0.000005228393 Rises=F Damp=F
 DIIS: error= 1.85D-04 at cycle  32 NSaved=  20.
 NSaved=20 IEnMin=20 EnMin= -844.978969398140     IErMin=20 ErrMin= 1.85D-04
 ErrMax= 1.85D-04  0.00D+00 EMaxC= 1.00D+00 BMatC= 1.28D-05 BMatP= 1.97D-05
 IDIUse=1 WtCom= 1.00D+00 WtEn= 0.00D+00
 Coeff-Com: -0.411D-01 0.326D-01 0.209D-01 0.125D+00-0.211D+00-0.131D-01
 Coeff-Com:  0.144D+00-0.210D+00 0.227D+00-0.265D+00 0.156D+00 0.717D+00
 Coeff-Com: -0.127D+01-0.929D-01 0.101D+01 0.553D+00-0.901D+00-0.175D+01
 Coeff-Com:  0.880D+00 0.189D+01
 Coeff:     -0.411D-01 0.326D-01 0.209D-01 0.125D+00-0.211D+00-0.131D-01
 Coeff:      0.144D+00-0.210D+00 0.227D+00-0.265D+00 0.156D+00 0.717D+00
 Coeff:     -0.127D+01-0.929D-01 0.101D+01 0.553D+00-0.901D+00-0.175D+01
 Coeff:      0.880D+00 0.189D+01
 Gap=     0.261 Goal=   None    Shift=    0.500
 Gap=     0.138 Goal=   None    Shift=    0.500
 RMSDP=4.91D-06 MaxDP=2.22D-04 DE=-5.23D-06 OVMax= 2.24D-03

 >>>>>>>>>> Convergence criterion not met.
 SCF Done:  E(ULC-wHPBE) =  -844.978969398     A.U. after   33 cycles
            NFock= 32  Conv=0.49D-05     -V/T= 2.0052
 <Sx>= 0.0000 <Sy>= 0.0000 <Sz>= 0.5000 <S**2>= 0.7779 S= 0.5139
 <L.S>= 0.000000000000E+00
 KE= 8.406056140706D+02 PE=-4.898870594777D+03 EE= 1.725825806468D+03
 Annihilation of the first spin contaminant:
 S**2 before annihilation     0.7779,   after     0.7505
 Leave Link  502 at Thu Jan 21 04:07:49 2021, MaxMem=  4026531840 cpu:            9055.1 elap:            1134.8
 (Enter /opt/ohpc/pub/libs/gaussian/g16-A.03/sandybridge/g16/l508.exe)
 Integral symmetry usage will be decided dynamically.
 Tight linear equation convergence will be used.
 ULC-wHPBE wavefunction.
 Quadratic Convergence SCF Method.
 Line search only if initial step raises energy.
 FoFJK:  IHMeth= 1 ICntrl=       0 DoSepK=T KAlg= 0 I1Cent=           0 FoldK=F
 IRaf=         1 NMat=       1 IRICut=       1 DoRegI=T DoRafI=F ISym2E= 1 IDoP0=0 IntGTp=1.
 FoFCou: FMM=F IPFlag=           0 FMFlag=      100000 FMFlg1=           0
         NFxFlg=           0 DoJE=T BraDBF=F KetDBF=F FulRan=T
         wScrn=  0.000000 ICntrl=       500 IOpCl=  0 I1Cent=           0 NGrid=           0
         NMat0=    1 NMatS0=      1 NMatT0=    0 NMatD0=    1 NMtDS0=    0 NMtDT0=    0
 Petite list used in FoFCou.
 Iteration   1 EE= -844.978972773808                                    Grad=2.028D-03 Max rot=    0.0386 deg.
 QCNR:  CnvC1=2.03D-08 CnvC2=2.03D-07
 LinEq1:  Iter=  0 NonCon=     1 RMS=2.21D-05 Max=4.89D-03 NDo=     1
 AX will form     1 AO Fock derivatives at one time.
 LinEq1:  Iter=  1 NonCon=     1 RMS=9.90D-06 Max=7.78D-04 NDo=     1
 LinEq1:  Iter=  2 NonCon=     1 RMS=5.18D-06 Max=3.15D-04 NDo=     1
 LinEq1:  Iter=  3 NonCon=     1 RMS=4.49D-06 Max=4.53D-04 NDo=     1
 LinEq1:  Iter=  4 NonCon=     1 RMS=2.12D-06 Max=1.24D-04 NDo=     1
 LinEq1:  Iter=  5 NonCon=     1 RMS=1.59D-06 Max=1.72D-04 NDo=     1
 LinEq1:  Iter=  6 NonCon=     1 RMS=7.22D-07 Max=5.94D-05 NDo=     1
 LinEq1:  Iter=  7 NonCon=     1 RMS=5.28D-07 Max=3.19D-05 NDo=     1
 LinEq1:  Iter=  8 NonCon=     1 RMS=2.67D-07 Max=2.07D-05 NDo=     1
 LinEq1:  Iter=  9 NonCon=     1 RMS=1.97D-07 Max=1.56D-05 NDo=     1
 LinEq1:  Iter= 10 NonCon=     1 RMS=1.42D-07 Max=1.43D-05 NDo=     1
 LinEq1:  Iter= 11 NonCon=     1 RMS=7.57D-08 Max=4.77D-06 NDo=     1
 LinEq1:  Iter= 12 NonCon=     1 RMS=4.41D-08 Max=2.54D-06 NDo=     1
 LinEq1:  Iter= 13 NonCon=     1 RMS=1.81D-08 Max=1.18D-06 NDo=     1
 LinEq1:  Iter= 14 NonCon=     1 RMS=1.10D-08 Max=4.76D-07 NDo=     1
 LinEq1:  Iter= 15 NonCon=     1 RMS=6.01D-09 Max=4.32D-07 NDo=     1
 LinEq1:  Iter= 16 NonCon=     1 RMS=3.70D-09 Max=2.72D-07 NDo=     1
 LinEq1:  Iter= 17 NonCon=     0 RMS=2.25D-09 Max=1.60D-07 NDo=     1
 Linear equations converged to 2.028D-08 2.028D-07 after    17 iterations.
 Angle between quadratic step and gradient=  67.84 degrees.
     ILin= 1 X=0.000D+00 Y=-8.449789727738D+02 DE= 0.00D+00 F= -1.16D-05
     ILin= 2 X=1.000D+00 Y=-8.449789786024D+02 DE=-5.83D-06
 Iteration   2 EE= -844.978978602380     Delta-E=       -0.000005828573 Grad=9.020D-06 Max rot=    0.0002 deg.
 Rotation gradient small -- convergence achieved.
 SCF Done:  E(ULC-wHPBE) =  -844.978978602     a.u. after    2 cycles
            Convg  =    0.9020D-05                    19 Fock formations.
              S**2 =  0.7784                  -V/T =  2.0052
 <Sx>= 0.0000 <Sy>= 0.0000 <Sz>= 0.5000 <S**2>= 0.7784 S= 0.5141
 <L.S>= 0.000000000000E+00
 Annihilation of the first spin contaminant:
 S**2 before annihilation     0.7784,   after     0.7505
 Leave Link  508 at Thu Jan 21 04:17:55 2021, MaxMem=  4026531840 cpu:            4834.0 elap:             606.6
 (Enter /opt/ohpc/pub/libs/gaussian/g16-A.03/sandybridge/g16/l601.exe)
 Copying SCF densities to generalized density rwf, IOpCl= 1 IROHF=0.

 **********************************************************************

            Population analysis using the SCF density.

 **********************************************************************

 Orbital symmetries:
 Alpha Orbitals:
       Occupied  (A) (A) (A) (A) (A) (A) (A) (A) (A) (A) (A) (A)
                 (A) (A) (A) (A) (A) (A) (A) (A) (A) (A) (A) (A)
                 (A) (A) (A) (A) (A) (A) (A) (A) (A) (A) (A) (A)
                 (A) (A) (A) (A) (A) (A) (A) (A) (A) (A) (A) (A)
                 (A) (A) (A) (A) (A) (A) (A) (A) (A) (A) (A) (A)
                 (A) (A) (A) (A) (A) (A) (A) (A) (A) (A) (A) (A)
                 (A) (A)
       Virtual   (A) (A) (A) (A) (A) (A) (A) (A) (A) (A) (A) (A)
                 (A) (A) (A) (A) (A) (A) (A) (A) (A) (A) (A) (A)
                 (A) (A) (A) (A) (A) (A) (A) (A) (A) (A) (A) (A)
                 (A) (A) (A) (A) (A) (A) (A) (A) (A) (A) (A) (A)
                 (A) (A) (A) (A) (A) (A) (A) (A) (A) (A) (A) (A)
                 (A) (A) (A) (A) (A) (A) (A) (A) (A) (A) (A) (A)
                 (A) (A) (A) (A) (A) (A) (A) (A) (A) (A) (A) (A)
                 (A) (A) (A) (A) (A) (A) (A) (A) (A) (A) (A) (A)
                 (A) (A) (A) (A) (A) (A) (A) (A) (A) (A) (A) (A)
                 (A) (A) (A) (A) (A) (A) (A) (A) (A) (A) (A) (A)
                 (A) (A) (A) (A) (A) (A) (A) (A) (A) (A) (A) (A)
                 (A) (A) (A) (A) (A) (A) (A) (A) (A) (A) (A) (A)
                 (A) (A) (A) (A) (A) (A) (A) (A) (A) (A) (A) (A)
                 (A) (A) (A) (A) (A) (A) (A) (A) (A) (A) (A) (A)
                 (A) (A) (A) (A) (A) (A) (A) (A) (A) (A) (A) (A)
                 (A) (A) (A) (A) (A) (A) (A) (A) (A) (A) (A) (A)
                 (A) (A) (A) (A) (A) (A) (A) (A) (A) (A) (A) (A)
                 (A) (A) (A) (A) (A) (A) (A) (A) (A) (A) (A) (A)
                 (A) (A) (A) (A) (A) (A) (A) (A) (A) (A) (A) (A)
                 (A) (A) (A) (A) (A) (A) (A) (A) (A) (A) (A) (A)
                 (A) (A) (A) (A) (A) (A) (A) (A) (A) (A) (A) (A)
                 (A) (A) (A) (A) (A) (A) (A) (A) (A) (A) (A) (A)
                 (A) (A) (A) (A) (A) (A) (A) (A) (A) (A) (A) (A)
                 (A) (A) (A) (A) (A) (A) (A) (A) (A) (A) (A) (A)
                 (A) (A) (A) (A) (A) (A) (A) (A) (A) (A) (A) (A)
                 (A) (A) (A) (A) (A) (A) (A) (A) (A) (A) (A) (A)
                 (A) (A) (A) (A) (A) (A) (A) (A) (A) (A) (A) (A)
                 (A) (A) (A) (A) (A) (A) (A) (A) (A) (A) (A) (A)
                 (A) (A) (A) (A) (A) (A) (A) (A) (A) (A) (A) (A)
                 (A) (A) (A) (A) (A) (A) (A) (A) (A) (A) (A) (A)
                 (A) (A) (A) (A) (A) (A) (A) (A) (A) (A) (A) (A)
                 (A) (A) (A) (A) (A) (A) (A) (A) (A) (A) (A) (A)
                 (A) (A) (A) (A) (A) (A) (A) (A) (A) (A) (A) (A)
                 (A) (A) (A) (A) (A) (A) (A) (A) (A) (A) (A) (A)
                 (A) (A) (A) (A) (A) (A) (A) (A) (A) (A) (A) (A)
                 (A) (A) (A) (A) (A) (A) (A) (A) (A) (A) (A) (A)
                 (A) (A) (A) (A) (A) (A) (A) (A) (A) (A) (A) (A)
                 (A) (A) (A) (A) (A) (A) (A)
 Beta  Orbitals:
       Occupied  (A) (A) (A) (A) (A) (A) (A) (A) (A) (A) (A) (A)
                 (A) (A) (A) (A) (A) (A) (A) (A) (A) (A) (A) (A)
                 (A) (A) (A) (A) (A) (A) (A) (A) (A) (A) (A) (A)
                 (A) (A) (A) (A) (A) (A) (A) (A) (A) (A) (A) (A)
                 (A) (A) (A) (A) (A) (A) (A) (A) (A) (A) (A) (A)
                 (A) (A) (A) (A) (A) (A) (A) (A) (A) (A) (A) (A)
                 (A)
       Virtual   (A) (A) (A) (A) (A) (A) (A) (A) (A) (A) (A) (A)
                 (A) (A) (A) (A) (A) (A) (A) (A) (A) (A) (A) (A)
                 (A) (A) (A) (A) (A) (A) (A) (A) (A) (A) (A) (A)
                 (A) (A) (A) (A) (A) (A) (A) (A) (A) (A) (A) (A)
                 (A) (A) (A) (A) (A) (A) (A) (A) (A) (A) (A) (A)
                 (A) (A) (A) (A) (A) (A) (A) (A) (A) (A) (A) (A)
                 (A) (A) (A) (A) (A) (A) (A) (A) (A) (A) (A) (A)
                 (A) (A) (A) (A) (A) (A) (A) (A) (A) (A) (A) (A)
                 (A) (A) (A) (A) (A) (A) (A) (A) (A) (A) (A) (A)
                 (A) (A) (A) (A) (A) (A) (A) (A) (A) (A) (A) (A)
                 (A) (A) (A) (A) (A) (A) (A) (A) (A) (A) (A) (A)
                 (A) (A) (A) (A) (A) (A) (A) (A) (A) (A) (A) (A)
                 (A) (A) (A) (A) (A) (A) (A) (A) (A) (A) (A) (A)
                 (A) (A) (A) (A) (A) (A) (A) (A) (A) (A) (A) (A)
                 (A) (A) (A) (A) (A) (A) (A) (A) (A) (A) (A) (A)
                 (A) (A) (A) (A) (A) (A) (A) (A) (A) (A) (A) (A)
                 (A) (A) (A) (A) (A) (A) (A) (A) (A) (A) (A) (A)
                 (A) (A) (A) (A) (A) (A) (A) (A) (A) (A) (A) (A)
                 (A) (A) (A) (A) (A) (A) (A) (A) (A) (A) (A) (A)
                 (A) (A) (A) (A) (A) (A) (A) (A) (A) (A) (A) (A)
                 (A) (A) (A) (A) (A) (A) (A) (A) (A) (A) (A) (A)
                 (A) (A) (A) (A) (A) (A) (A) (A) (A) (A) (A) (A)
                 (A) (A) (A) (A) (A) (A) (A) (A) (A) (A) (A) (A)
                 (A) (A) (A) (A) (A) (A) (A) (A) (A) (A) (A) (A)
                 (A) (A) (A) (A) (A) (A) (A) (A) (A) (A) (A) (A)
                 (A) (A) (A) (A) (A) (A) (A) (A) (A) (A) (A) (A)
                 (A) (A) (A) (A) (A) (A) (A) (A) (A) (A) (A) (A)
                 (A) (A) (A) (A) (A) (A) (A) (A) (A) (A) (A) (A)
                 (A) (A) (A) (A) (A) (A) (A) (A) (A) (A) (A) (A)
                 (A) (A) (A) (A) (A) (A) (A) (A) (A) (A) (A) (A)
                 (A) (A) (A) (A) (A) (A) (A) (A) (A) (A) (A) (A)
                 (A) (A) (A) (A) (A) (A) (A) (A) (A) (A) (A) (A)
                 (A) (A) (A) (A) (A) (A) (A) (A) (A) (A) (A) (A)
                 (A) (A) (A) (A) (A) (A) (A) (A) (A) (A) (A) (A)
                 (A) (A) (A) (A) (A) (A) (A) (A) (A) (A) (A) (A)
                 (A) (A) (A) (A) (A) (A) (A) (A) (A) (A) (A) (A)
                 (A) (A) (A) (A) (A) (A) (A) (A) (A) (A) (A) (A)
                 (A) (A) (A) (A) (A) (A) (A) (A)
 The electronic state is 2-A.
[...]
    28  H(1)               0.00208       9.30551       3.32044       3.10399
    29  H(1)               0.00005       0.20242       0.07223       0.06752
    30  H(1)               0.00196       8.76879       3.12892       2.92495
    31  C(13)             -0.00195      -2.19608      -0.78361      -0.73253
    32  H(1)               0.00168       7.51652       2.68208       2.50724
    33  H(1)               0.00209       9.35599       3.33845       3.12082
    34  H(1)               0.00012       0.55052       0.19644       0.18363
    35  C(13)             -0.00210      -2.35543      -0.84048      -0.78569
    36  H(1)               0.00208       9.29275       3.31588       3.09973
    37  H(1)               0.00004       0.20002       0.07137       0.06672
    38  H(1)               0.00197       8.78562       3.13493       2.93057
    39  C(13)             -0.00195      -2.19722      -0.78402      -0.73291
    40  H(1)               0.00167       7.44831       2.65774       2.48449
    41  H(1)               0.00210       9.39800       3.35344       3.13484
    42  H(1)               0.00013       0.57704       0.20590       0.19248
 --------------------------------------------------------
       Center         ----  Spin Dipole Couplings  ----
                      3XX-RR        3YY-RR        3ZZ-RR
 --------------------------------------------------------
     1   Atom        0.013426      0.012079     -0.025505
     2   Atom       -0.148597     -0.131721      0.280318
     3   Atom       -0.055796     -0.036517      0.092313
     4   Atom        0.013428      0.012079     -0.025507
     5   Atom       -0.110145     -0.108240      0.218386
     6   Atom       -0.055788     -0.036515      0.092303
     7   Atom        0.021288     -0.017764     -0.003525
     8   Atom       -0.005766      0.009886     -0.004121
     9   Atom       -0.001453      0.004415     -0.002962
    10   Atom       -0.005765      0.009886     -0.004121
    11   Atom       -0.045810     -0.049103      0.094913
    12   Atom       -0.056136     -0.017032      0.073168
    13   Atom       -0.056145     -0.017039      0.073184
    14   Atom        0.025092      0.014214     -0.039306
    15   Atom        0.025092      0.014217     -0.039309
    16   Atom       -0.103306     -0.071387      0.174693
    17   Atom       -0.004340      0.007377     -0.003037
    18   Atom       -0.004340      0.007378     -0.003038
    19   Atom        0.001229      0.000783     -0.002012
    20   Atom        0.001229      0.000783     -0.002012
    21   Atom       -0.001453      0.004415     -0.002962
    22   Atom        0.032836      0.014694     -0.047529
    23   Atom       -0.004835     -0.003237      0.008072
    24   Atom       -0.004829     -0.003246      0.008076
    25   Atom       -0.098966     -0.098317      0.197283
    26   Atom       -0.098976     -0.098302      0.197278
    27   Atom       -0.001516      0.000284      0.001232
    28   Atom       -0.000550      0.001479     -0.000929
    29   Atom        0.001336      0.000271     -0.001607
    30   Atom       -0.000381      0.001132     -0.000751
    31   Atom        0.001865     -0.002425      0.000559
    32   Atom        0.001076     -0.000150     -0.000926
    33   Atom        0.001484     -0.000803     -0.000681
    34   Atom        0.001445     -0.000211     -0.001235
    35   Atom       -0.001519      0.000282      0.001237
    36   Atom       -0.000551      0.001483     -0.000932
    37   Atom        0.001336      0.000271     -0.001607
    38   Atom       -0.000381      0.001128     -0.000747
    39   Atom        0.001868     -0.002419      0.000550
    40   Atom        0.001079     -0.000145     -0.000934
    41   Atom        0.001483     -0.000809     -0.000674
    42   Atom        0.001446     -0.000211     -0.001235
 --------------------------------------------------------
                        XY            XZ            YZ
 --------------------------------------------------------
     1   Atom        0.000141     -0.009160      0.005205
     2   Atom       -0.000007      0.000029     -0.101987
     3   Atom        0.007826     -0.019906     -0.048380
     4   Atom       -0.000140      0.009154      0.005204
     5   Atom       -0.000004      0.000030     -0.041908
     6   Atom       -0.007833      0.019927     -0.048377
     7   Atom       -0.000001     -0.000002     -0.003745
     8   Atom       -0.004088     -0.000395      0.002118
     9   Atom        0.000275      0.000130      0.002479
    10   Atom        0.004090      0.000395      0.002117
    11   Atom        0.000003      0.000014      0.026766
    12   Atom        0.010290      0.015802      0.069916
    13   Atom       -0.010277     -0.015782      0.069918
    14   Atom        0.002375      0.006599     -0.022331
    15   Atom       -0.002379     -0.006610     -0.022330
    16   Atom        0.000005      0.000013      0.102366
    17   Atom       -0.003005      0.000663     -0.003305
    18   Atom        0.003005     -0.000663     -0.003305
    19   Atom       -0.000908      0.000706     -0.001762
    20   Atom        0.000908     -0.000706     -0.001762
    21   Atom       -0.000275     -0.000130      0.002479
    22   Atom        0.000001     -0.000001     -0.000474
    23   Atom       -0.003638      0.013132      0.000874
    24   Atom        0.003643     -0.013155      0.000842
    25   Atom        0.000968     -0.013902     -0.024419
    26   Atom       -0.000962      0.013780     -0.024519
    27   Atom        0.001185      0.000942      0.000987
    28   Atom        0.000233     -0.000051     -0.001103
    29   Atom        0.000095      0.000136      0.000321
    30   Atom       -0.000188     -0.000229      0.001283
    31   Atom       -0.000682      0.001080     -0.000758
    32   Atom       -0.001054      0.000842     -0.000650
    33   Atom       -0.000746     -0.001111      0.000470
    34   Atom        0.000468      0.000523      0.000039
    35   Atom       -0.001185     -0.000950      0.000996
    36   Atom       -0.000233      0.000051     -0.001102
    37   Atom       -0.000095     -0.000137      0.000321
    38   Atom        0.000188      0.000231      0.001285
    39   Atom        0.000680     -0.001064     -0.000764
    40   Atom        0.001060     -0.000837     -0.000643
    41   Atom        0.000737      0.001115      0.000467
    42   Atom       -0.000466     -0.000527      0.000040
 --------------------------------------------------------


 ---------------------------------------------------------------------------------
              Anisotropic Spin Dipole Couplings in Principal Axis System
 ---------------------------------------------------------------------------------

       Atom             a.u.   MegaHertz   Gauss  10(-4) cm-1        Axes

              Baa    -0.0282    -3.784    -1.350    -1.262  0.2136 -0.1259  0.9688
     1 C(13)  Bbb     0.0124     1.665     0.594     0.555  0.3262  0.9439  0.0508
              Bcc     0.0158     2.119     0.756     0.707  0.9209 -0.3051 -0.2427
 
              Baa    -0.1556   -20.878    -7.450    -6.964  0.0000  0.9737  0.2278
     2 C(13)  Bbb    -0.1486   -19.940    -7.115    -6.651  1.0000 -0.0000 -0.0001
              Bcc     0.3042    40.818    14.565    13.615  0.0001 -0.2278  0.9737
 
              Baa    -0.0587    -7.881    -2.812    -2.629  0.9757 -0.2106  0.0611
     3 C(13)  Bbb    -0.0525    -7.039    -2.512    -2.348  0.1788  0.9255  0.3339
              Bcc     0.1112    14.921     5.324     4.977 -0.1269 -0.3148  0.9406
 
              Baa    -0.0282    -3.784    -1.350    -1.262 -0.2135 -0.1259  0.9688
     4 C(13)  Bbb     0.0124     1.665     0.594     0.555 -0.3261  0.9440  0.0508
              Bcc     0.0158     2.119     0.756     0.707  0.9209  0.3051  0.2426
 
              Baa    -0.1135   -15.235    -5.436    -5.082  0.0000  0.9921  0.1253
     5 C(13)  Bbb    -0.1101   -14.780    -5.274    -4.930  1.0000 -0.0000 -0.0001
              Bcc     0.2237    30.015    10.710    10.012  0.0001 -0.1253  0.9921
 
              Baa    -0.0587    -7.881    -2.812    -2.629  0.9757  0.2105 -0.0613
     6 C(13)  Bbb    -0.0525    -7.039    -2.512    -2.348 -0.1787  0.9255  0.3339
              Bcc     0.1112    14.920     5.324     4.977  0.1270 -0.3148  0.9406
 
              Baa    -0.0187    -9.971    -3.558    -3.326  0.0000  0.9708  0.2397
     7 H(1)   Bbb    -0.0026    -1.387    -0.495    -0.463  0.0001 -0.2397  0.9708
              Bcc     0.0213    11.358     4.053     3.789  1.0000 -0.0000 -0.0001
 
              Baa    -0.0068    -3.615    -1.290    -1.206  0.9684  0.2441 -0.0508
     8 H(1)   Bbb    -0.0044    -2.356    -0.841    -0.786  0.0828 -0.1228  0.9890
              Bcc     0.0112     5.972     2.131     1.992 -0.2352  0.9620  0.1391
 
              Baa    -0.0037    -1.984    -0.708    -0.662 -0.0194 -0.2909  0.9566
     9 H(1)   Bbb    -0.0015    -0.782    -0.279    -0.261  0.9988 -0.0490  0.0053
              Bcc     0.0052     2.766     0.987     0.923  0.0453  0.9555  0.2915
 
              Baa    -0.0068    -3.615    -1.290    -1.206  0.9684 -0.2441  0.0506
    10 H(1)   Bbb    -0.0044    -2.356    -0.841    -0.786 -0.0826 -0.1228  0.9890
              Bcc     0.0112     5.971     2.131     1.992  0.2352  0.9619  0.1391
 
              Baa    -0.0539    -7.235    -2.582    -2.413 -0.0000  0.9842 -0.1770
    11 C(13)  Bbb    -0.0458    -6.147    -2.193    -2.051  1.0000 -0.0000 -0.0001
              Bcc     0.0997    13.382     4.775     4.464  0.0001  0.1770  0.9842
 
              Baa    -0.0588    -7.891    -2.816    -2.632  0.9232 -0.3741  0.0876
    12 C(13)  Bbb    -0.0545    -7.320    -2.612    -2.442  0.3681  0.7957 -0.4811
              Bcc     0.1134    15.211     5.428     5.074  0.1103  0.4764  0.8723
 
              Baa    -0.0588    -7.892    -2.816    -2.632  0.9233  0.3740 -0.0877
    13 C(13)  Bbb    -0.0546    -7.320    -2.612    -2.442 -0.3681  0.7957 -0.4810
              Bcc     0.1134    15.212     5.428     5.074 -0.1101  0.4764  0.8723
 
              Baa    -0.0481    -6.451    -2.302    -2.152 -0.0954  0.3392  0.9359
    14 C(13)  Bbb     0.0223     2.993     1.068     0.999  0.0045  0.9403 -0.3403
              Bcc     0.0258     3.457     1.234     1.153  0.9954  0.0283  0.0912
 
              Baa    -0.0481    -6.451    -2.302    -2.152  0.0956  0.3391  0.9359
    15 C(13)  Bbb     0.0223     2.994     1.068     0.999 -0.0045  0.9403 -0.3403
              Bcc     0.0258     3.458     1.234     1.153  0.9954 -0.0283 -0.0914
 
              Baa    -0.1084   -14.547    -5.191    -4.852  0.0000  0.9404 -0.3400
    16 C(13)  Bbb    -0.1033   -13.863    -4.947    -4.624  1.0000 -0.0000 -0.0000
              Bcc     0.2117    28.409    10.137     9.476  0.0000  0.3400  0.9404
 
              Baa    -0.0051    -2.710    -0.967    -0.904  0.9591  0.2607  0.1105
    17 H(1)   Bbb    -0.0040    -2.114    -0.754    -0.705 -0.1736  0.2329  0.9569
              Bcc     0.0090     4.825     1.722     1.609 -0.2237  0.9369 -0.2687
 
              Baa    -0.0051    -2.711    -0.967    -0.904  0.9591 -0.2607 -0.1107
    18 H(1)   Bbb    -0.0040    -2.114    -0.754    -0.705  0.1737  0.2329  0.9569
              Bcc     0.0090     4.825     1.722     1.609  0.2237  0.9369 -0.2686
 
              Baa    -0.0029    -1.536    -0.548    -0.512 -0.0627  0.4201  0.9053
    19 H(1)   Bbb     0.0003     0.160     0.057     0.053  0.7634  0.6045 -0.2276
              Bcc     0.0026     1.376     0.491     0.459 -0.6429  0.6768 -0.3586
 
              Baa    -0.0029    -1.536    -0.548    -0.512  0.0628  0.4200  0.9053
    20 H(1)   Bbb     0.0003     0.160     0.057     0.053  0.7634 -0.6045  0.2275
              Bcc     0.0026     1.376     0.491     0.459  0.6429  0.6768 -0.3586
 
              Baa    -0.0037    -1.984    -0.708    -0.662  0.0195 -0.2909  0.9566
    21 H(1)   Bbb    -0.0015    -0.782    -0.279    -0.261  0.9988  0.0490 -0.0055
              Bcc     0.0052     2.766     0.987     0.923 -0.0452  0.9555  0.2915
 
              Baa    -0.0475    -6.378    -2.276    -2.128  0.0000  0.0076  1.0000
    22 C(13)  Bbb     0.0147     1.972     0.704     0.658 -0.0000  1.0000 -0.0076
              Bcc     0.0328     4.406     1.572     1.470  1.0000  0.0000 -0.0000
 
              Baa    -0.0142    -1.902    -0.679    -0.634  0.8133  0.3100 -0.4924
    23 C(13)  Bbb    -0.0022    -0.289    -0.103    -0.096 -0.2310  0.9487  0.2157
              Bcc     0.0163     2.190     0.782     0.731  0.5340 -0.0617  0.8433
 
              Baa    -0.0142    -1.903    -0.679    -0.635  0.8135 -0.3090  0.4926
    24 C(13)  Bbb    -0.0022    -0.292    -0.104    -0.097  0.2294  0.9490  0.2165
              Bcc     0.0164     2.194     0.783     0.732 -0.5343 -0.0631  0.8429
 
              Baa    -0.1004    -3.871    -1.381    -1.291  0.2243  0.9703  0.0901
    25 N(14)  Bbb    -0.0996    -3.840    -1.370    -1.281  0.9734 -0.2275  0.0269
              Bcc     0.1999     7.711     2.752     2.572 -0.0466 -0.0817  0.9956
 
              Baa    -0.1004    -3.871    -1.381    -1.291 -0.2244  0.9703  0.0903
    26 N(14)  Bbb    -0.0996    -3.840    -1.370    -1.281  0.9734  0.2276 -0.0264
              Bcc     0.1999     7.711     2.752     2.572  0.0462 -0.0820  0.9956
 
              Baa    -0.0022    -0.290    -0.104    -0.097  0.9122 -0.3846 -0.1415
    27 C(13)  Bbb    -0.0002    -0.030    -0.011    -0.010  0.2129  0.7397 -0.6384
              Bcc     0.0024     0.320     0.114     0.107  0.3502  0.5522  0.7566
 
              Baa    -0.0014    -0.725    -0.259    -0.242 -0.0464  0.3651  0.9298
    28 H(1)   Bbb    -0.0006    -0.305    -0.109    -0.102  0.9944 -0.0712  0.0776
              Bcc     0.0019     1.030     0.368     0.344  0.0946  0.9282 -0.3597
 
              Baa    -0.0017    -0.888    -0.317    -0.296 -0.0397 -0.1615  0.9861
    29 H(1)   Bbb     0.0003     0.166     0.059     0.055 -0.1119  0.9814  0.1562
              Bcc     0.0014     0.722     0.258     0.241  0.9929  0.1041  0.0570
 
              Baa    -0.0014    -0.755    -0.269    -0.252  0.1173 -0.4399  0.8904
    30 H(1)   Bbb    -0.0004    -0.214    -0.076    -0.071  0.9854  0.1626 -0.0495
              Bcc     0.0018     0.969     0.346     0.323 -0.1230  0.8832  0.4526
 
              Baa    -0.0026    -0.355    -0.127    -0.119  0.1002  0.9753  0.1968
    31 C(13)  Bbb    -0.0000    -0.002    -0.001    -0.001 -0.5266 -0.1158  0.8422
              Bcc     0.0027     0.357     0.127     0.119  0.8442 -0.1881  0.5020
 
              Baa    -0.0013    -0.710    -0.253    -0.237 -0.1643  0.3590  0.9188
    32 H(1)   Bbb    -0.0007    -0.387    -0.138    -0.129  0.5652  0.7976 -0.2106
              Bcc     0.0021     1.097     0.391     0.366  0.8084 -0.4847  0.3339
 
              Baa    -0.0012    -0.666    -0.238    -0.222  0.1772 -0.5584  0.8104
    33 H(1)   Bbb    -0.0010    -0.511    -0.182    -0.170  0.4400  0.7815  0.4423
              Bcc     0.0022     1.177     0.420     0.392  0.8803 -0.2782 -0.3842
 
              Baa    -0.0013    -0.712    -0.254    -0.238 -0.1920  0.0457  0.9803
    34 H(1)   Bbb    -0.0003    -0.173    -0.062    -0.058 -0.2293  0.9692 -0.0901
              Bcc     0.0017     0.886     0.316     0.295  0.9542  0.2421  0.1756
 
              Baa    -0.0022    -0.291    -0.104    -0.097  0.9124  0.3839  0.1422
    35 C(13)  Bbb    -0.0002    -0.032    -0.011    -0.011 -0.2122  0.7405 -0.6377
              Bcc     0.0024     0.322     0.115     0.108 -0.3501  0.5516  0.7571
 
              Baa    -0.0014    -0.726    -0.259    -0.242  0.0462  0.3641  0.9302
    36 H(1)   Bbb    -0.0006    -0.305    -0.109    -0.102  0.9945  0.0712 -0.0772
              Bcc     0.0019     1.031     0.368     0.344 -0.0943  0.9286 -0.3588
 
              Baa    -0.0017    -0.888    -0.317    -0.296  0.0398 -0.1618  0.9860
    37 H(1)   Bbb     0.0003     0.166     0.059     0.055  0.1115  0.9814  0.1565
              Bcc     0.0014     0.722     0.258     0.241  0.9930 -0.1037 -0.0571
 
              Baa    -0.0014    -0.755    -0.269    -0.252 -0.1182 -0.4409  0.8897
    38 H(1)   Bbb    -0.0004    -0.213    -0.076    -0.071  0.9853 -0.1634  0.0499
              Bcc     0.0018     0.968     0.346     0.323  0.1233  0.8826  0.4537
 
              Baa    -0.0026    -0.355    -0.127    -0.118 -0.0998  0.9748  0.1997
    39 C(13)  Bbb    -0.0000    -0.000    -0.000    -0.000  0.5234 -0.1192  0.8437
              Bcc     0.0026     0.355     0.127     0.118  0.8462  0.1887 -0.4983
 
              Baa    -0.0013    -0.710    -0.253    -0.237  0.1649  0.3523  0.9212
    40 H(1)   Bbb    -0.0007    -0.388    -0.139    -0.130 -0.5642  0.7998 -0.2049
              Bcc     0.0021     1.098     0.392     0.366  0.8090  0.4860 -0.3307
 
              Baa    -0.0012    -0.664    -0.237    -0.222 -0.1783 -0.5620  0.8077
    41 H(1)   Bbb    -0.0010    -0.511    -0.182    -0.170 -0.4394  0.7799  0.4457
              Bcc     0.0022     1.175     0.419     0.392  0.8804  0.2754  0.3860
 
              Baa    -0.0013    -0.713    -0.255    -0.238  0.1930  0.0453  0.9801
    42 H(1)   Bbb    -0.0003    -0.173    -0.062    -0.058  0.2283  0.9695 -0.0898
              Bcc     0.0017     0.886     0.316     0.296  0.9543 -0.2411 -0.1768
 

 ---------------------------------------------------------------------------------

 No NMR shielding tensors so no spin-rotation constants.
 Leave Link  601 at Thu Jan 21 04:17:56 2021, MaxMem=  4026531840 cpu:               4.1 elap:               0.6
 (Enter /opt/ohpc/pub/libs/gaussian/g16-A.03/sandybridge/g16/l9999.exe)

 Test job not archived.
 1\1\GINC-CASCADEB025\SP\ULC-wHPBE\TZVP\C19H21N2(2+,2)\RDU230\21-Jan-20
 21\0\\#P LC-wHPBE/TZVP iop(3/107=0197900000, 3/108=0197900000) scf=(co
 nver=6,fermi,ndamp=35,noincfock,novaracc,vshift=500,xqc)\\H21 C19 N2\\
 2,2\C,0,5.924302,-1.175178,0.28256\C,0,6.625626,0.000025,-0.000251\C,0
 ,4.530324,-1.177472,0.278212\C,0,5.924206,1.175202,-0.282951\C,0,3.810
 936,-0.000036,-0.000021\C,0,4.530233,1.177435,-0.278371\H,0,7.716547,0
 .000056,-0.000331\H,0,3.994064,-2.094974,0.527939\H,0,6.466302,2.09321
 ,-0.514746\H,0,3.99388,2.094904,-0.52801\C,0,2.333716,-0.000062,0.0001
 09\C,0,1.604784,1.119278,0.452707\C,0,1.604752,-1.119433,-0.452341\C,0
 ,0.21685,1.12577,0.449243\C,0,0.216813,-1.125977,-0.44867\C,0,-0.50491
 9,-0.000106,0.000309\H,0,2.141671,1.985727,0.840835\H,0,2.141597,-1.98
 5891,-0.840507\H,0,-0.315693,1.995203,0.838189\H,0,-0.315745,-1.995465
 ,-0.837475\H,0,6.466484,-2.093156,0.514265\C,0,-1.942874,-0.000086,0.0
 00402\C,0,-3.143323,-0.702637,-0.003392\C,0,-3.143127,0.702801,0.00391
 5\N,0,-3.78708,-1.855019,0.001668\N,0,-3.786774,1.855252,-0.001097\C,0
 ,-3.068411,-3.12252,0.167733\H,0,-3.187886,-3.74858,-0.728596\H,0,-2.0
 05788,-2.927607,0.341041\H,0,-3.471162,-3.663551,1.036238\C,0,-5.24512
 1,-1.94416,-0.100275\H,0,-5.509149,-2.713998,-0.838669\H,0,-5.688951,-
 2.217262,0.869111\H,0,-5.659251,-0.989594,-0.439085\C,0,-3.068047,3.12
 2616,-0.16813\H,0,-3.188116,3.749602,0.727455\H,0,-2.005304,2.927538,-
 0.340531\H,0,-3.470192,3.662707,-1.037509\C,0,-5.24495,1.944232,0.0993
 91\H,0,-5.509538,2.71844,0.832954\H,0,-5.688631,2.211256,-0.871774\H,0
 ,-5.658779,0.991638,0.444142\\Version=EM64L-G16RevA.03\State=2-A\HF=-8
 44.9789786\S2=0.778434\S2-1=0.\S2A=0.750513\RMSD=3.501e-08\Dipole=-1.2
 147234,0.0000441,-0.0008375\Quadrupole=86.8611598,-23.3873229,-63.4738
 369,-0.000098,0.0046763,0.1921347\PG=C01 [X(C19H21N2)]\\@


 ERWIN WITH HIS PSI CAN DO
 CALCULATIONS QUITE A FEW.
 BUT ONE THING HAS NOT BEEN SEEN
 JUST WHAT DOES PSI REALLY MEAN.
 -- WALTER HUCKEL, TRANS. BY FELIX BLOCH
 Job cpu time:       0 days  3 hours 52 minutes 24.1 seconds.
 Elapsed time:       0 days  0 hours 29 minutes  8.6 seconds.
 File lengths (MBytes):  RWF=    188 Int=      0 D2E=      0 Chk=     24 Scr=      8
 Normal termination of Gaussian 16 at Thu Jan 21 04:17:56 2021.
