 Entering Gaussian System, Link 0=g16
 Input=mol_bp_cp_half_tune_c0.gjf
 Output=mol_bp_cp_half_tune_c0.log
 Initial command:
 /opt/ohpc/pub/libs/gaussian/g16-A.03/sandybridge/g16/l1.exe "/mnt/gpfs2_4m/scratch/rdu230/ondemand/projects/init_structures/wtuning/mol_bp_cp_half/tuning_mol_bp_cp_half_ocycle0/Gau-229022.inp" -scrdir="/mnt/gpfs2_4m/scratch/rdu230/ondemand/projects/init_structures/wtuning/mol_bp_cp_half/tuning_mol_bp_cp_half_ocycle0/"
 Entering Link 1 = /opt/ohpc/pub/libs/gaussian/g16-A.03/sandybridge/g16/l1.exe PID=    229023.
  
 Copyright (c) 1988,1990,1992,1993,1995,1998,2003,2009,2016,
            Gaussian, Inc.  All Rights Reserved.
  
 This is part of the Gaussian(R) 16 program.  It is based on
 the Gaussian(R) 09 system (copyright 2009, Gaussian, Inc.),
 the Gaussian(R) 03 system (copyright 2003, Gaussian, Inc.),
 the Gaussian(R) 98 system (copyright 1998, Gaussian, Inc.),
 the Gaussian(R) 94 system (copyright 1995, Gaussian, Inc.),
 the Gaussian 92(TM) system (copyright 1992, Gaussian, Inc.),
 the Gaussian 90(TM) system (copyright 1990, Gaussian, Inc.),
 the Gaussian 88(TM) system (copyright 1988, Gaussian, Inc.),
 the Gaussian 86(TM) system (copyright 1986, Carnegie Mellon
 University), and the Gaussian 82(TM) system (copyright 1983,
 Carnegie Mellon University). Gaussian is a federally registered
 trademark of Gaussian, Inc.
  
 This software contains proprietary and confidential information,
 including trade secrets, belonging to Gaussian, Inc.
  
 This software is provided under written license and may be
 used, copied, transmitted, or stored only in accord with that
 written license.
  
 The following legend is applicable only to US Government
 contracts under FAR:
  
                    RESTRICTED RIGHTS LEGEND
  
 Use, reproduction and disclosure by the US Government is
 subject to restrictions as set forth in subparagraphs (a)
 and (c) of the Commercial Computer Software - Restricted
 Rights clause in FAR 52.227-19.
  
 Gaussian, Inc.
 340 Quinnipiac St., Bldg. 40, Wallingford CT 06492
  
  
 ---------------------------------------------------------------
 Warning -- This program may not be used in any manner that
 competes with the business of Gaussian, Inc. or will provide
 assistance to any competitor of Gaussian, Inc.  The licensee
 of this program is prohibited from giving any competitor of
 Gaussian, Inc. access to this program.  By using this program,
 the user acknowledges that Gaussian, Inc. is engaged in the
 business of creating and licensing software in the field of
 computational chemistry and represents and warrants to the
 licensee that it is not a competitor of Gaussian, Inc. and that
 it will not use this program in any manner prohibited above.
 ---------------------------------------------------------------
  

 Cite this work as:
 Gaussian 16, Revision A.03,
 M. J. Frisch, G. W. Trucks, H. B. Schlegel, G. E. Scuseria, 
 M. A. Robb, J. R. Cheeseman, G. Scalmani, V. Barone, 
 G. A. Petersson, H. Nakatsuji, X. Li, M. Caricato, A. V. Marenich, 
 J. Bloino, B. G. Janesko, R. Gomperts, B. Mennucci, H. P. Hratchian, 
 J. V. Ortiz, A. F. Izmaylov, J. L. Sonnenberg, D. Williams-Young, 
 F. Ding, F. Lipparini, F. Egidi, J. Goings, B. Peng, A. Petrone, 
 T. Henderson, D. Ranasinghe, V. G. Zakrzewski, J. Gao, N. Rega, 
 G. Zheng, W. Liang, M. Hada, M. Ehara, K. Toyota, R. Fukuda, 
 J. Hasegawa, M. Ishida, T. Nakajima, Y. Honda, O. Kitao, H. Nakai, 
 T. Vreven, K. Throssell, J. A. Montgomery, Jr., J. E. Peralta, 
 F. Ogliaro, M. J. Bearpark, J. J. Heyd, E. N. Brothers, K. N. Kudin, 
 V. N. Staroverov, T. A. Keith, R. Kobayashi, J. Normand, 
 K. Raghavachari, A. P. Rendell, J. C. Burant, S. S. Iyengar, 
 J. Tomasi, M. Cossi, J. M. Millam, M. Klene, C. Adamo, R. Cammi, 
 J. W. Ochterski, R. L. Martin, K. Morokuma, O. Farkas, 
 J. B. Foresman, and D. J. Fox, Gaussian, Inc., Wallingford CT, 2016.
 
 ******************************************
 Gaussian 16:  EM64L-G16RevA.03 25-Dec-2016
                21-Jan-2021 
 ******************************************
 %mem=30GB
 %nproc=8
 Will use up to    8 processors via shared memory.
 ----------------------------------------------------------------------
 #P LC-wHPBE/TZVP iop(3/107=0221900000, 3/108=0221900000) scf=(conver=6
 ,fermi,ndamp=35,noincfock,novaracc,vshift=500,xqc)
 ----------------------------------------------------------------------
 1/38=1,172=1/1;
 2/12=2,17=6,18=5,40=1/2;
 3/5=19,7=101,11=2,25=1,30=1,74=-71,107=221900000,108=221900000/1,2,3;
 4//1;
 5/5=100002,6=6,8=3,10=500,13=1,18=-1,22=13,38=1,93=35/2,8;
 6/7=2,8=2,9=2,10=2,28=1/1;
 99/5=1,9=1/99;
 Leave Link    1 at Thu Jan 21 00:11:28 2021, MaxMem=  4026531840 cpu:               1.6 elap:               0.2
 (Enter /opt/ohpc/pub/libs/gaussian/g16-A.03/sandybridge/g16/l101.exe)
 ----------
 H21 C19 N2
 ----------
 Symbolic Z-matrix:
 Charge =  2 Multiplicity = 2
 C                     5.9243   -1.17518   0.28256 
 C                     6.62563   0.00003  -0.00025 
 C                     4.53032  -1.17747   0.27821 
 C                     5.92421   1.1752   -0.28295 
 C                     3.81094  -0.00004  -0.00002 
 C                     4.53023   1.17744  -0.27837 
 H                     7.71655   0.00006  -0.00033 
 H                     3.99406  -2.09497   0.52794 
 H                     6.4663    2.09321  -0.51475 
 H                     3.99388   2.0949   -0.52801 
 C                     2.33372  -0.00006   0.00011 
 C                     1.60478   1.11928   0.45271 
 C                     1.60475  -1.11943  -0.45234 
 C                     0.21685   1.12577   0.44924 
 C                     0.21681  -1.12598  -0.44867 
 C                    -0.50492  -0.00011   0.00031 
 H                     2.14167   1.98573   0.84084 
 H                     2.1416   -1.98589  -0.84051 
 H                    -0.31569   1.9952    0.83819 
 H                    -0.31575  -1.99547  -0.83748 
 H                     6.46648  -2.09316   0.51427 
 C                    -1.94287  -0.00009   0.0004 
 C                    -3.14332  -0.70264  -0.00339 
 C                    -3.14313   0.7028    0.00392 
 N                    -3.78708  -1.85502   0.00167 
 N                    -3.78677   1.85525  -0.0011 
 C                    -3.06841  -3.12252   0.16773 
 H                    -3.18789  -3.74858  -0.7286 
 H                    -2.00579  -2.92761   0.34104 
 H                    -3.47116  -3.66355   1.03624 
 C                    -5.24512  -1.94416  -0.10028 
 H                    -5.50915  -2.714    -0.83867 
 H                    -5.68895  -2.21726   0.86911 
 H                    -5.65925  -0.98959  -0.43909 
 C                    -3.06805   3.12262  -0.16813 
 H                    -3.18812   3.7496    0.72746 
 H                    -2.0053    2.92754  -0.34053 
 H                    -3.47019   3.66271  -1.03751 
 C                    -5.24495   1.94423   0.09939 
 H                    -5.50954   2.71844   0.83295 
 H                    -5.68863   2.21126  -0.87177 
 H                    -5.65878   0.99164   0.44414 
 
 ITRead=  0  0  0  0  0  0  0  0  0  0  0  0  0  0  0  0  0  0  0  0
 ITRead=  0  0  0  0  0  0  0  0  0  0  0  0  0  0  0  0  0  0  0  0
 ITRead=  0  0
 MicOpt= -1 -1 -1 -1 -1 -1 -1 -1 -1 -1 -1 -1 -1 -1 -1 -1 -1 -1 -1 -1
 MicOpt= -1 -1 -1 -1 -1 -1 -1 -1 -1 -1 -1 -1 -1 -1 -1 -1 -1 -1 -1 -1
 MicOpt= -1 -1
 NAtoms=     42 NQM=       42 NQMF=       0 NMMI=      0 NMMIF=      0
                NMic=       0 NMicF=      0.
                    Isotopes and Nuclear Properties:
 (Nuclear quadrupole moments (NQMom) in fm**2, nuclear magnetic moments (NMagM)
  in nuclear magnetons)

  Atom         1           2           3           4           5           6           7           8           9          10
 IAtWgt=          12          12          12          12          12          12           1           1           1           1
 AtmWgt=  12.0000000  12.0000000  12.0000000  12.0000000  12.0000000  12.0000000   1.0078250   1.0078250   1.0078250   1.0078250
 NucSpn=           0           0           0           0           0           0           1           1           1           1
 AtZEff=  -0.0000000  -0.0000000  -0.0000000  -0.0000000  -0.0000000  -0.0000000  -0.0000000  -0.0000000  -0.0000000  -0.0000000
 NQMom=    0.0000000   0.0000000   0.0000000   0.0000000   0.0000000   0.0000000   0.0000000   0.0000000   0.0000000   0.0000000
 NMagM=    0.0000000   0.0000000   0.0000000   0.0000000   0.0000000   0.0000000   2.7928460   2.7928460   2.7928460   2.7928460
 AtZNuc=   6.0000000   6.0000000   6.0000000   6.0000000   6.0000000   6.0000000   1.0000000   1.0000000   1.0000000   1.0000000

  Atom        11          12          13          14          15          16          17          18          19          20
 IAtWgt=          12          12          12          12          12          12           1           1           1           1
 AtmWgt=  12.0000000  12.0000000  12.0000000  12.0000000  12.0000000  12.0000000   1.0078250   1.0078250   1.0078250   1.0078250
 NucSpn=           0           0           0           0           0           0           1           1           1           1
 AtZEff=  -0.0000000  -0.0000000  -0.0000000  -0.0000000  -0.0000000  -0.0000000  -0.0000000  -0.0000000  -0.0000000  -0.0000000
 NQMom=    0.0000000   0.0000000   0.0000000   0.0000000   0.0000000   0.0000000   0.0000000   0.0000000   0.0000000   0.0000000
 NMagM=    0.0000000   0.0000000   0.0000000   0.0000000   0.0000000   0.0000000   2.7928460   2.7928460   2.7928460   2.7928460
 AtZNuc=   6.0000000   6.0000000   6.0000000   6.0000000   6.0000000   6.0000000   1.0000000   1.0000000   1.0000000   1.0000000

  Atom        21          22          23          24          25          26          27          28          29          30
 IAtWgt=           1          12          12          12          14          14          12           1           1           1
 AtmWgt=   1.0078250  12.0000000  12.0000000  12.0000000  14.0030740  14.0030740  12.0000000   1.0078250   1.0078250   1.0078250
 NucSpn=           1           0           0           0           2           2           0           1           1           1
 AtZEff=  -0.0000000  -0.0000000  -0.0000000  -0.0000000  -0.0000000  -0.0000000  -0.0000000  -0.0000000  -0.0000000  -0.0000000
 NQMom=    0.0000000   0.0000000   0.0000000   0.0000000   2.0440000   2.0440000   0.0000000   0.0000000   0.0000000   0.0000000
 NMagM=    2.7928460   0.0000000   0.0000000   0.0000000   0.4037610   0.4037610   0.0000000   2.7928460   2.7928460   2.7928460
 AtZNuc=   1.0000000   6.0000000   6.0000000   6.0000000   7.0000000   7.0000000   6.0000000   1.0000000   1.0000000   1.0000000

  Atom        31          32          33          34          35          36          37          38          39          40
 IAtWgt=          12           1           1           1          12           1           1           1          12           1
 AtmWgt=  12.0000000   1.0078250   1.0078250   1.0078250  12.0000000   1.0078250   1.0078250   1.0078250  12.0000000   1.0078250
 NucSpn=           0           1           1           1           0           1           1           1           0           1
 AtZEff=  -0.0000000  -0.0000000  -0.0000000  -0.0000000  -0.0000000  -0.0000000  -0.0000000  -0.0000000  -0.0000000  -0.0000000
 NQMom=    0.0000000   0.0000000   0.0000000   0.0000000   0.0000000   0.0000000   0.0000000   0.0000000   0.0000000   0.0000000
 NMagM=    0.0000000   2.7928460   2.7928460   2.7928460   0.0000000   2.7928460   2.7928460   2.7928460   0.0000000   2.7928460
 AtZNuc=   6.0000000   1.0000000   1.0000000   1.0000000   6.0000000   1.0000000   1.0000000   1.0000000   6.0000000   1.0000000

  Atom        41          42
 IAtWgt=           1           1
 AtmWgt=   1.0078250   1.0078250
 NucSpn=           1           1
 AtZEff=  -0.0000000  -0.0000000
 NQMom=    0.0000000   0.0000000
 NMagM=    2.7928460   2.7928460
 AtZNuc=   1.0000000   1.0000000
 Leave Link  101 at Thu Jan 21 00:11:28 2021, MaxMem=  4026531840 cpu:               0.6 elap:               0.1
 (Enter /opt/ohpc/pub/libs/gaussian/g16-A.03/sandybridge/g16/l202.exe)
                          Input orientation:                          
 ---------------------------------------------------------------------
 Center     Atomic      Atomic             Coordinates (Angstroms)
 Number     Number       Type             X           Y           Z
 ---------------------------------------------------------------------
      1          6           0        5.924302   -1.175178    0.282560
      2          6           0        6.625626    0.000025   -0.000251
      3          6           0        4.530324   -1.177472    0.278212
      4          6           0        5.924206    1.175202   -0.282951
      5          6           0        3.810936   -0.000036   -0.000021
      6          6           0        4.530233    1.177435   -0.278371
      7          1           0        7.716547    0.000056   -0.000331
      8          1           0        3.994064   -2.094974    0.527939
      9          1           0        6.466302    2.093210   -0.514746
     10          1           0        3.993880    2.094904   -0.528010
     11          6           0        2.333716   -0.000062    0.000109
     12          6           0        1.604784    1.119278    0.452707
     13          6           0        1.604752   -1.119433   -0.452341
     14          6           0        0.216850    1.125770    0.449243
     15          6           0        0.216813   -1.125977   -0.448670
     16          6           0       -0.504919   -0.000106    0.000309
     17          1           0        2.141671    1.985727    0.840835
     18          1           0        2.141597   -1.985891   -0.840507
     19          1           0       -0.315693    1.995203    0.838189
     20          1           0       -0.315745   -1.995465   -0.837475
     21          1           0        6.466484   -2.093156    0.514265
     22          6           0       -1.942874   -0.000086    0.000402
     23          6           0       -3.143323   -0.702637   -0.003392
     24          6           0       -3.143127    0.702801    0.003915
     25          7           0       -3.787080   -1.855019    0.001668
     26          7           0       -3.786774    1.855252   -0.001097
     27          6           0       -3.068411   -3.122520    0.167733
     28          1           0       -3.187886   -3.748580   -0.728596
     29          1           0       -2.005788   -2.927607    0.341041
     30          1           0       -3.471162   -3.663551    1.036238
     31          6           0       -5.245121   -1.944160   -0.100275
     32          1           0       -5.509149   -2.713998   -0.838669
     33          1           0       -5.688951   -2.217262    0.869111
     34          1           0       -5.659251   -0.989594   -0.439085
     35          6           0       -3.068047    3.122616   -0.168130
     36          1           0       -3.188116    3.749602    0.727455
     37          1           0       -2.005304    2.927538   -0.340531
     38          1           0       -3.470192    3.662707   -1.037509
     39          6           0       -5.244950    1.944232    0.099391
     40          1           0       -5.509538    2.718440    0.832954
     41          1           0       -5.688631    2.211256   -0.871774
     42          1           0       -5.658779    0.991638    0.444142
 ---------------------------------------------------------------------
                    Distance matrix (angstroms):
                    1          2          3          4          5
     1  C    0.000000
     2  C    1.397476   0.000000
     3  C    1.393987   2.419573   0.000000
     4  C    2.417455   1.397480   2.791574   0.000000
     5  C    2.434569   2.814690   1.407582   2.434573   0.000000
     6  C    2.791569   2.419570   2.419788   1.393982   1.407588
     7  H    2.161792   1.090921   3.408251   2.161788   3.905611
     8  H    2.152221   3.404868   1.091672   3.882917   2.168189
     9  H    3.407612   2.161368   3.882545   1.091025   3.420174
    10  H    3.882910   3.404869   3.412655   2.152223   2.168182
    11  C    3.788533   4.291910   2.507733   3.788534   1.477220
    12  C    4.894049   5.163986   3.723479   4.381977   2.514942
    13  C    4.381974   5.163986   3.015965   4.894050   2.514934
    14  C    6.156066   6.522404   4.892876   5.754343   3.792985
    15  C    5.754350   6.522411   4.374630   6.156072   3.792987
    16  C    6.541815   7.130545   5.178522   6.541807   4.315855
    17  H    4.960977   4.975569   4.003503   4.028327   2.727039
    18  H    4.028324   4.975581   2.758820   4.960999   2.727037
    19  H    7.021223   7.270875   5.819220   6.392628   4.659683
    20  H    6.392616   7.270870   5.039668   7.021226   4.659674
    21  H    1.091023   2.161356   2.154742   3.407607   3.420172
    22  C    7.959454   8.568500   6.585265   7.959431   5.753810
    23  C    9.084431   9.794187   7.693480   9.264152   6.989662
    24  C    9.264055   9.794001   7.905221   9.084161   6.989491
    25  N    9.739200  10.576655   8.349536  10.177049   7.821177
    26  N   10.176884  10.576386   8.857175   9.738842   7.820952
    27  C    9.201859  10.185915   7.844501   9.977008   7.556683
    28  H    9.522437  10.530315   8.197257  10.366892   7.972823
    29  H    8.121623   9.120790   6.766659   8.950263   6.520834
    30  H    9.748578  10.790794   8.413024  10.650199   8.217307
    31  C   11.202406  12.029318   9.812767  11.598175   9.262928
    32  H   11.590898  12.462810  10.217600  12.089512   9.743352
    33  H   11.674657  12.542765  10.289019  12.153250   9.793842
    34  H   11.607494  12.332482  10.216519  11.785041   9.531865
    35  C    9.976798  10.185581   8.742152   9.201425   7.556429
    36  H   10.367620  10.530832   9.167998   9.522755   7.973439
    37  H    8.949814   9.120256   7.742634   8.121030   6.520375
    38  H   10.649142  10.789656   9.442813   9.747397   8.216258
    39  C   11.598123  12.029150  10.263186  11.202127   9.262782
    40  H   12.091149  12.463796  10.783538  11.591261   9.744496
    41  H   12.151569  12.541532  10.827418  11.673821   9.792423
    42  H   11.785116  12.332372  10.418752  11.607235   9.531852
                    6          7          8          9         10
     6  C    0.000000
     7  H    3.408244   0.000000
     8  H    3.412664   4.304079   0.000000
     9  H    2.154734   2.491792   4.973936   0.000000
    10  H    1.091670   4.304077   4.320892   2.472458   0.000000
    11  C    2.507735   5.382831   2.724705   4.661022   2.724690
    12  C    3.015976   6.229892   4.005713   5.051620   2.760694
    13  C    3.723481   6.229896   2.760696   5.827490   4.005699
    14  C    4.374627   7.597026   4.964547   6.396942   4.019975
    15  C    4.892883   7.597037   4.019993   7.030195   4.964535
    16  C    5.178515   8.221466   4.990763   7.296929   4.990729
    17  H    2.758838   5.977432   4.492370   4.533386   2.305718
    18  H    4.003525   5.977453   2.305684   5.953844   4.492382
    19  H    5.039687   8.318690   5.949774   6.916321   4.522042
    20  H    5.819226   8.318692   4.522025   7.925754   5.949769
    21  H    3.882539   2.491787   2.472458   4.310977   4.973927
    22  C    6.585240   9.659421   6.317759   8.681101   6.317693
    23  C    7.905299  10.882581   7.291310  10.021134   7.683822
    24  C    7.693206  10.882389   7.683856   9.723342   7.290937
    25  N    8.857307  11.652242   7.802611  10.999411   8.742184
    26  N    8.349187  11.651959   8.742174  10.268692   7.802157
    27  C    8.742312  11.229160   7.145919  10.889461   8.808038
    28  H    9.167207  11.553757   7.476209  11.286079   9.260902
    29  H    7.743036  10.159308   6.060234   9.885205   7.872540
    30  H    9.443816  11.817839   7.645155  11.588746   9.556858
    31  C   10.263217  13.107052   9.261746  12.394740  10.092380
    32  H   10.781761  13.527303   9.620908  12.908354  10.655027
    33  H   10.829238  13.615425   9.689795  12.970945  10.691302
    34  H   10.418610  13.419534   9.764399  12.511532  10.134346
    35  C    7.844090  11.228802   8.808017   9.596022   7.145384
    36  H    8.197600  11.554239   9.261889   9.873930   7.476315
    37  H    6.766090  10.158754   7.872248   8.514374   6.059590
    38  H    8.411877  11.816678   9.555974  10.073257   7.643950
    39  C    9.812486  13.106875  10.092483  11.728290   9.261334
    40  H   10.217962  13.528241  10.657412  12.067641   9.620602
    41  H   10.288153  13.614243  10.689125  12.160748   9.689310
    42  H   10.216287  13.419394  10.134672  12.212719   9.764021
                   11         12         13         14         15
    11  C    0.000000
    12  C    1.410358   0.000000
    13  C    1.410351   2.414734   0.000000
    14  C    2.439332   1.387954   2.789276   0.000000
    15  C    2.439337   2.789286   1.387959   2.424172   0.000000
    16  C    2.838635   2.430747   2.430740   1.410705   1.410697
    17  H    2.164962   1.090699   3.406260   2.144250   3.879511
    18  H    2.164962   3.406266   1.090699   3.879503   2.144244
    19  H    3.420940   2.145710   3.880017   1.091235   3.417797
    20  H    3.420939   3.880029   2.145709   3.417808   1.091236
    21  H    4.661027   5.827491   5.051624   7.030195   6.396958
    22  C    4.276590   3.747457   3.747474   2.476574   2.476599
    23  C    5.521918   5.106067   4.787430   3.852105   3.415846
    24  C    5.521761   4.787225   5.105983   3.415650   3.852072
    25  N    6.395703   6.174308   5.460683   5.011675   4.094565
    26  N    6.395513   5.460448   6.174214   4.094381   5.011662
    27  C    6.241860   6.317659   5.122041   5.377746   3.893435
    28  H    6.713456   6.932619   5.473400   6.061256   4.306783
    29  H    5.245765   5.424572   4.115209   4.624034   2.968075
    30  H    6.941997   6.998656   5.869694   6.073186   4.716502
    31  C    7.824856   7.524071   6.908320   6.289640   5.533853
    32  H    8.341434   8.183502   7.300649   7.013530   5.954876
    33  H    8.368651   8.031467   7.493301   6.799312   6.148618
    34  H    8.065952   7.616353   7.265175   6.308126   5.877654
    35  C    6.241672   5.121928   6.317500   3.893468   5.377690
    36  H    6.714137   5.474119   6.933326   4.307632   6.062020
    37  H    5.245376   4.114823   5.424295   2.967841   4.623903
    38  H    6.941028   5.869000   6.997595   4.716011   6.072251
    39  C    7.824725   6.908273   7.523887   5.533854   6.289468
    40  H    8.342692   7.301745   8.185009   5.956119   7.015212
    41  H    8.367088   7.492701   8.028876   6.148014   6.796353
    42  H    8.066016   7.264689   7.617033   5.877162   6.309040
                   16         17         18         19         20
    16  C    0.000000
    17  H    3.413862   0.000000
    18  H    3.413848   4.312848   0.000000
    19  H    2.172351   2.457384   4.970453   0.000000
    20  H    2.172355   4.970464   2.457363   4.328196   0.000000
    21  H    7.296949   5.953817   4.533383   7.925751   6.916312
    22  C    1.437955   4.618797   4.618815   2.707542   2.707605
    23  C    2.730337   5.989256   5.502534   3.997761   3.219052
    24  C    2.730244   5.502311   5.989192   3.218804   3.997833
    25  N    3.770051   7.113763   5.989624   5.251143   3.574081
    26  N    3.770004   5.989352   7.113689   3.573848   5.251247
    27  C    4.043389   7.327497   5.427030   5.849620   3.139724
    28  H    4.666977   7.984333   5.614533   6.610246   3.366669
    29  H    3.307411   6.449191   4.414033   5.228540   2.261423
    30  H    4.826238   7.965954   6.151405   6.482107   4.031125
    31  C    5.124351   8.419881   7.423832   6.379542   4.984460
    32  H    5.754252   9.134725   7.685314   7.208357   5.242875
    33  H    5.704804   8.887326   8.018342   6.827717   5.642072
    34  H    5.266810   8.446604   7.874451   6.252524   5.451931
    35  C    4.043438   5.426941   7.327300   3.139935   5.849610
    36  H    4.667826   5.615224   7.985000   3.367639   6.611000
    37  H    3.307329   4.413619   6.448918   2.261286   5.228530
    38  H    4.825568   6.150890   7.964775   4.031089   6.481162
    39  C    5.124272   7.423856   8.419641   4.984576   6.379341
    40  H    5.755867   7.686217   9.136250   5.243961   7.210182
    41  H    5.702764   8.018574   8.884227   5.642616   6.823898
    42  H    5.267145   7.873538   8.447595   5.450778   6.254066
                   21         22         23         24         25
    21  H    0.000000
    22  C    8.681146   0.000000
    23  C    9.723677   1.390924   0.000000
    24  C   10.021101   1.390924   1.405457   0.000000
    25  N   10.269130   2.615698   1.320012   2.637636   0.000000
    26  N   10.999310   2.615769   2.637580   1.320019   3.710272
    27  C    9.596557   3.323316   2.427082   3.829556   1.466500
    28  H    9.873803   4.016553   3.131402   4.511471   2.116103
    29  H    8.515028   2.947944   2.522521   3.819300   2.106803
    30  H   10.074493   4.102389   3.155205   4.498703   2.107351
    31  C   11.728664   3.833327   2.443015   3.381662   1.464316
    32  H   12.067794   4.559350   3.215648   4.240581   2.099889
    33  H   12.161247   4.438876   3.087972   3.969452   2.121507
    34  H   12.213115   3.870883   2.569449   3.064528   2.109087
    35  C   10.889317   3.323505   3.829539   2.427085   5.032166
    36  H   11.286920   4.017386   4.512048   3.131857   5.683071
    37  H    9.884798   2.948070   3.819283   2.522447   5.115142
    38  H   11.587730   4.101952   4.498052   3.154771   5.623665
    39  C   12.394769   3.833259   3.381319   2.442934   4.070533
    40  H   12.910388   4.561208   4.242902   3.217143   4.957260
    41  H   12.969036   4.436375   3.965281   3.085751   4.573116
    42  H   12.511709   3.871482   3.065677   2.570162   3.435476
                   26         27         28         29         30
    26  N    0.000000
    27  C    5.032173   0.000000
    28  H    5.682504   1.099832   0.000000
    29  H    5.115145   1.094164   1.793175   0.000000
    30  H    5.624310   1.099647   1.789445   1.781076   0.000000
    31  C    4.070890   2.489664   2.807656   3.413972   2.719356
    32  H    4.954407   2.671505   2.543765   3.702821   2.927511
    33  H    4.578309   2.859834   3.339600   3.788026   2.652974
    34  H    3.433825   3.410286   3.715302   4.208596   3.756908
    35  C    1.466520   6.254161   6.895058   6.163834   6.903989
    36  H    2.116067   6.895918   7.638247   6.792079   7.424978
    37  H    2.106810   6.163743   6.791145   5.894681   6.891058
    38  H    2.107432   6.903140   7.423092   6.890364   7.614098
    39  C    1.464340   5.514886   6.109434   5.855372   5.955773
    40  H    2.099679   6.365409   7.046336   6.663039   6.702694
    41  H    2.121763   6.032851   6.464818   6.437559   6.562853
    42  H    2.109140   4.869569   5.472686   5.358680   5.177551
                   31         32         33         34         35
    31  C    0.000000
    32  H    1.098903   0.000000
    33  H    1.100581   1.787621   0.000000
    34  H    1.094300   1.776448   1.794276   0.000000
    35  C    5.515113   6.361970   6.038154   4.868062   0.000000
    36  H    6.110264   7.044009   6.471299   5.470585   1.099818
    37  H    5.855560   6.659730   6.442162   5.357701   1.094166
    38  H    5.955312   6.697705   6.567505   5.176292   1.099654
    39  C    3.893515   4.759082   4.255307   3.011468   2.489792
    40  H    4.762423   5.683811   4.939094   3.923011   2.669533
    41  H    4.249635   4.928634   4.758409   3.230097   2.862368
    42  H    3.014368   3.924249   3.237059   2.169187   3.409961
                   36         37         38         39         40
    36  H    0.000000
    37  H    1.793161   0.000000
    38  H    1.789474   1.781053   0.000000
    39  C    2.807916   3.414049   2.719460   0.000000
    40  H    2.542327   3.701411   2.923902   1.098872   0.000000
    41  H    3.343145   3.789746   2.656247   1.100598   1.787570
    42  H    3.713598   4.208480   3.757634   1.094323   1.776314
                   41         42
    41  H    0.000000
    42  H    1.794434   0.000000
 Stoichiometry    C19H21N2(2+,2)
 Framework group  C1[X(C19H21N2)]
 Deg. of freedom   120
 Full point group                 C1      NOp   1
 Largest Abelian subgroup         C1      NOp   1
 Largest concise Abelian subgroup C1      NOp   1
                         Standard orientation:                         
 ---------------------------------------------------------------------
 Center     Atomic      Atomic             Coordinates (Angstroms)
 Number     Number       Type             X           Y           Z
 ---------------------------------------------------------------------
      1          6           0       -5.924302   -1.175178   -0.282560
      2          6           0       -6.625626    0.000025    0.000251
      3          6           0       -4.530324   -1.177472   -0.278212
      4          6           0       -5.924206    1.175202    0.282951
      5          6           0       -3.810936   -0.000036    0.000021
      6          6           0       -4.530233    1.177435    0.278371
      7          1           0       -7.716547    0.000056    0.000331
      8          1           0       -3.994064   -2.094974   -0.527939
      9          1           0       -6.466302    2.093210    0.514746
     10          1           0       -3.993880    2.094904    0.528010
     11          6           0       -2.333716   -0.000062   -0.000109
     12          6           0       -1.604784    1.119278   -0.452707
     13          6           0       -1.604752   -1.119433    0.452341
     14          6           0       -0.216850    1.125770   -0.449243
     15          6           0       -0.216813   -1.125977    0.448670
     16          6           0        0.504919   -0.000106   -0.000309
     17          1           0       -2.141671    1.985727   -0.840835
     18          1           0       -2.141597   -1.985891    0.840507
     19          1           0        0.315693    1.995203   -0.838189
     20          1           0        0.315745   -1.995465    0.837475
     21          1           0       -6.466484   -2.093156   -0.514265
     22          6           0        1.942874   -0.000086   -0.000402
     23          6           0        3.143323   -0.702637    0.003392
     24          6           0        3.143127    0.702801   -0.003915
     25          7           0        3.787080   -1.855019   -0.001668
     26          7           0        3.786774    1.855252    0.001097
     27          6           0        3.068411   -3.122520   -0.167733
     28          1           0        3.187886   -3.748580    0.728596
     29          1           0        2.005788   -2.927607   -0.341041
     30          1           0        3.471162   -3.663551   -1.036238
     31          6           0        5.245121   -1.944160    0.100275
     32          1           0        5.509149   -2.713998    0.838669
     33          1           0        5.688951   -2.217262   -0.869111
     34          1           0        5.659251   -0.989594    0.439085
     35          6           0        3.068047    3.122616    0.168130
     36          1           0        3.188116    3.749602   -0.727455
     37          1           0        2.005304    2.927538    0.340531
     38          1           0        3.470192    3.662707    1.037509
     39          6           0        5.244950    1.944232   -0.099391
     40          1           0        5.509538    2.718440   -0.832954
     41          1           0        5.688631    2.211256    0.871774
     42          1           0        5.658779    0.991638   -0.444142
 ---------------------------------------------------------------------
 Rotational constants (GHZ):           0.7037808           0.1205812           0.1040104
 Leave Link  202 at Thu Jan 21 00:11:28 2021, MaxMem=  4026531840 cpu:               0.3 elap:               0.1
 (Enter /opt/ohpc/pub/libs/gaussian/g16-A.03/sandybridge/g16/l301.exe)
 Standard basis: TZVP (5D, 7F)
 Ernie: Thresh=  0.10000D-02 Tol=  0.10000D-05 Strict=F.
 There are   546 symmetry adapted cartesian basis functions of A   symmetry.
 There are   525 symmetry adapted basis functions of A   symmetry.
   525 basis functions,   903 primitive gaussians,   546 cartesian basis functions
    74 alpha electrons       73 beta electrons
       nuclear repulsion energy      1487.4602048397 Hartrees.
 IExCor=33909 DFT=T Ex+Corr=LC-wHPBE ExCW=0 ScaHFX=  1.000000
 ScaDFX=  1.000000  1.000000  1.000000  1.000000 ScalE2=  1.000000  1.000000
 IRadAn=      5 IRanWt=     -1 IRanGd=            0 ICorTp=0 IEmpDi=  4
 HFx  wShort=  0.000000 wLong=  0.221900 cFull=  0.000000 cShort=  0.000000 cLong=  1.000000
 DFx  wShort=  0.000000 wLong=  0.221900 cFull=  0.000000 cShort=  1.000000 cLong=  0.000000
 NAtoms=   42 NActive=   42 NUniq=   42 SFac= 1.00D+00 NAtFMM=   60 NAOKFM=F Big=F
 Integral buffers will be    131072 words long.
 Raffenetti 2 integral format.
 Two-electron integral symmetry is turned on.
 Leave Link  301 at Thu Jan 21 00:11:28 2021, MaxMem=  4026531840 cpu:               0.4 elap:               0.1
 (Enter /opt/ohpc/pub/libs/gaussian/g16-A.03/sandybridge/g16/l302.exe)
 NPDir=0 NMtPBC=     1 NCelOv=     1 NCel=       1 NClECP=     1 NCelD=      1
         NCelK=      1 NCelE2=     1 NClLst=     1 CellRange=     0.0.
 One-electron integrals computed using PRISM.
 One-electron integral symmetry used in STVInt
 NBasis=   525 RedAO= T EigKep=  8.06D-06  NBF=   525
 NBsUse=   525 1.00D-06 EigRej= -1.00D+00 NBFU=   525
 Precomputing XC quadrature grid using
 IXCGrd= 4 IRadAn=           5 IRanWt=          -1 IRanGd=           0 AccXCQ= 0.00D+00.
 Generated NRdTot=       0 NPtTot=           0 NUsed=           0 NTot=          32
 NSgBfM=   523   523   523   523   523 MxSgAt=    42 MxSgA2=    42.
 Leave Link  302 at Thu Jan 21 00:11:29 2021, MaxMem=  4026531840 cpu:               6.7 elap:               0.9
 (Enter /opt/ohpc/pub/libs/gaussian/g16-A.03/sandybridge/g16/l303.exe)
 DipDrv:  MaxL=1.
 Leave Link  303 at Thu Jan 21 00:11:29 2021, MaxMem=  4026531840 cpu:               0.7 elap:               0.2
 (Enter /opt/ohpc/pub/libs/gaussian/g16-A.03/sandybridge/g16/l401.exe)
 ExpMin= 9.52D-02 ExpMax= 1.97D+04 ExpMxC= 6.73D+02 IAcc=3 IRadAn=         5 AccDes= 0.00D+00
 Harris functional with IExCor=33909 and IRadAn=       5 diagonalized for initial guess.
 HarFok:  IExCor=33909 AccDes= 0.00D+00 IRadAn=         5 IDoV= 1 UseB2=F ITyADJ=14
 ICtDFT=  3500011 ScaDFX=  1.000000  1.000000  1.000000  1.000000
 FoFCou: FMM=F IPFlag=           0 FMFlag=      100000 FMFlg1=           0
         NFxFlg=           0 DoJE=T BraDBF=F KetDBF=T FulRan=T
         wScrn=  0.000000 ICntrl=       500 IOpCl=  0 I1Cent=   200000004 NGrid=           0
         NMat0=    1 NMatS0=      1 NMatT0=    0 NMatD0=    1 NMtDS0=    0 NMtDT0=    0
 Petite list used in FoFCou.
 Harris En= -827.896720351909    
 JPrj=0 DoOrth=F DoCkMO=F.
 Initial guess <Sx>= 0.0000 <Sy>= 0.0000 <Sz>= 0.5000 <S**2>= 0.7500 S= 0.5000
 Leave Link  401 at Thu Jan 21 00:11:34 2021, MaxMem=  4026531840 cpu:              39.6 elap:               5.0
 (Enter /opt/ohpc/pub/libs/gaussian/g16-A.03/sandybridge/g16/l502.exe)
 Integral symmetry usage will be decided dynamically.
 UHF open shell SCF:
 Using DIIS extrapolation, IDIIS=    10.
 NGot=  4026531840 LenX=  4025925692 LenY=  4025627030
 Requested convergence on RMS density matrix=1.00D-06 within  32 cycles.
 Requested convergence on MAX density matrix=1.00D-04.
 Requested convergence on             energy=1.00D-04.
 Virtual orbitals will be shifted by   0.500 hartree.
 No special actions if energy rises.
 Dynamic level shift is on during FON iterations.

 Cycle   1  Pass 1  IDiag  1:
 FoFJK:  IHMeth= 1 ICntrl=       0 DoSepK=T KAlg= 0 I1Cent=           0 FoldK=F
 IRaf=         1 NMat=       1 IRICut=       1 DoRegI=T DoRafI=F ISym2E= 0 IDoP0=0 IntGTp=1.
 FoFCou: FMM=F IPFlag=           0 FMFlag=      100000 FMFlg1=           0
         NFxFlg=           0 DoJE=T BraDBF=F KetDBF=F FulRan=T
         wScrn=  0.000000 ICntrl=       500 IOpCl=  0 I1Cent=           0 NGrid=           0
         NMat0=    1 NMatS0=      1 NMatT0=    0 NMatD0=    1 NMtDS0=    0 NMtDT0=    0
 Symmetry not used in FoFCou.
 E= -844.660825651130    
 DIIS: error= 2.92D-02 at cycle   1 NSaved=   1.
 NSaved= 1 IEnMin= 1 EnMin= -844.660825651130     IErMin= 1 ErrMin= 2.92D-02
 ErrMax= 2.92D-02  0.00D+00 EMaxC= 1.00D+00 BMatC= 1.24D+00 BMatP= 1.24D+00
 IDIUse=1 WtCom= 1.00D+00 WtEn= 0.00D+00
 Coeff-Com:  0.100D+01
 Coeff:      0.100D+01
 Gap=     0.457 Goal=   None    Shift=    0.500
 T= 1479. Gap= 0.533 NK=0 IS=   75 IE=  525 IFin=   74
          NO(<0.9)=   0  NV(>0.1)=   0     74.00e < EF      0.00e >EF  Err=0.0D+00
 Gap=    -0.039 Goal=   None    Shift=    0.500
 T= 1479. Gap= 0.380 NK=0 IS=   74 IE=  525 IFin=   73
          NO(<0.9)=   0  NV(>0.1)=   0     73.00e < EF      0.00e >EF  Err=0.0D+00
 GapD=   -0.039 DampG=0.250 DampE=0.500 DampFc=0.1250 IDamp=-1.
 Damping current iteration by 1.25D-01
 RMSDP=3.01D-03 MaxDP=2.72D-01              OVMax= 1.04D-01

 Cycle   2  Pass 1  IDiag  1:
 E= -844.718509345878     Delta-E=       -0.057683694748 Rises=F Damp=T
 DIIS: error= 2.59D-02 at cycle   2 NSaved=   2.
 NSaved= 2 IEnMin= 2 EnMin= -844.718509345878     IErMin= 2 ErrMin= 2.59D-02
 ErrMax= 2.59D-02  0.00D+00 EMaxC= 1.00D+00 BMatC= 8.90D-01 BMatP= 1.24D+00
 IDIUse=1 WtCom= 1.00D+00 WtEn= 0.00D+00
 Coeff-Com: -0.516D+01 0.616D+01
 Coeff:     -0.516D+01 0.616D+01
 Gap=     0.193 Goal=   None    Shift=    0.500
 T= 1456. Gap= 0.684 NK=0 IS=   75 IE=  525 IFin=   74
          NO(<0.9)=   0  NV(>0.1)=   0     74.00e < EF      0.00e >EF  Err=0.0D+00
 Gap=     0.062 Goal=   None    Shift=    0.500
 T= 1456. Gap= 0.555 NK=0 IS=   74 IE=  525 IFin=   73
          NO(<0.9)=   0  NV(>0.1)=   0     73.00e < EF      0.00e >EF  Err=0.0D+00
 GapD=    0.062 DampG=0.500 DampE=0.500 DampFc=0.2500 IDamp=-1.
 Damping current iteration by 2.50D-01
 RMSDP=2.79D-03 MaxDP=2.38D-01 DE=-5.77D-02 OVMax= 4.09D-02

 Cycle   3  Pass 1  IDiag  1:
 E= -844.804024986300     Delta-E=       -0.085515640422 Rises=F Damp=T
 DIIS: error= 2.02D-02 at cycle   3 NSaved=   3.
 NSaved= 3 IEnMin= 3 EnMin= -844.804024986300     IErMin= 3 ErrMin= 2.02D-02
 ErrMax= 2.02D-02  0.00D+00 EMaxC= 1.00D+00 BMatC= 4.75D-01 BMatP= 8.90D-01
 IDIUse=1 WtCom= 1.00D+00 WtEn= 0.00D+00
 Coeff-Com:  0.243D+00-0.307D+01 0.383D+01
 Coeff:      0.243D+00-0.307D+01 0.383D+01
 Gap=     0.216 Goal=   None    Shift=    0.500
 T= 1389. Gap= 0.715 NK=0 IS=   75 IE=  525 IFin=   74
          NO(<0.9)=   0  NV(>0.1)=   0     74.00e < EF      0.00e >EF  Err=0.0D+00
 Gap=     0.081 Goal=   None    Shift=    0.500
 T= 1389. Gap= 0.582 NK=0 IS=   74 IE=  525 IFin=   73
          NO(<0.9)=   0  NV(>0.1)=   0     73.00e < EF      0.00e >EF  Err=0.0D+00
 GapD=    0.081 DampG=0.500 DampE=0.500 DampFc=0.2500 IDamp=-1.
 Damping current iteration by 2.50D-01
 RMSDP=2.02D-03 MaxDP=1.57D-01 DE=-8.55D-02 OVMax= 3.34D-02

 Cycle   4  Pass 1  IDiag  1:
 E= -844.859292174222     Delta-E=       -0.055267187922 Rises=F Damp=T
 DIIS: error= 1.57D-02 at cycle   4 NSaved=   4.
 NSaved= 4 IEnMin= 4 EnMin= -844.859292174222     IErMin= 4 ErrMin= 1.57D-02
 ErrMax= 1.57D-02  0.00D+00 EMaxC= 1.00D+00 BMatC= 2.60D-01 BMatP= 4.75D-01
 IDIUse=1 WtCom= 1.00D+00 WtEn= 0.00D+00
 Coeff-Com:  0.664D+00-0.933D+00-0.279D+01 0.406D+01
 Coeff:      0.664D+00-0.933D+00-0.279D+01 0.406D+01
 Gap=     0.223 Goal=   None    Shift=    0.500
 T= 1270. Gap= 0.723 NK=0 IS=   75 IE=  525 IFin=   74
          NO(<0.9)=   0  NV(>0.1)=   0     74.00e < EF      0.00e >EF  Err=0.0D+00
 Gap=     0.095 Goal=   None    Shift=    0.500
 T= 1270. Gap= 0.595 NK=0 IS=   74 IE=  525 IFin=   73
          NO(<0.9)=   0  NV(>0.1)=   0     73.00e < EF      0.00e >EF  Err=0.0D+00
 GapD=    0.095 DampG=0.500 DampE=0.500 DampFc=0.2500 IDamp=-1.
 Damping current iteration by 2.50D-01
 RMSDP=1.50D-03 MaxDP=1.01D-01 DE=-5.53D-02 OVMax= 3.10D-02

 Cycle   5  Pass 1  IDiag  1:
 E= -844.896668885346     Delta-E=       -0.037376711124 Rises=F Damp=T
 DIIS: error= 1.22D-02 at cycle   5 NSaved=   5.
 NSaved= 5 IEnMin= 5 EnMin= -844.896668885346     IErMin= 5 ErrMin= 1.22D-02
 ErrMax= 1.22D-02  0.00D+00 EMaxC= 1.00D+00 BMatC= 1.45D-01 BMatP= 2.60D-01
 IDIUse=1 WtCom= 1.00D+00 WtEn= 0.00D+00
 Coeff-Com: -0.564D-01 0.805D+00 0.401D+00-0.704D+01 0.689D+01
 Coeff:     -0.564D-01 0.805D+00 0.401D+00-0.704D+01 0.689D+01
 Gap=     0.235 Goal=   None    Shift=    0.500
 T= 1120. Gap= 0.735 NK=4 IS=   75 IE=   88 IFin=   74
          NO(<0.9)=   0  NV(>0.1)=   0     74.00e < EF      0.00e >EF  Err=0.0D+00
 Gap=     0.104 Goal=   None    Shift=    0.500
 T= 1120. Gap= 0.605 NK=4 IS=   74 IE=   87 IFin=   73
          NO(<0.9)=   0  NV(>0.1)=   0     73.00e < EF      0.00e >EF  Err=0.0D+00
 GapD=    0.104 DampG=1.000 DampE=0.500 DampFc=0.5000 IDamp=-1.
 Damping current iteration by 5.00D-01
 RMSDP=1.10D-03 MaxDP=6.02D-02 DE=-3.74D-02 OVMax= 3.25D-02

 Cycle   6  Pass 1  IDiag  1:
 E= -844.947165135385     Delta-E=       -0.050496250039 Rises=F Damp=T
 DIIS: error= 8.88D-03 at cycle   6 NSaved=   6.
 NSaved= 6 IEnMin= 6 EnMin= -844.947165135385     IErMin= 6 ErrMin= 8.88D-03
 ErrMax= 8.88D-03  0.00D+00 EMaxC= 1.00D+00 BMatC= 3.70D-02 BMatP= 1.45D-01
 IDIUse=1 WtCom= 1.00D+00 WtEn= 0.00D+00
 Coeff-Com: -0.347D+00 0.535D+00 0.145D+01-0.669D+00-0.412D+01 0.415D+01
 Coeff:     -0.347D+00 0.535D+00 0.145D+01-0.669D+00-0.412D+01 0.415D+01
 Gap=     0.241 Goal=   None    Shift=    0.500
 T=  959. Gap= 0.741 NK=4 IS=   75 IE=   88 IFin=   74
          NO(<0.9)=   0  NV(>0.1)=   0     74.00e < EF      0.00e >EF  Err=0.0D+00
 Gap=     0.111 Goal=   None    Shift=    0.500
 T=  959. Gap= 0.613 NK=4 IS=   74 IE=   87 IFin=   73
          NO(<0.9)=   0  NV(>0.1)=   0     73.00e < EF      0.00e >EF  Err=0.0D+00
 GapD=    0.111 DampG=1.000 DampE=1.000 DampFc=1.0000 IDamp=-1.
 RMSDP=5.63D-04 MaxDP=2.00D-02 DE=-5.05D-02 OVMax= 3.45D-02

 Cycle   7  Pass 1  IDiag  1:
 E= -844.993131750801     Delta-E=       -0.045966615416 Rises=F Damp=F
 DIIS: error= 4.90D-03 at cycle   7 NSaved=   7.
 NSaved= 7 IEnMin= 7 EnMin= -844.993131750801     IErMin= 7 ErrMin= 4.90D-03
 ErrMax= 4.90D-03  0.00D+00 EMaxC= 1.00D+00 BMatC= 8.68D-04 BMatP= 3.70D-02
 IDIUse=1 WtCom= 1.00D+00 WtEn= 0.00D+00
 Coeff-Com: -0.155D+00 0.684D-01 0.269D+00 0.241D+01-0.354D+01 0.182D+00
 Coeff-Com:  0.177D+01
 Coeff:     -0.155D+00 0.684D-01 0.269D+00 0.241D+01-0.354D+01 0.182D+00
 Coeff:      0.177D+01
 Gap=     0.245 Goal=   None    Shift=    0.500
 T=  751. Gap= 0.745 NK=4 IS=   75 IE=   88 IFin=   74
          NO(<0.9)=   0  NV(>0.1)=   0     74.00e < EF      0.00e >EF  Err=0.0D+00
 Gap=     0.116 Goal=   None    Shift=    0.500
 T=  751. Gap= 0.617 NK=4 IS=   74 IE=   87 IFin=   73
          NO(<0.9)=   0  NV(>0.1)=   0     73.00e < EF      0.00e >EF  Err=0.0D+00
 GapD=    0.116 DampG=1.000 DampE=1.000 DampFc=1.0000 IDamp=-1.
 RMSDP=1.50D-04 MaxDP=1.12D-02 DE=-4.60D-02 OVMax= 3.39D-02

 Cycle   8  Pass 1  IDiag  1:
 E= -844.994831176219     Delta-E=       -0.001699425418 Rises=F Damp=F
 DIIS: error= 4.46D-03 at cycle   8 NSaved=   8.
 NSaved= 8 IEnMin= 8 EnMin= -844.994831176219     IErMin= 8 ErrMin= 4.46D-03
 ErrMax= 4.46D-03  0.00D+00 EMaxC= 1.00D+00 BMatC= 6.92D-04 BMatP= 8.68D-04
 IDIUse=1 WtCom= 1.00D+00 WtEn= 0.00D+00
 Coeff-Com: -0.224D-01 0.309D-01-0.479D+00 0.123D+01 0.160D+00-0.195D+01
 Coeff-Com: -0.126D+00 0.215D+01
 Coeff:     -0.224D-01 0.309D-01-0.479D+00 0.123D+01 0.160D+00-0.195D+01
 Coeff:     -0.126D+00 0.215D+01
 Gap=     0.252 Goal=   None    Shift=    0.500
 T=  538. Gap= 0.752 NK=4 IS=   75 IE=   87 IFin=   74
          NO(<0.9)=   0  NV(>0.1)=   0     74.00e < EF      0.00e >EF  Err=0.0D+00
 Gap=     0.122 Goal=   None    Shift=    0.500
 T=  538. Gap= 0.624 NK=4 IS=   74 IE=   87 IFin=   73
          NO(<0.9)=   0  NV(>0.1)=   0     73.00e < EF      0.00e >EF  Err=0.0D+00
 GapD=    0.122 DampG=1.000 DampE=1.000 DampFc=1.0000 IDamp=-1.
 RMSDP=1.69D-04 MaxDP=1.24D-02 DE=-1.70D-03 OVMax= 3.57D-02

 Cycle   9  Pass 1  IDiag  1:
 E= -844.996372000871     Delta-E=       -0.001540824652 Rises=F Damp=F
 DIIS: error= 4.16D-03 at cycle   9 NSaved=   9.
 NSaved= 9 IEnMin= 9 EnMin= -844.996372000871     IErMin= 9 ErrMin= 4.16D-03
 ErrMax= 4.16D-03  0.00D+00 EMaxC= 1.00D+00 BMatC= 6.29D-04 BMatP= 6.92D-04
 IDIUse=1 WtCom= 1.00D+00 WtEn= 0.00D+00
 Coeff-Com: -0.268D-01 0.407D-01-0.461D+00 0.116D+01 0.174D+00-0.187D+01
 Coeff-Com: -0.133D+00 0.201D+01 0.113D+00
 Coeff:     -0.268D-01 0.407D-01-0.461D+00 0.116D+01 0.174D+00-0.187D+01
 Coeff:     -0.133D+00 0.201D+01 0.113D+00
 Gap=     0.252 Goal=   None    Shift=    0.500
 T=  359. Gap= 0.752 NK=4 IS=   75 IE=   87 IFin=   74
          NO(<0.9)=   0  NV(>0.1)=   0     74.00e < EF      0.00e >EF  Err=0.0D+00
 Gap=     0.125 Goal=   None    Shift=    0.500
 T=  359. Gap= 0.627 NK=4 IS=   74 IE=   87 IFin=   73
          NO(<0.9)=   0  NV(>0.1)=   0     73.00e < EF      0.00e >EF  Err=0.0D+00
 GapD=    0.125 DampG=1.000 DampE=1.000 DampFc=1.0000 IDamp=-1.
 RMSDP=8.66D-05 MaxDP=7.07D-03 DE=-1.54D-03 OVMax= 2.80D-02

 Cycle  10  Pass 1  IDiag  1:
 E= -844.997436464005     Delta-E=       -0.001064463134 Rises=F Damp=F
 DIIS: error= 3.72D-03 at cycle  10 NSaved=  10.
 NSaved=10 IEnMin=10 EnMin= -844.997436464005     IErMin=10 ErrMin= 3.72D-03
 ErrMax= 3.72D-03  0.00D+00 EMaxC= 1.00D+00 BMatC= 5.04D-04 BMatP= 6.29D-04
 IDIUse=1 WtCom= 1.00D+00 WtEn= 0.00D+00
 Coeff-Com:  0.277D-03-0.128D+00 0.147D+00 0.910D+00-0.883D+00-0.574D+00
 Coeff-Com:  0.867D+00-0.350D+00-0.180D+01 0.281D+01
 Coeff:      0.277D-03-0.128D+00 0.147D+00 0.910D+00-0.883D+00-0.574D+00
 Coeff:      0.867D+00-0.350D+00-0.180D+01 0.281D+01
 Gap=     0.258 Goal=   None    Shift=    0.500
 T=  304. Gap= 0.758 NK=4 IS=   75 IE=   87 IFin=   74
          NO(<0.9)=   0  NV(>0.1)=   0     74.00e < EF      0.00e >EF  Err=0.0D+00
 Gap=     0.129 Goal=   None    Shift=    0.500
 T=  304. Gap= 0.630 NK=4 IS=   74 IE=   87 IFin=   73
          NO(<0.9)=   0  NV(>0.1)=   0     73.00e < EF      0.00e >EF  Err=0.0D+00
 GapD=    0.129 DampG=1.000 DampE=1.000 DampFc=1.0000 IDamp=-1.
 RMSDP=1.19D-04 MaxDP=9.06D-03 DE=-1.06D-03 OVMax= 3.12D-02

 Cycle  11  Pass 1  IDiag  1:
 E= -844.998495658837     Delta-E=       -0.001059194833 Rises=F Damp=F
 DIIS: error= 3.54D-03 at cycle  11 NSaved=  11.
 NSaved=11 IEnMin=11 EnMin= -844.998495658837     IErMin=11 ErrMin= 3.54D-03
 ErrMax= 3.54D-03  0.00D+00 EMaxC= 1.00D+00 BMatC= 5.15D-04 BMatP= 5.04D-04
 IDIUse=1 WtCom= 1.00D+00 WtEn= 0.00D+00
 Coeff-Com: -0.266D-01-0.231D+00 0.558D+00 0.182D+01-0.333D+01 0.107D+01
 Coeff-Com:  0.224D+01-0.184D+01-0.433D+01 0.300D+01 0.207D+01
 Coeff:     -0.266D-01-0.231D+00 0.558D+00 0.182D+01-0.333D+01 0.107D+01
 Coeff:      0.224D+01-0.184D+01-0.433D+01 0.300D+01 0.207D+01
 Gap=     0.263 Goal=   None    Shift=    0.500
 T=  257. Gap= 0.763 NK=4 IS=   75 IE=   85 IFin=   74
          NO(<0.9)=   0  NV(>0.1)=   0     74.00e < EF      0.00e >EF  Err=0.0D+00
 Gap=     0.131 Goal=   None    Shift=    0.500
 T=  257. Gap= 0.633 NK=4 IS=   74 IE=   87 IFin=   73
          NO(<0.9)=   0  NV(>0.1)=   0     73.00e < EF      0.00e >EF  Err=0.0D+00
 GapD=    0.131 DampG=1.000 DampE=1.000 DampFc=1.0000 IDamp=-1.
 RMSDP=1.44D-04 MaxDP=1.18D-02 DE=-1.06D-03 OVMax= 3.56D-02

 Cycle  12  Pass 1  IDiag  1:
 E= -844.999593629567     Delta-E=       -0.001097970729 Rises=F Damp=F
 DIIS: error= 3.41D-03 at cycle  12 NSaved=  12.
 NSaved=12 IEnMin=12 EnMin= -844.999593629567     IErMin=12 ErrMin= 3.41D-03
 ErrMax= 3.41D-03  0.00D+00 EMaxC= 1.00D+00 BMatC= 5.71D-04 BMatP= 5.04D-04
 IDIUse=1 WtCom= 1.00D+00 WtEn= 0.00D+00
 Coeff-Com: -0.386D-01-0.138D+00-0.210D-01 0.274D+01-0.346D+01 0.556D+00
 Coeff-Com:  0.161D+01 0.948D+00-0.615D+01 0.287D+01-0.570D+00 0.265D+01
 Coeff:     -0.386D-01-0.138D+00-0.210D-01 0.274D+01-0.346D+01 0.556D+00
 Coeff:      0.161D+01 0.948D+00-0.615D+01 0.287D+01-0.570D+00 0.265D+01
 Gap=     0.267 Goal=   None    Shift=    0.500
 T=  216. Gap= 0.767 NK=4 IS=   75 IE=   85 IFin=   74
          NO(<0.9)=   0  NV(>0.1)=   0     74.00e < EF      0.00e >EF  Err=0.0D+00
 Gap=     0.134 Goal=   None    Shift=    0.500
 T=  216. Gap= 0.636 NK=4 IS=   74 IE=   87 IFin=   73
          NO(<0.9)=   0  NV(>0.1)=   0     73.00e < EF      0.00e >EF  Err=0.0D+00
 GapD=    0.134 DampG=1.000 DampE=1.000 DampFc=1.0000 IDamp=-1.
 RMSDP=1.53D-04 MaxDP=1.12D-02 DE=-1.10D-03 OVMax= 3.87D-02

 Cycle  13  Pass 1  IDiag  1:
 E= -845.000670830837     Delta-E=       -0.001077201271 Rises=F Damp=F
 DIIS: error= 3.27D-03 at cycle  13 NSaved=  13.
 NSaved=13 IEnMin=13 EnMin= -845.000670830837     IErMin=13 ErrMin= 3.27D-03
 ErrMax= 3.27D-03  0.00D+00 EMaxC= 1.00D+00 BMatC= 6.61D-04 BMatP= 5.04D-04
 IDIUse=1 WtCom= 1.00D+00 WtEn= 0.00D+00
 Coeff-Com: -0.261D-01-0.107D+00 0.172D-01 0.208D+01-0.257D+01 0.172D+00
 Coeff-Com:  0.121D+01 0.150D+01-0.595D+01 0.337D+01-0.324D+00-0.343D+00
 Coeff-Com:  0.198D+01
 Coeff:     -0.261D-01-0.107D+00 0.172D-01 0.208D+01-0.257D+01 0.172D+00
 Coeff:      0.121D+01 0.150D+01-0.595D+01 0.337D+01-0.324D+00-0.343D+00
 Coeff:      0.198D+01
 Gap=     0.269 Goal=   None    Shift=    0.500
 T=  190. Gap= 0.769 NK=4 IS=   75 IE=   85 IFin=   74
          NO(<0.9)=   0  NV(>0.1)=   0     74.00e < EF      0.00e >EF  Err=0.0D+00
 Gap=     0.138 Goal=   None    Shift=    0.500
 T=  190. Gap= 0.639 NK=4 IS=   74 IE=   87 IFin=   73
          NO(<0.9)=   0  NV(>0.1)=   0     73.00e < EF      0.00e >EF  Err=0.0D+00
 GapD=    0.138 DampG=1.000 DampE=1.000 DampFc=1.0000 IDamp=-1.
 RMSDP=1.14D-04 MaxDP=8.01D-03 DE=-1.08D-03 OVMax= 3.43D-02

 Cycle  14  Pass 1  IDiag  1:
 E= -845.001562543562     Delta-E=       -0.000891712724 Rises=F Damp=F
 DIIS: error= 3.00D-03 at cycle  14 NSaved=  14.
 NSaved=14 IEnMin=14 EnMin= -845.001562543562     IErMin=14 ErrMin= 3.00D-03
 ErrMax= 3.00D-03  0.00D+00 EMaxC= 1.00D+00 BMatC= 5.95D-04 BMatP= 5.04D-04
 IDIUse=1 WtCom= 1.00D+00 WtEn= 0.00D+00
 Coeff-Com:  0.106D-02-0.142D+00 0.272D+00 0.113D+01-0.161D+01-0.964D-01
 Coeff-Com:  0.115D+01 0.411D+00-0.346D+01 0.273D+01 0.125D+01-0.349D+01
 Coeff-Com: -0.403D+00 0.326D+01
 Coeff:      0.106D-02-0.142D+00 0.272D+00 0.113D+01-0.161D+01-0.964D-01
 Coeff:      0.115D+01 0.411D+00-0.346D+01 0.273D+01 0.125D+01-0.349D+01
 Coeff:     -0.403D+00 0.326D+01
 Gap=     0.272 Goal=   None    Shift=    0.500
 T=  158. Gap= 0.772 NK=4 IS=   75 IE=   86 IFin=   74
          NO(<0.9)=   0  NV(>0.1)=   0     74.00e < EF      0.00e >EF  Err=0.0D+00
 Gap=     0.139 Goal=   None    Shift=    0.500
 T=  158. Gap= 0.641 NK=4 IS=   74 IE=   87 IFin=   73
          NO(<0.9)=   0  NV(>0.1)=   0     73.00e < EF      0.00e >EF  Err=0.0D+00
 GapD=    0.139 DampG=1.000 DampE=1.000 DampFc=1.0000 IDamp=-1.
 RMSDP=1.32D-04 MaxDP=8.22D-03 DE=-8.92D-04 OVMax= 3.60D-02

 Cycle  15  Pass 1  IDiag  1:
 E= -845.002394429962     Delta-E=       -0.000831886400 Rises=F Damp=F
 DIIS: error= 2.81D-03 at cycle  15 NSaved=  15.
 NSaved=15 IEnMin=15 EnMin= -845.002394429962     IErMin=15 ErrMin= 2.81D-03
 ErrMax= 2.81D-03  0.00D+00 EMaxC= 1.00D+00 BMatC= 6.37D-04 BMatP= 5.04D-04
 IDIUse=1 WtCom= 1.00D+00 WtEn= 0.00D+00
 Coeff-Com: -0.442D-02-0.136D+00 0.320D+00 0.103D+01-0.162D+01 0.166D-01
 Coeff-Com:  0.114D+01-0.224D+00-0.247D+01 0.231D+01 0.183D+01-0.303D+01
 Coeff-Com: -0.203D+01 0.256D+01 0.130D+01
 Coeff:     -0.442D-02-0.136D+00 0.320D+00 0.103D+01-0.162D+01 0.166D-01
 Coeff:      0.114D+01-0.224D+00-0.247D+01 0.231D+01 0.183D+01-0.303D+01
 Coeff:     -0.203D+01 0.256D+01 0.130D+01
 Gap=     0.272 Goal=   None    Shift=    0.500
 T=  120. Gap= 0.772 NK=4 IS=   75 IE=   86 IFin=   74
          NO(<0.9)=   0  NV(>0.1)=   0     74.00e < EF      0.00e >EF  Err=0.0D+00
 Gap=     0.141 Goal=   None    Shift=    0.500
 T=  120. Gap= 0.643 NK=4 IS=   74 IE=   87 IFin=   73
          NO(<0.9)=   0  NV(>0.1)=   0     73.00e < EF      0.00e >EF  Err=0.0D+00
 GapD=    0.141 DampG=1.000 DampE=1.000 DampFc=1.0000 IDamp=-1.
 RMSDP=9.31D-05 MaxDP=5.79D-03 DE=-8.32D-04 OVMax= 3.10D-02

 Cycle  16  Pass 1  IDiag  1:
 E= -845.003073204669     Delta-E=       -0.000678774707 Rises=F Damp=F
 DIIS: error= 2.53D-03 at cycle  16 NSaved=  16.
 NSaved=16 IEnMin=16 EnMin= -845.003073204669     IErMin=16 ErrMin= 2.53D-03
 ErrMax= 2.53D-03  0.00D+00 EMaxC= 1.00D+00 BMatC= 5.14D-04 BMatP= 5.04D-04
 IDIUse=1 WtCom= 1.00D+00 WtEn= 0.00D+00
 Coeff-Com: -0.241D-01-0.115D+00-0.108D-01 0.207D+01-0.269D+01 0.578D+00
 Coeff-Com:  0.123D+01-0.758D+00-0.152D+01 0.232D+00 0.938D+00 0.279D+01
 Coeff-Com: -0.345D+01-0.980D+00-0.199D+01 0.470D+01
 Coeff:     -0.241D-01-0.115D+00-0.108D-01 0.207D+01-0.269D+01 0.578D+00
 Coeff:      0.123D+01-0.758D+00-0.152D+01 0.232D+00 0.938D+00 0.279D+01
 Coeff:     -0.345D+01-0.980D+00-0.199D+01 0.470D+01
 Gap=     0.275 Goal=   None    Shift=    0.500
 T=   69. Gap= 0.774 NK=4 IS=   75 IE=   86 IFin=   74
          NO(<0.9)=   0  NV(>0.1)=   0     74.00e < EF      0.00e >EF  Err=0.0D+00
 Gap=     0.142 Goal=   None    Shift=    0.500
 T=   69. Gap= 0.644 NK=4 IS=   74 IE=   85 IFin=   73
          NO(<0.9)=   0  NV(>0.1)=   0     73.00e < EF      0.00e >EF  Err=0.0D+00
 GapD=    0.142 DampG=1.000 DampE=1.000 DampFc=1.0000 IDamp=-1.
 RMSDP=1.63D-04 MaxDP=1.06D-02 DE=-6.79D-04 OVMax= 3.93D-02

 Cycle  17  Pass 1  IDiag  1:
 E= -845.003747586797     Delta-E=       -0.000674382128 Rises=F Damp=F
 DIIS: error= 2.46D-03 at cycle  17 NSaved=  17.
 NSaved=17 IEnMin=17 EnMin= -845.003747586797     IErMin=17 ErrMin= 2.46D-03
 ErrMax= 2.46D-03  0.00D+00 EMaxC= 1.00D+00 BMatC= 7.60D-04 BMatP= 5.04D-04
 IDIUse=1 WtCom= 1.00D+00 WtEn= 0.00D+00
 Coeff-Com: -0.219D-01-0.114D+00-0.128D-01 0.199D+01-0.257D+01 0.547D+00
 Coeff-Com:  0.110D+01-0.396D+00-0.203D+01 0.497D+00 0.790D+00 0.267D+01
 Coeff-Com: -0.256D+01-0.934D+00-0.312D+01 0.468D+01 0.479D+00
 Coeff:     -0.219D-01-0.114D+00-0.128D-01 0.199D+01-0.257D+01 0.547D+00
 Coeff:      0.110D+01-0.396D+00-0.203D+01 0.497D+00 0.790D+00 0.267D+01
 Coeff:     -0.256D+01-0.934D+00-0.312D+01 0.468D+01 0.479D+00
 Gap=     0.274 Goal=   None    Shift=    0.500
 T=   29. Gap= 0.774 NK=4 IS=   75 IE=   85 IFin=   74
          NO(<0.9)=   0  NV(>0.1)=   0     74.00e < EF      0.00e >EF  Err=0.0D+00
 Gap=     0.145 Goal=   None    Shift=    0.500
 T=   29. Gap= 0.646 NK=4 IS=   74 IE=   85 IFin=   73
          NO(<0.9)=   0  NV(>0.1)=   0     73.00e < EF      0.00e >EF  Err=0.0D+00
 GapD=    0.145 DampG=1.000 DampE=1.000 DampFc=1.0000 IDamp=-1.
 RMSDP=9.16D-05 MaxDP=5.65D-03 DE=-6.74D-04 OVMax= 3.13D-02

 Cycle  18  Pass 1  IDiag  1:
 E= -845.004294070484     Delta-E=       -0.000546483688 Rises=F Damp=F
 DIIS: error= 2.18D-03 at cycle  18 NSaved=  18.
 NSaved=18 IEnMin=18 EnMin= -845.004294070484     IErMin=18 ErrMin= 2.18D-03
 ErrMax= 2.18D-03  0.00D+00 EMaxC= 1.00D+00 BMatC= 6.09D-04 BMatP= 5.04D-04
 IDIUse=1 WtCom= 1.00D+00 WtEn= 0.00D+00
 Coeff-Com:  0.111D-02-0.856D-01 0.232D-01 0.101D+01-0.118D+01-0.278D-01
 Coeff-Com:  0.549D+00 0.708D+00-0.219D+01 0.666D+00-0.150D-01 0.908D+00
 Coeff-Com:  0.828D+00-0.115D+01-0.105D+01 0.157D+01-0.426D+01 0.471D+01
 Coeff:      0.111D-02-0.856D-01 0.232D-01 0.101D+01-0.118D+01-0.278D-01
 Coeff:      0.549D+00 0.708D+00-0.219D+01 0.666D+00-0.150D-01 0.908D+00
 Coeff:      0.828D+00-0.115D+01-0.105D+01 0.157D+01-0.426D+01 0.471D+01
 Gap=     0.274 Goal=   None    Shift=    0.500
 Gap=     0.145 Goal=   None    Shift=    0.500
 GapD=    0.145 DampG=1.000 DampE=1.000 DampFc=1.0000 IDamp=-1.
 RMSDP=9.79D-05 MaxDP=6.30D-03 DE=-5.46D-04 OVMax= 3.04D-02

 Cycle  19  Pass 1  IDiag  1:
 E= -845.004745713460     Delta-E=       -0.000451642975 Rises=F Damp=F
 DIIS: error= 1.94D-03 at cycle  19 NSaved=  19.
 NSaved=19 IEnMin=19 EnMin= -845.004745713460     IErMin=19 ErrMin= 1.94D-03
 ErrMax= 1.94D-03  0.00D+00 EMaxC= 1.00D+00 BMatC= 5.53D-04 BMatP= 5.04D-04
 IDIUse=1 WtCom= 1.00D+00 WtEn= 0.00D+00
 Coeff-Com:  0.201D-02-0.794D-01 0.107D+00 0.729D+00-0.100D+01 0.360D-01
 Coeff-Com:  0.534D+00 0.236D+00-0.125D+01 0.301D+00 0.335D+00 0.215D+00
 Coeff-Com: -0.171D+00-0.377D+00 0.101D+01 0.727D+00-0.496D+01 0.279D+01
 Coeff-Com:  0.181D+01
 Coeff:      0.201D-02-0.794D-01 0.107D+00 0.729D+00-0.100D+01 0.360D-01
 Coeff:      0.534D+00 0.236D+00-0.125D+01 0.301D+00 0.335D+00 0.215D+00
 Coeff:     -0.171D+00-0.377D+00 0.101D+01 0.727D+00-0.496D+01 0.279D+01
 Coeff:      0.181D+01
 Gap=     0.273 Goal=   None    Shift=    0.500
 Gap=     0.146 Goal=   None    Shift=    0.500
 GapD=    0.146 DampG=1.000 DampE=1.000 DampFc=1.0000 IDamp=-1.
 RMSDP=7.17D-05 MaxDP=4.01D-03 DE=-4.52D-04 OVMax= 2.56D-02

 Cycle  20  Pass 1  IDiag  1:
 E= -845.005107237628     Delta-E=       -0.000361524168 Rises=F Damp=F
 DIIS: error= 1.69D-03 at cycle  20 NSaved=  20.
 NSaved=20 IEnMin=20 EnMin= -845.005107237628     IErMin=20 ErrMin= 1.69D-03
 ErrMax= 1.69D-03  0.00D+00 EMaxC= 1.00D+00 BMatC= 4.21D-04 BMatP= 5.04D-04
 IDIUse=1 WtCom= 1.00D+00 WtEn= 0.00D+00
 Coeff-Com: -0.232D-01 0.214D-02 0.109D+00 0.572D+00-0.116D+01 0.507D+00
 Coeff-Com:  0.403D+00-0.763D+00 0.357D+00-0.319D+00 0.121D+01 0.113D+00
 Coeff-Com: -0.310D+01 0.142D+01 0.425D+00 0.114D+01 0.205D+01-0.529D+01
 Coeff-Com: -0.208D+01 0.542D+01
 Coeff:     -0.232D-01 0.214D-02 0.109D+00 0.572D+00-0.116D+01 0.507D+00
 Coeff:      0.403D+00-0.763D+00 0.357D+00-0.319D+00 0.121D+01 0.113D+00
 Coeff:     -0.310D+01 0.142D+01 0.425D+00 0.114D+01 0.205D+01-0.529D+01
 Coeff:     -0.208D+01 0.542D+01
 Gap=     0.272 Goal=   None    Shift=    0.500
 Gap=     0.145 Goal=   None    Shift=    0.500
 GapD=    0.145 DampG=1.000 DampE=1.000 DampFc=1.0000 IDamp=-1.
 RMSDP=1.03D-04 MaxDP=6.35D-03 DE=-3.62D-04 OVMax= 2.75D-02

 Cycle  21  Pass 1  IDiag  1:
 E= -845.005395371542     Delta-E=       -0.000288133914 Rises=F Damp=F
 DIIS: error= 1.56D-03 at cycle  21 NSaved=  20.
 NSaved=20 IEnMin=20 EnMin= -845.005395371542     IErMin=20 ErrMin= 1.56D-03
 ErrMax= 1.56D-03  0.00D+00 EMaxC= 1.00D+00 BMatC= 4.99D-04 BMatP= 4.21D-04
 IDIUse=1 WtCom= 1.00D+00 WtEn= 0.00D+00
 Coeff-Com: -0.326D-01 0.140D-01 0.686D+00-0.103D+01 0.332D+00 0.343D+00
 Coeff-Com: -0.589D+00 0.268D+00-0.279D+00 0.118D+01 0.712D-01-0.290D+01
 Coeff-Com:  0.153D+01-0.500D+00 0.176D+01 0.205D+01-0.440D+01-0.286D+01
 Coeff-Com:  0.460D+01 0.756D+00
 Coeff:     -0.326D-01 0.140D-01 0.686D+00-0.103D+01 0.332D+00 0.343D+00
 Coeff:     -0.589D+00 0.268D+00-0.279D+00 0.118D+01 0.712D-01-0.290D+01
 Coeff:      0.153D+01-0.500D+00 0.176D+01 0.205D+01-0.440D+01-0.286D+01
 Coeff:      0.460D+01 0.756D+00
 Gap=     0.272 Goal=   None    Shift=    0.500
 Gap=     0.146 Goal=   None    Shift=    0.500
 GapD=    0.146 DampG=1.000 DampE=1.000 DampFc=1.0000 IDamp=-1.
 RMSDP=6.26D-05 MaxDP=3.28D-03 DE=-2.88D-04 OVMax= 2.20D-02

 Cycle  22  Pass 1  IDiag  1:
 E= -845.005636205472     Delta-E=       -0.000240833931 Rises=F Damp=F
 DIIS: error= 1.34D-03 at cycle  22 NSaved=  20.
 NSaved=20 IEnMin=20 EnMin= -845.005636205472     IErMin=20 ErrMin= 1.34D-03
 ErrMax= 1.34D-03  0.00D+00 EMaxC= 1.00D+00 BMatC= 3.90D-04 BMatP= 4.21D-04
 IDIUse=1 WtCom= 1.00D+00 WtEn= 0.00D+00
 Coeff-Com: -0.744D-01 0.441D+00-0.492D+00 0.698D-01 0.145D+00 0.150D+00
 Coeff-Com: -0.677D+00 0.202D+00 0.245D+00 0.955D+00-0.892D+00-0.419D+00
 Coeff-Com: -0.209D+01 0.234D+01 0.273D+01-0.973D+00-0.347D+01 0.151D+01
 Coeff-Com: -0.434D+01 0.563D+01
 Coeff:     -0.744D-01 0.441D+00-0.492D+00 0.698D-01 0.145D+00 0.150D+00
 Coeff:     -0.677D+00 0.202D+00 0.245D+00 0.955D+00-0.892D+00-0.419D+00
 Coeff:     -0.209D+01 0.234D+01 0.273D+01-0.973D+00-0.347D+01 0.151D+01
 Coeff:     -0.434D+01 0.563D+01
 Gap=     0.271 Goal=   None    Shift=    0.500
 Gap=     0.145 Goal=   None    Shift=    0.500
 GapD=    0.145 DampG=1.000 DampE=1.000 DampFc=1.0000 IDamp=-1.
 RMSDP=7.57D-05 MaxDP=3.62D-03 DE=-2.41D-04 OVMax= 2.18D-02

 Cycle  23  Pass 1  IDiag  1:
 E= -845.005822848231     Delta-E=       -0.000186642759 Rises=F Damp=F
 DIIS: error= 1.20D-03 at cycle  23 NSaved=  20.
 NSaved=20 IEnMin=20 EnMin= -845.005822848231     IErMin=20 ErrMin= 1.20D-03
 ErrMax= 1.20D-03  0.00D+00 EMaxC= 1.00D+00 BMatC= 3.85D-04 BMatP= 3.90D-04
 IDIUse=1 WtCom= 1.00D+00 WtEn= 0.00D+00
 Coeff-Com:  0.204D+00-0.325D+00 0.102D+00 0.100D+00 0.654D-01-0.539D+00
 Coeff-Com:  0.200D+00 0.220D+00 0.730D+00-0.564D+00-0.506D+00-0.176D+01
 Coeff-Com:  0.193D+01 0.233D+01-0.715D+00-0.273D+01 0.166D+01-0.544D+01
 Coeff-Com:  0.523D+01 0.804D+00
 Coeff:      0.204D+00-0.325D+00 0.102D+00 0.100D+00 0.654D-01-0.539D+00
 Coeff:      0.200D+00 0.220D+00 0.730D+00-0.564D+00-0.506D+00-0.176D+01
 Coeff:      0.193D+01 0.233D+01-0.715D+00-0.273D+01 0.166D+01-0.544D+01
 Coeff:      0.523D+01 0.804D+00
 Gap=     0.271 Goal=   None    Shift=    0.500
 Gap=     0.145 Goal=   None    Shift=    0.500
 GapD=    0.145 DampG=1.000 DampE=1.000 DampFc=1.0000 IDamp=-1.
 RMSDP=4.98D-05 MaxDP=2.09D-03 DE=-1.87D-04 OVMax= 1.77D-02

 Cycle  24  Pass 1  IDiag  1:
 E= -845.005971917525     Delta-E=       -0.000149069294 Rises=F Damp=F
 DIIS: error= 1.02D-03 at cycle  24 NSaved=  20.
 NSaved=20 IEnMin=20 EnMin= -845.005971917525     IErMin=20 ErrMin= 1.02D-03
 ErrMax= 1.02D-03  0.00D+00 EMaxC= 1.00D+00 BMatC= 2.96D-04 BMatP= 3.85D-04
 IDIUse=1 WtCom= 1.00D+00 WtEn= 0.00D+00
 Coeff-Com: -0.120D-01 0.210D-01-0.663D-01 0.137D+00-0.404D+00 0.165D+00
 Coeff-Com:  0.658D-01 0.627D+00-0.314D+00-0.402D+00-0.655D+00 0.413D+00
 Coeff-Com:  0.232D+01-0.239D+01-0.465D+00 0.231D+01-0.278D+01 0.181D+01
 Coeff-Com: -0.452D+01 0.512D+01
 Coeff:     -0.120D-01 0.210D-01-0.663D-01 0.137D+00-0.404D+00 0.165D+00
 Coeff:      0.658D-01 0.627D+00-0.314D+00-0.402D+00-0.655D+00 0.413D+00
 Coeff:      0.232D+01-0.239D+01-0.465D+00 0.231D+01-0.278D+01 0.181D+01
 Coeff:     -0.452D+01 0.512D+01
 Gap=     0.270 Goal=   None    Shift=    0.500
 Gap=     0.145 Goal=   None    Shift=    0.500
 GapD=    0.145 DampG=1.000 DampE=1.000 DampFc=1.0000 IDamp=-1.
 RMSDP=6.03D-05 MaxDP=2.82D-03 DE=-1.49D-04 OVMax= 1.74D-02

 Cycle  25  Pass 1  IDiag  1:
 E= -845.006067681497     Delta-E=       -0.000095763972 Rises=F Damp=F
 DIIS: error= 9.10D-04 at cycle  25 NSaved=  20.
 NSaved=20 IEnMin=20 EnMin= -845.006067681497     IErMin=20 ErrMin= 9.10D-04
 ErrMax= 9.10D-04  0.00D+00 EMaxC= 1.00D+00 BMatC= 3.03D-04 BMatP= 2.96D-04
 IDIUse=1 WtCom= 1.00D+00 WtEn= 0.00D+00
 Coeff-Com: -0.242D-02-0.408D-01 0.995D-01-0.364D+00 0.159D+00 0.266D+00
 Coeff-Com:  0.447D+00-0.783D+00 0.471D-01-0.438D+00 0.461D+00 0.193D+01
 Coeff-Com: -0.245D+01-0.803D+00 0.236D+01-0.727D+00 0.933D+00-0.563D+01
 Coeff-Com:  0.437D+01 0.115D+01
 Coeff:     -0.242D-02-0.408D-01 0.995D-01-0.364D+00 0.159D+00 0.266D+00
 Coeff:      0.447D+00-0.783D+00 0.471D-01-0.438D+00 0.461D+00 0.193D+01
 Coeff:     -0.245D+01-0.803D+00 0.236D+01-0.727D+00 0.933D+00-0.563D+01
 Coeff:      0.437D+01 0.115D+01
 Gap=     0.270 Goal=   None    Shift=    0.500
 Gap=     0.145 Goal=   None    Shift=    0.500
 RMSDP=3.54D-05 MaxDP=1.57D-03 DE=-9.58D-05 OVMax= 1.35D-02

 Cycle  26  Pass 1  IDiag  1:
 E= -845.006151972664     Delta-E=       -0.000084291167 Rises=F Damp=F
 DIIS: error= 7.60D-04 at cycle  26 NSaved=  20.
 NSaved=20 IEnMin=20 EnMin= -845.006151972664     IErMin=20 ErrMin= 7.60D-04
 ErrMax= 7.60D-04  0.00D+00 EMaxC= 1.00D+00 BMatC= 2.21D-04 BMatP= 2.96D-04
 IDIUse=1 WtCom= 1.00D+00 WtEn= 0.00D+00
 Coeff-Com:  0.745D-01-0.124D+00-0.249D+00 0.165D+00 0.260D+00 0.416D+00
 Coeff-Com: -0.747D+00-0.120D+00-0.556D+00 0.652D+00 0.223D+01-0.174D+01
 Coeff-Com: -0.177D+01 0.127D+01-0.631D-01 0.114D+01-0.709D+00 0.928D+00
 Coeff-Com: -0.580D+01 0.575D+01
 Coeff:      0.745D-01-0.124D+00-0.249D+00 0.165D+00 0.260D+00 0.416D+00
 Coeff:     -0.747D+00-0.120D+00-0.556D+00 0.652D+00 0.223D+01-0.174D+01
 Coeff:     -0.177D+01 0.127D+01-0.631D-01 0.114D+01-0.709D+00 0.928D+00
 Coeff:     -0.580D+01 0.575D+01
 Gap=     0.270 Goal=   None    Shift=    0.500
 Gap=     0.146 Goal=   None    Shift=    0.500
 RMSDP=2.81D-05 MaxDP=1.34D-03 DE=-8.43D-05 OVMax= 1.11D-02

 Cycle  27  Pass 1  IDiag  1:
 E= -845.006209059382     Delta-E=       -0.000057086718 Rises=F Damp=F
 DIIS: error= 6.32D-04 at cycle  27 NSaved=  20.
 NSaved=20 IEnMin=20 EnMin= -845.006209059382     IErMin=20 ErrMin= 6.32D-04
 ErrMax= 6.32D-04  0.00D+00 EMaxC= 1.00D+00 BMatC= 1.61D-04 BMatP= 2.21D-04
 IDIUse=1 WtCom= 1.00D+00 WtEn= 0.00D+00
 Coeff-Com:  0.541D-01-0.326D+00 0.204D+00-0.145D-01 0.503D+00-0.248D+00
 Coeff-Com: -0.390D+00-0.863D+00 0.681D+00 0.212D+01-0.102D+01-0.160D+01
 Coeff-Com:  0.718D+00-0.138D+01 0.168D+01 0.160D+01-0.275D-01-0.613D+01
 Coeff-Com:  0.358D+01 0.186D+01
 Coeff:      0.541D-01-0.326D+00 0.204D+00-0.145D-01 0.503D+00-0.248D+00
 Coeff:     -0.390D+00-0.863D+00 0.681D+00 0.212D+01-0.102D+01-0.160D+01
 Coeff:      0.718D+00-0.138D+01 0.168D+01 0.160D+01-0.275D-01-0.613D+01
 Coeff:      0.358D+01 0.186D+01
 Gap=     0.270 Goal=   None    Shift=    0.500
 Gap=     0.146 Goal=   None    Shift=    0.500
 RMSDP=2.04D-05 MaxDP=1.05D-03 DE=-5.71D-05 OVMax= 8.74D-03

 Cycle  28  Pass 1  IDiag  1:
 E= -845.006249246820     Delta-E=       -0.000040187438 Rises=F Damp=F
 DIIS: error= 5.17D-04 at cycle  28 NSaved=  20.
 NSaved=20 IEnMin=20 EnMin= -845.006249246820     IErMin=20 ErrMin= 5.17D-04
 ErrMax= 5.17D-04  0.00D+00 EMaxC= 1.00D+00 BMatC= 1.09D-04 BMatP= 1.61D-04
 IDIUse=1 WtCom= 1.00D+00 WtEn= 0.00D+00
 Coeff-Com: -0.202D+00 0.171D+00 0.800D-02 0.378D+00-0.202D+00-0.319D+00
 Coeff-Com: -0.632D+00 0.532D+00 0.135D+01-0.674D+00-0.718D+00 0.536D+00
 Coeff-Com: -0.183D+01 0.141D+01 0.953D+00 0.261D+00-0.168D+01-0.674D+00
 Coeff-Com: -0.670D-01 0.241D+01
 Coeff:     -0.202D+00 0.171D+00 0.800D-02 0.378D+00-0.202D+00-0.319D+00
 Coeff:     -0.632D+00 0.532D+00 0.135D+01-0.674D+00-0.718D+00 0.536D+00
 Coeff:     -0.183D+01 0.141D+01 0.953D+00 0.261D+00-0.168D+01-0.674D+00
 Coeff:     -0.670D-01 0.241D+01
 Gap=     0.270 Goal=   None    Shift=    0.500
 Gap=     0.145 Goal=   None    Shift=    0.500
 RMSDP=1.49D-05 MaxDP=7.53D-04 DE=-4.02D-05 OVMax= 6.77D-03

 Cycle  29  Pass 1  IDiag  1:
 E= -845.006277604333     Delta-E=       -0.000028357513 Rises=F Damp=F
 DIIS: error= 4.12D-04 at cycle  29 NSaved=  20.
 NSaved=20 IEnMin=20 EnMin= -845.006277604333     IErMin=20 ErrMin= 4.12D-04
 ErrMax= 4.12D-04  0.00D+00 EMaxC= 1.00D+00 BMatC= 6.76D-05 BMatP= 1.09D-04
 IDIUse=1 WtCom= 1.00D+00 WtEn= 0.00D+00
 Coeff-Com: -0.299D-01 0.393D-01 0.136D+00-0.102D+00-0.126D+00-0.109D+00
 Coeff-Com:  0.180D+00 0.103D+00-0.240D+00 0.225D+00 0.428D+00-0.119D+01
 Coeff-Com:  0.497D+00-0.727D+00 0.923D+00 0.240D+01-0.293D+01-0.162D+01
 Coeff-Com:  0.876D+00 0.227D+01
 Coeff:     -0.299D-01 0.393D-01 0.136D+00-0.102D+00-0.126D+00-0.109D+00
 Coeff:      0.180D+00 0.103D+00-0.240D+00 0.225D+00 0.428D+00-0.119D+01
 Coeff:      0.497D+00-0.727D+00 0.923D+00 0.240D+01-0.293D+01-0.162D+01
 Coeff:      0.876D+00 0.227D+01
 Gap=     0.270 Goal=   None    Shift=    0.500
 Gap=     0.145 Goal=   None    Shift=    0.500
 RMSDP=1.43D-05 MaxDP=6.63D-04 DE=-2.84D-05 OVMax= 5.88D-03

 Cycle  30  Pass 1  IDiag  1:
 E= -845.006295840398     Delta-E=       -0.000018236065 Rises=F Damp=F
 DIIS: error= 3.27D-04 at cycle  30 NSaved=  20.
 NSaved=20 IEnMin=20 EnMin= -845.006295840398     IErMin=20 ErrMin= 3.27D-04
 ErrMax= 3.27D-04  0.00D+00 EMaxC= 1.00D+00 BMatC= 4.29D-05 BMatP= 6.76D-05
 IDIUse=1 WtCom= 1.00D+00 WtEn= 0.00D+00
 Coeff-Com:  0.297D-01-0.102D+00 0.446D-01 0.104D+00-0.138D+00 0.145D+00
 Coeff-Com: -0.780D-01-0.418D-01-0.599D-01 0.225D+00-0.895D-01-0.430D-02
 Coeff-Com: -0.815D+00 0.661D+00 0.114D+01-0.681D+00-0.112D+01-0.999D+00
 Coeff-Com:  0.127D+01 0.151D+01
 Coeff:      0.297D-01-0.102D+00 0.446D-01 0.104D+00-0.138D+00 0.145D+00
 Coeff:     -0.780D-01-0.418D-01-0.599D-01 0.225D+00-0.895D-01-0.430D-02
 Coeff:     -0.815D+00 0.661D+00 0.114D+01-0.681D+00-0.112D+01-0.999D+00
 Coeff:      0.127D+01 0.151D+01
 Gap=     0.270 Goal=   None    Shift=    0.500
 Gap=     0.145 Goal=   None    Shift=    0.500
 RMSDP=9.07D-06 MaxDP=4.20D-04 DE=-1.82D-05 OVMax= 4.12D-03

 Cycle  31  Pass 1  IDiag  1:
 E= -845.006307851478     Delta-E=       -0.000012011079 Rises=F Damp=F
 DIIS: error= 2.58D-04 at cycle  31 NSaved=  20.
 NSaved=20 IEnMin=20 EnMin= -845.006307851478     IErMin=20 ErrMin= 2.58D-04
 ErrMax= 2.58D-04  0.00D+00 EMaxC= 1.00D+00 BMatC= 2.41D-05 BMatP= 4.29D-05
 IDIUse=1 WtCom= 1.00D+00 WtEn= 0.00D+00
 Coeff-Com: -0.525D-01 0.211D-01 0.118D+00-0.872D-01 0.377D-01-0.860D-01
 Coeff-Com:  0.542D-01-0.311D+00 0.162D+00 0.646D+00-0.182D+00-0.781D+00
 Coeff-Com:  0.254D+00-0.201D+00 0.106D+01-0.520D-01-0.153D+01 0.257D-01
 Coeff-Com: -0.368D+00 0.227D+01
 Coeff:     -0.525D-01 0.211D-01 0.118D+00-0.872D-01 0.377D-01-0.860D-01
 Coeff:      0.542D-01-0.311D+00 0.162D+00 0.646D+00-0.182D+00-0.781D+00
 Coeff:      0.254D+00-0.201D+00 0.106D+01-0.520D-01-0.153D+01 0.257D-01
 Coeff:     -0.368D+00 0.227D+01
 Gap=     0.270 Goal=   None    Shift=    0.500
 Gap=     0.145 Goal=   None    Shift=    0.500
 RMSDP=8.12D-06 MaxDP=3.56D-04 DE=-1.20D-05 OVMax= 3.50D-03

 Cycle  32  Pass 1  IDiag  1:
 E= -845.006314329702     Delta-E=       -0.000006478224 Rises=F Damp=F
 DIIS: error= 2.12D-04 at cycle  32 NSaved=  20.
 NSaved=20 IEnMin=20 EnMin= -845.006314329702     IErMin=20 ErrMin= 2.12D-04
 ErrMax= 2.12D-04  0.00D+00 EMaxC= 1.00D+00 BMatC= 1.66D-05 BMatP= 2.41D-05
 IDIUse=1 WtCom= 1.00D+00 WtEn= 0.00D+00
 Coeff-Com: -0.305D-01 0.384D-01 0.506D-02 0.666D-03 0.386D-01 0.482D-01
 Coeff-Com: -0.383D+00 0.159D+00 0.151D+00 0.110D+00 0.110D+00-0.240D+00
 Coeff-Com: -0.693D+00 0.882D+00 0.302D+00-0.667D+00-0.258D+00-0.950D+00
 Coeff-Com:  0.640D+00 0.174D+01
 Coeff:     -0.305D-01 0.384D-01 0.506D-02 0.666D-03 0.386D-01 0.482D-01
 Coeff:     -0.383D+00 0.159D+00 0.151D+00 0.110D+00 0.110D+00-0.240D+00
 Coeff:     -0.693D+00 0.882D+00 0.302D+00-0.667D+00-0.258D+00-0.950D+00
 Coeff:      0.640D+00 0.174D+01
 Gap=     0.270 Goal=   None    Shift=    0.500
 Gap=     0.145 Goal=   None    Shift=    0.500
 RMSDP=6.77D-06 MaxDP=3.04D-04 DE=-6.48D-06 OVMax= 2.87D-03

 >>>>>>>>>> Convergence criterion not met.
 SCF Done:  E(ULC-wHPBE) =  -845.006314330     A.U. after   33 cycles
            NFock= 32  Conv=0.68D-05     -V/T= 2.0053
 <Sx>= 0.0000 <Sy>= 0.0000 <Sz>= 0.5000 <S**2>= 0.7837 S= 0.5167
 <L.S>= 0.000000000000E+00
 KE= 8.405392707344D+02 PE=-4.898800378596D+03 EE= 1.725794588693D+03
 Annihilation of the first spin contaminant:
 S**2 before annihilation     0.7837,   after     0.7507
 Leave Link  502 at Thu Jan 21 00:30:28 2021, MaxMem=  4026531840 cpu:            9046.5 elap:            1133.7
 (Enter /opt/ohpc/pub/libs/gaussian/g16-A.03/sandybridge/g16/l508.exe)
 Integral symmetry usage will be decided dynamically.
 Tight linear equation convergence will be used.
 ULC-wHPBE wavefunction.
 Quadratic Convergence SCF Method.
 Line search only if initial step raises energy.
 FoFJK:  IHMeth= 1 ICntrl=       0 DoSepK=T KAlg= 0 I1Cent=           0 FoldK=F
 IRaf=         1 NMat=       1 IRICut=       1 DoRegI=T DoRafI=F ISym2E= 1 IDoP0=0 IntGTp=1.
 FoFCou: FMM=F IPFlag=           0 FMFlag=      100000 FMFlg1=           0
         NFxFlg=           0 DoJE=T BraDBF=F KetDBF=F FulRan=T
         wScrn=  0.000000 ICntrl=       500 IOpCl=  0 I1Cent=           0 NGrid=           0
         NMat0=    1 NMatS0=      1 NMatT0=    0 NMatD0=    1 NMtDS0=    0 NMtDT0=    0
 Petite list used in FoFCou.
 Iteration   1 EE= -845.006318738871                                    Grad=2.370D-03 Max rot=    0.0446 deg.
 QCNR:  CnvC1=2.37D-08 CnvC2=2.37D-07
 LinEq1:  Iter=  0 NonCon=     1 RMS=2.43D-05 Max=5.37D-03 NDo=     1
 AX will form     1 AO Fock derivatives at one time.
 LinEq1:  Iter=  1 NonCon=     1 RMS=1.10D-05 Max=9.56D-04 NDo=     1
 LinEq1:  Iter=  2 NonCon=     1 RMS=5.37D-06 Max=3.71D-04 NDo=     1
 LinEq1:  Iter=  3 NonCon=     1 RMS=4.57D-06 Max=5.06D-04 NDo=     1
 LinEq1:  Iter=  4 NonCon=     1 RMS=2.12D-06 Max=1.27D-04 NDo=     1
 LinEq1:  Iter=  5 NonCon=     1 RMS=1.56D-06 Max=1.78D-04 NDo=     1
 LinEq1:  Iter=  6 NonCon=     1 RMS=6.90D-07 Max=4.61D-05 NDo=     1
 LinEq1:  Iter=  7 NonCon=     1 RMS=4.74D-07 Max=4.09D-05 NDo=     1
 LinEq1:  Iter=  8 NonCon=     1 RMS=2.25D-07 Max=1.36D-05 NDo=     1
 LinEq1:  Iter=  9 NonCon=     1 RMS=1.49D-07 Max=1.33D-05 NDo=     1
 LinEq1:  Iter= 10 NonCon=     1 RMS=1.08D-07 Max=8.76D-06 NDo=     1
 LinEq1:  Iter= 11 NonCon=     1 RMS=6.52D-08 Max=5.09D-06 NDo=     1
 LinEq1:  Iter= 12 NonCon=     1 RMS=3.93D-08 Max=2.57D-06 NDo=     1
 LinEq1:  Iter= 13 NonCon=     1 RMS=1.70D-08 Max=1.04D-06 NDo=     1
 LinEq1:  Iter= 14 NonCon=     1 RMS=9.68D-09 Max=4.59D-07 NDo=     1
 LinEq1:  Iter= 15 NonCon=     1 RMS=4.91D-09 Max=3.32D-07 NDo=     1
 LinEq1:  Iter= 16 NonCon=     0 RMS=2.78D-09 Max=2.06D-07 NDo=     1
 Linear equations converged to 2.370D-08 2.370D-07 after    16 iterations.
 Angle between quadratic step and gradient=  68.39 degrees.
     ILin= 1 X=0.000D+00 Y=-8.450063187389D+02 DE= 0.00D+00 F= -1.56D-05
     ILin= 2 X=1.000D+00 Y=-8.450063265515D+02 DE=-7.81D-06
 Iteration   2 EE= -845.006326551509     Delta-E=       -0.000007812639 Grad=1.294D-05 Max rot=    0.0003 deg.
 Rotation gradient small -- convergence achieved.
 SCF Done:  E(ULC-wHPBE) =  -845.006326552     a.u. after    2 cycles
            Convg  =    0.1294D-04                    18 Fock formations.
              S**2 =  0.7841                  -V/T =  2.0053
 <Sx>= 0.0000 <Sy>= 0.0000 <Sz>= 0.5000 <S**2>= 0.7841 S= 0.5169
 <L.S>= 0.000000000000E+00
 Annihilation of the first spin contaminant:
 S**2 before annihilation     0.7841,   after     0.7508
 Leave Link  508 at Thu Jan 21 00:40:07 2021, MaxMem=  4026531840 cpu:            4612.1 elap:             578.8
 (Enter /opt/ohpc/pub/libs/gaussian/g16-A.03/sandybridge/g16/l601.exe)
 Copying SCF densities to generalized density rwf, IOpCl= 1 IROHF=0.

 **********************************************************************

            Population analysis using the SCF density.

 **********************************************************************

 Orbital symmetries:
 Alpha Orbitals:
       Occupied  (A) (A) (A) (A) (A) (A) (A) (A) (A) (A) (A) (A)
                 (A) (A) (A) (A) (A) (A) (A) (A) (A) (A) (A) (A)
                 (A) (A) (A) (A) (A) (A) (A) (A) (A) (A) (A) (A)
                 (A) (A) (A) (A) (A) (A) (A) (A) (A) (A) (A) (A)
                 (A) (A) (A) (A) (A) (A) (A) (A) (A) (A) (A) (A)
                 (A) (A) (A) (A) (A) (A) (A) (A) (A) (A) (A) (A)
                 (A) (A)
       Virtual   (A) (A) (A) (A) (A) (A) (A) (A) (A) (A) (A) (A)
                 (A) (A) (A) (A) (A) (A) (A) (A) (A) (A) (A) (A)
                 (A) (A) (A) (A) (A) (A) (A) (A) (A) (A) (A) (A)
                 (A) (A) (A) (A) (A) (A) (A) (A) (A) (A) (A) (A)
                 (A) (A) (A) (A) (A) (A) (A) (A) (A) (A) (A) (A)
                 (A) (A) (A) (A) (A) (A) (A) (A) (A) (A) (A) (A)
                 (A) (A) (A) (A) (A) (A) (A) (A) (A) (A) (A) (A)
                 (A) (A) (A) (A) (A) (A) (A) (A) (A) (A) (A) (A)
                 (A) (A) (A) (A) (A) (A) (A) (A) (A) (A) (A) (A)
                 (A) (A) (A) (A) (A) (A) (A) (A) (A) (A) (A) (A)
                 (A) (A) (A) (A) (A) (A) (A) (A) (A) (A) (A) (A)
                 (A) (A) (A) (A) (A) (A) (A) (A) (A) (A) (A) (A)
                 (A) (A) (A) (A) (A) (A) (A) (A) (A) (A) (A) (A)
                 (A) (A) (A) (A) (A) (A) (A) (A) (A) (A) (A) (A)
                 (A) (A) (A) (A) (A) (A) (A) (A) (A) (A) (A) (A)
                 (A) (A) (A) (A) (A) (A) (A) (A) (A) (A) (A) (A)
                 (A) (A) (A) (A) (A) (A) (A) (A) (A) (A) (A) (A)
                 (A) (A) (A) (A) (A) (A) (A) (A) (A) (A) (A) (A)
                 (A) (A) (A) (A) (A) (A) (A) (A) (A) (A) (A) (A)
                 (A) (A) (A) (A) (A) (A) (A) (A) (A) (A) (A) (A)
                 (A) (A) (A) (A) (A) (A) (A) (A) (A) (A) (A) (A)
                 (A) (A) (A) (A) (A) (A) (A) (A) (A) (A) (A) (A)
                 (A) (A) (A) (A) (A) (A) (A) (A) (A) (A) (A) (A)
                 (A) (A) (A) (A) (A) (A) (A) (A) (A) (A) (A) (A)
                 (A) (A) (A) (A) (A) (A) (A) (A) (A) (A) (A) (A)
                 (A) (A) (A) (A) (A) (A) (A) (A) (A) (A) (A) (A)
                 (A) (A) (A) (A) (A) (A) (A) (A) (A) (A) (A) (A)
                 (A) (A) (A) (A) (A) (A) (A) (A) (A) (A) (A) (A)
                 (A) (A) (A) (A) (A) (A) (A) (A) (A) (A) (A) (A)
                 (A) (A) (A) (A) (A) (A) (A) (A) (A) (A) (A) (A)
                 (A) (A) (A) (A) (A) (A) (A) (A) (A) (A) (A) (A)
                 (A) (A) (A) (A) (A) (A) (A) (A) (A) (A) (A) (A)
                 (A) (A) (A) (A) (A) (A) (A) (A) (A) (A) (A) (A)
                 (A) (A) (A) (A) (A) (A) (A) (A) (A) (A) (A) (A)
                 (A) (A) (A) (A) (A) (A) (A) (A) (A) (A) (A) (A)
                 (A) (A) (A) (A) (A) (A) (A) (A) (A) (A) (A) (A)
                 (A) (A) (A) (A) (A) (A) (A) (A) (A) (A) (A) (A)
                 (A) (A) (A) (A) (A) (A) (A)
 Beta  Orbitals:
       Occupied  (A) (A) (A) (A) (A) (A) (A) (A) (A) (A) (A) (A)
                 (A) (A) (A) (A) (A) (A) (A) (A) (A) (A) (A) (A)
                 (A) (A) (A) (A) (A) (A) (A) (A) (A) (A) (A) (A)
                 (A) (A) (A) (A) (A) (A) (A) (A) (A) (A) (A) (A)
                 (A) (A) (A) (A) (A) (A) (A) (A) (A) (A) (A) (A)
                 (A) (A) (A) (A) (A) (A) (A) (A) (A) (A) (A) (A)
                 (A)
       Virtual   (A) (A) (A) (A) (A) (A) (A) (A) (A) (A) (A) (A)
                 (A) (A) (A) (A) (A) (A) (A) (A) (A) (A) (A) (A)
                 (A) (A) (A) (A) (A) (A) (A) (A) (A) (A) (A) (A)
                 (A) (A) (A) (A) (A) (A) (A) (A) (A) (A) (A) (A)
                 (A) (A) (A) (A) (A) (A) (A) (A) (A) (A) (A) (A)
                 (A) (A) (A) (A) (A) (A) (A) (A) (A) (A) (A) (A)
                 (A) (A) (A) (A) (A) (A) (A) (A) (A) (A) (A) (A)
                 (A) (A) (A) (A) (A) (A) (A) (A) (A) (A) (A) (A)
                 (A) (A) (A) (A) (A) (A) (A) (A) (A) (A) (A) (A)
                 (A) (A) (A) (A) (A) (A) (A) (A) (A) (A) (A) (A)
                 (A) (A) (A) (A) (A) (A) (A) (A) (A) (A) (A) (A)
                 (A) (A) (A) (A) (A) (A) (A) (A) (A) (A) (A) (A)
                 (A) (A) (A) (A) (A) (A) (A) (A) (A) (A) (A) (A)
                 (A) (A) (A) (A) (A) (A) (A) (A) (A) (A) (A) (A)
                 (A) (A) (A) (A) (A) (A) (A) (A) (A) (A) (A) (A)
                 (A) (A) (A) (A) (A) (A) (A) (A) (A) (A) (A) (A)
                 (A) (A) (A) (A) (A) (A) (A) (A) (A) (A) (A) (A)
                 (A) (A) (A) (A) (A) (A) (A) (A) (A) (A) (A) (A)
                 (A) (A) (A) (A) (A) (A) (A) (A) (A) (A) (A) (A)
                 (A) (A) (A) (A) (A) (A) (A) (A) (A) (A) (A) (A)
                 (A) (A) (A) (A) (A) (A) (A) (A) (A) (A) (A) (A)
                 (A) (A) (A) (A) (A) (A) (A) (A) (A) (A) (A) (A)
                 (A) (A) (A) (A) (A) (A) (A) (A) (A) (A) (A) (A)
                 (A) (A) (A) (A) (A) (A) (A) (A) (A) (A) (A) (A)
                 (A) (A) (A) (A) (A) (A) (A) (A) (A) (A) (A) (A)
                 (A) (A) (A) (A) (A) (A) (A) (A) (A) (A) (A) (A)
                 (A) (A) (A) (A) (A) (A) (A) (A) (A) (A) (A) (A)
                 (A) (A) (A) (A) (A) (A) (A) (A) (A) (A) (A) (A)
                 (A) (A) (A) (A) (A) (A) (A) (A) (A) (A) (A) (A)
                 (A) (A) (A) (A) (A) (A) (A) (A) (A) (A) (A) (A)
                 (A) (A) (A) (A) (A) (A) (A) (A) (A) (A) (A) (A)
                 (A) (A) (A) (A) (A) (A) (A) (A) (A) (A) (A) (A)
                 (A) (A) (A) (A) (A) (A) (A) (A) (A) (A) (A) (A)
                 (A) (A) (A) (A) (A) (A) (A) (A) (A) (A) (A) (A)
                 (A) (A) (A) (A) (A) (A) (A) (A) (A) (A) (A) (A)
[...]
    29  H(1)               0.00004       0.19637       0.07007       0.06550
    30  H(1)               0.00177       7.91758       2.82519       2.64102
    31  C(13)             -0.00179      -2.01558      -0.71921      -0.67233
    32  H(1)               0.00152       6.78547       2.42122       2.26339
    33  H(1)               0.00187       8.34816       2.97883       2.78465
    34  H(1)               0.00011       0.49994       0.17839       0.16676
    35  C(13)             -0.00194      -2.17891      -0.77749      -0.72681
    36  H(1)               0.00187       8.34985       2.97944       2.78521
    37  H(1)               0.00004       0.19418       0.06929       0.06477
    38  H(1)               0.00177       7.93269       2.83058       2.64606
    39  C(13)             -0.00179      -2.01671      -0.71961      -0.67270
    40  H(1)               0.00150       6.72430       2.39940       2.24298
    41  H(1)               0.00188       8.38605       2.99235       2.79729
    42  H(1)               0.00012       0.52363       0.18684       0.17466
 --------------------------------------------------------
       Center         ----  Spin Dipole Couplings  ----
                      3XX-RR        3YY-RR        3ZZ-RR
 --------------------------------------------------------
     1   Atom        0.016897      0.014997     -0.031894
     2   Atom       -0.156884     -0.139202      0.296085
     3   Atom       -0.059547     -0.038840      0.098387
     4   Atom        0.016899      0.014996     -0.031895
     5   Atom       -0.115413     -0.112828      0.228240
     6   Atom       -0.059539     -0.038838      0.098377
     7   Atom        0.022388     -0.018739     -0.003649
     8   Atom       -0.006191      0.010363     -0.004172
     9   Atom       -0.001383      0.004473     -0.003090
    10   Atom       -0.006191      0.010363     -0.004172
    11   Atom       -0.041579     -0.046901      0.088480
    12   Atom       -0.061039     -0.018979      0.080018
    13   Atom       -0.061048     -0.018987      0.080035
    14   Atom        0.030695      0.016702     -0.047398
    15   Atom        0.030695      0.016706     -0.047401
    16   Atom       -0.107283     -0.073760      0.181042
    17   Atom       -0.004654      0.007700     -0.003046
    18   Atom       -0.004654      0.007701     -0.003047
    19   Atom        0.001602      0.000466     -0.002068
    20   Atom        0.001602      0.000466     -0.002069
    21   Atom       -0.001383      0.004473     -0.003090
    22   Atom        0.036887      0.018244     -0.055131
    23   Atom       -0.005155     -0.004078      0.009233
    24   Atom       -0.005150     -0.004087      0.009236
    25   Atom       -0.092086     -0.091482      0.183567
    26   Atom       -0.092094     -0.091467      0.183561
    27   Atom       -0.001231      0.000357      0.000874
    28   Atom       -0.000474      0.001371     -0.000898
    29   Atom        0.001254      0.000262     -0.001516
    30   Atom       -0.000333      0.001056     -0.000723
    31   Atom        0.001885     -0.002137      0.000252
    32   Atom        0.001042     -0.000177     -0.000865
    33   Atom        0.001418     -0.000744     -0.000674
    34   Atom        0.001391     -0.000236     -0.001156
    35   Atom       -0.001234      0.000355      0.000879
    36   Atom       -0.000475      0.001375     -0.000900
    37   Atom        0.001254      0.000262     -0.001516
    38   Atom       -0.000333      0.001052     -0.000719
    39   Atom        0.001888     -0.002132      0.000244
    40   Atom        0.001045     -0.000172     -0.000873
    41   Atom        0.001417     -0.000749     -0.000668
    42   Atom        0.001392     -0.000236     -0.001156
 --------------------------------------------------------
                        XY            XZ            YZ
 --------------------------------------------------------
     1   Atom        0.000048     -0.009416      0.007586
     2   Atom       -0.000007      0.000031     -0.107746
     3   Atom        0.007809     -0.020254     -0.050924
     4   Atom       -0.000047      0.009408      0.007585
     5   Atom       -0.000004      0.000032     -0.043955
     6   Atom       -0.007816      0.020277     -0.050920
     7   Atom       -0.000001     -0.000002     -0.003957
     8   Atom       -0.004382     -0.000451      0.002265
     9   Atom        0.000614      0.000216      0.002537
    10   Atom        0.004383      0.000451      0.002265
    11   Atom        0.000002      0.000013      0.021389
    12   Atom        0.010697      0.016747      0.075469
    13   Atom       -0.010684     -0.016725      0.075471
    14   Atom        0.002444      0.006880     -0.028229
    15   Atom       -0.002449     -0.006894     -0.028227
    16   Atom        0.000005      0.000015      0.106945
    17   Atom       -0.003305      0.000780     -0.003408
    18   Atom        0.003306     -0.000780     -0.003408
    19   Atom       -0.001308      0.000874     -0.001654
    20   Atom        0.001308     -0.000874     -0.001654
    21   Atom       -0.000613     -0.000216      0.002538
    22   Atom        0.000001     -0.000001     -0.001125
    23   Atom       -0.003124      0.013342      0.000860
    24   Atom        0.003128     -0.013365      0.000830
    25   Atom        0.000871     -0.012705     -0.022924
    26   Atom       -0.000865      0.012591     -0.023017
    27   Atom        0.001080      0.000897      0.000936
    28   Atom        0.000210     -0.000055     -0.000997
    29   Atom        0.000067      0.000134      0.000289
    30   Atom       -0.000170     -0.000193      0.001172
    31   Atom       -0.000640      0.001029     -0.000674
    32   Atom       -0.000985      0.000781     -0.000581
    33   Atom       -0.000696     -0.001014      0.000418
    34   Atom        0.000418      0.000490      0.000034
    35   Atom       -0.001081     -0.000904      0.000945
    36   Atom       -0.000210      0.000055     -0.000996
    37   Atom       -0.000067     -0.000134      0.000290
    38   Atom        0.000170      0.000194      0.001173
    39   Atom        0.000638     -0.001014     -0.000679
    40   Atom        0.000990     -0.000777     -0.000576
    41   Atom        0.000688      0.001017      0.000415
    42   Atom       -0.000417     -0.000494      0.000034
 --------------------------------------------------------


 ---------------------------------------------------------------------------------
              Anisotropic Spin Dipole Couplings in Principal Axis System
 ---------------------------------------------------------------------------------

       Atom             a.u.   MegaHertz   Gauss  10(-4) cm-1        Axes

              Baa    -0.0348    -4.666    -1.665    -1.556  0.1774 -0.1485  0.9729
     1 C(13)  Bbb     0.0155     2.087     0.745     0.696  0.4120  0.9090  0.0636
              Bcc     0.0192     2.579     0.920     0.860  0.8938 -0.3895 -0.2225
 
              Baa    -0.1644   -22.062    -7.872    -7.359  0.0000  0.9737  0.2278
     2 C(13)  Bbb    -0.1569   -21.052    -7.512    -7.022  1.0000 -0.0000 -0.0001
              Bcc     0.3213    43.115    15.384    14.382  0.0001 -0.2278  0.9737
 
              Baa    -0.0624    -8.368    -2.986    -2.791  0.9806 -0.1849  0.0650
     3 C(13)  Bbb    -0.0555    -7.449    -2.658    -2.485  0.1539  0.9318  0.3286
              Bcc     0.1179    15.817     5.644     5.276 -0.1213 -0.3122  0.9422
 
              Baa    -0.0348    -4.665    -1.665    -1.556 -0.1773 -0.1485  0.9729
     4 C(13)  Bbb     0.0155     2.086     0.744     0.696 -0.4119  0.9090  0.0636
              Bcc     0.0192     2.579     0.920     0.860  0.8938  0.3895  0.2223
 
              Baa    -0.1184   -15.888    -5.669    -5.300  0.0000  0.9921  0.1258
     5 C(13)  Bbb    -0.1154   -15.487    -5.526    -5.166  1.0000 -0.0000 -0.0001
              Bcc     0.2338    31.376    11.196    10.466  0.0001 -0.1258  0.9921
 
              Baa    -0.0624    -8.368    -2.986    -2.791  0.9806  0.1848 -0.0652
     6 C(13)  Bbb    -0.0555    -7.448    -2.658    -2.484 -0.1538  0.9319  0.3286
              Bcc     0.1179    15.816     5.644     5.276  0.1214 -0.3122  0.9422
 
              Baa    -0.0197   -10.518    -3.753    -3.509  0.0000  0.9710  0.2391
     7 H(1)   Bbb    -0.0027    -1.427    -0.509    -0.476  0.0001 -0.2391  0.9710
              Bcc     0.0224    11.945     4.262     3.985  1.0000 -0.0000 -0.0001
 
              Baa    -0.0073    -3.886    -1.387    -1.296  0.9687  0.2454 -0.0383
     8 H(1)   Bbb    -0.0045    -2.402    -0.857    -0.801  0.0719 -0.1295  0.9890
              Bcc     0.0118     6.288     2.244     2.097 -0.2378  0.9607  0.1431
 
              Baa    -0.0039    -2.061    -0.735    -0.687 -0.0113 -0.2904  0.9568
     9 H(1)   Bbb    -0.0014    -0.771    -0.275    -0.257  0.9952 -0.0958 -0.0173
              Bcc     0.0053     2.832     1.011     0.945  0.0967  0.9521  0.2901
 
              Baa    -0.0073    -3.886    -1.387    -1.296  0.9686 -0.2455  0.0382
    10 H(1)   Bbb    -0.0045    -2.402    -0.857    -0.801 -0.0718 -0.1295  0.9890
              Bcc     0.0118     6.288     2.244     2.097  0.2378  0.9607  0.1431
 
              Baa    -0.0502    -6.736    -2.404    -2.247  0.0000  0.9883 -0.1524
    11 C(13)  Bbb    -0.0416    -5.579    -1.991    -1.861  1.0000 -0.0000 -0.0001
              Bcc     0.0918    12.316     4.395     4.108  0.0001  0.1524  0.9883
 
              Baa    -0.0637    -8.548    -3.050    -2.851  0.9341 -0.3491  0.0744
    12 C(13)  Bbb    -0.0592    -7.945    -2.835    -2.650  0.3405  0.8089 -0.4794
              Bcc     0.1229    16.493     5.885     5.502  0.1071  0.4732  0.8744
 
              Baa    -0.0637    -8.549    -3.050    -2.852  0.9341  0.3490 -0.0746
    13 C(13)  Bbb    -0.0592    -7.945    -2.835    -2.650 -0.3405  0.8089 -0.4793
              Bcc     0.1229    16.494     5.886     5.502 -0.1070  0.4731  0.8745
 
              Baa    -0.0587    -7.871    -2.808    -2.625 -0.0814  0.3520  0.9325
    14 C(13)  Bbb     0.0274     3.671     1.310     1.225  0.0362  0.9360 -0.3501
              Bcc     0.0313     4.200     1.499     1.401  0.9960 -0.0053  0.0890
 
              Baa    -0.0587    -7.871    -2.809    -2.626  0.0816  0.3519  0.9325
    15 C(13)  Bbb     0.0274     3.671     1.310     1.225 -0.0362  0.9360 -0.3501
              Bcc     0.0313     4.200     1.499     1.401  0.9960  0.0052 -0.0891
 
              Baa    -0.1127   -15.123    -5.396    -5.044  0.0000  0.9397 -0.3421
    16 C(13)  Bbb    -0.1073   -14.396    -5.137    -4.802  1.0000 -0.0000 -0.0000
              Bcc     0.2200    29.519    10.533     9.847  0.0000  0.3421  0.9397
 
              Baa    -0.0055    -2.927    -1.044    -0.976  0.9661  0.2540  0.0458
    17 H(1)   Bbb    -0.0040    -2.143    -0.765    -0.715 -0.1110  0.2486  0.9622
              Bcc     0.0095     5.070     1.809     1.691 -0.2331  0.9347 -0.2683
 
              Baa    -0.0055    -2.927    -1.044    -0.976  0.9661 -0.2541 -0.0460
    18 H(1)   Bbb    -0.0040    -2.143    -0.765    -0.715  0.1111  0.2485  0.9622
              Bcc     0.0095     5.070     1.809     1.691  0.2330  0.9347 -0.2683
 
              Baa    -0.0029    -1.545    -0.551    -0.515 -0.0521  0.4245  0.9039
    19 H(1)   Bbb    -0.0001    -0.063    -0.023    -0.021  0.6676  0.6880 -0.2846
              Bcc     0.0030     1.608     0.574     0.536  0.7427 -0.5886  0.3192
 
              Baa    -0.0029    -1.545    -0.551    -0.515  0.0522  0.4244  0.9040
    20 H(1)   Bbb    -0.0001    -0.063    -0.023    -0.021 -0.6676  0.6880 -0.2845
              Bcc     0.0030     1.608     0.574     0.537  0.7427  0.5886 -0.3192
 
              Baa    -0.0039    -2.061    -0.735    -0.687  0.0114 -0.2904  0.9568
    21 H(1)   Bbb    -0.0014    -0.771    -0.275    -0.257  0.9953  0.0958  0.0172
              Bcc     0.0053     2.832     1.011     0.945 -0.0966  0.9521  0.2901
 
              Baa    -0.0551    -7.400    -2.641    -2.469  0.0000  0.0153  0.9999
    22 C(13)  Bbb     0.0183     2.450     0.874     0.817 -0.0000  0.9999 -0.0153
              Bcc     0.0369     4.950     1.766     1.651  1.0000  0.0000 -0.0000
 
              Baa    -0.0141    -1.891    -0.675    -0.631  0.8238  0.2983 -0.4821
    23 C(13)  Bbb    -0.0031    -0.421    -0.150    -0.140 -0.2355  0.9536  0.1877
              Bcc     0.0172     2.312     0.825     0.771  0.5157 -0.0411  0.8558
 
              Baa    -0.0141    -1.892    -0.675    -0.631  0.8240 -0.2973  0.4824
    24 C(13)  Bbb    -0.0032    -0.423    -0.151    -0.141  0.2339  0.9538  0.1884
              Bcc     0.0173     2.316     0.826     0.773 -0.5161 -0.0424  0.8555
 
              Baa    -0.0934    -3.603    -1.286    -1.202  0.2317  0.9685  0.0908
    25 N(14)  Bbb    -0.0926    -3.572    -1.275    -1.192  0.9717 -0.2348  0.0252
              Bcc     0.1860     7.175     2.560     2.393 -0.0457 -0.0824  0.9956
 
              Baa    -0.0934    -3.603    -1.286    -1.202 -0.2317  0.9685  0.0910
    26 N(14)  Bbb    -0.0926    -3.572    -1.275    -1.192  0.9717  0.2348 -0.0247
              Bcc     0.1860     7.175     2.560     2.393  0.0453 -0.0827  0.9955
 
              Baa    -0.0018    -0.247    -0.088    -0.083  0.9113 -0.3741 -0.1720
    27 C(13)  Bbb    -0.0003    -0.041    -0.015    -0.014  0.1613  0.7088 -0.6867
              Bcc     0.0021     0.288     0.103     0.096  0.3788  0.5980  0.7063
 
              Baa    -0.0013    -0.680    -0.243    -0.227 -0.0288  0.3546  0.9346
    28 H(1)   Bbb    -0.0005    -0.263    -0.094    -0.088  0.9950 -0.0797  0.0609
              Bcc     0.0018     0.943     0.337     0.315  0.0960  0.9316 -0.3505
 
              Baa    -0.0016    -0.836    -0.298    -0.279 -0.0431 -0.1546  0.9870
    29 H(1)   Bbb     0.0003     0.160     0.057     0.053 -0.0906  0.9845  0.1502
              Bcc     0.0013     0.676     0.241     0.226  0.9950  0.0830  0.0565
 
              Baa    -0.0013    -0.701    -0.250    -0.234  0.1004 -0.4351  0.8947
    30 H(1)   Bbb    -0.0004    -0.188    -0.067    -0.063  0.9878  0.1509 -0.0375
              Bcc     0.0017     0.889     0.317     0.297 -0.1187  0.8876  0.4450
 
              Baa    -0.0023    -0.315    -0.112    -0.105  0.0948  0.9721  0.2145
    31 C(13)  Bbb    -0.0002    -0.026    -0.009    -0.009 -0.4739 -0.1455  0.8685
              Bcc     0.0025     0.341     0.122     0.114  0.8755 -0.1840  0.4469
 
              Baa    -0.0012    -0.655    -0.234    -0.219 -0.1617  0.3572  0.9199
    32 H(1)   Bbb    -0.0007    -0.372    -0.133    -0.124  0.5526  0.8051 -0.2156
              Bcc     0.0019     1.027     0.367     0.343  0.8176 -0.4735  0.3275
 
              Baa    -0.0012    -0.620    -0.221    -0.207  0.1870 -0.5205  0.8331
    33 H(1)   Bbb    -0.0009    -0.478    -0.171    -0.159  0.4227  0.8082  0.4100
              Bcc     0.0021     1.098     0.392     0.366  0.8868 -0.2755 -0.3711
 
              Baa    -0.0012    -0.666    -0.238    -0.222 -0.1894  0.0457  0.9808
    34 H(1)   Bbb    -0.0003    -0.176    -0.063    -0.059 -0.2121  0.9734 -0.0864
              Bcc     0.0016     0.842     0.301     0.281  0.9587  0.2244  0.1747
 
              Baa    -0.0018    -0.248    -0.088    -0.083  0.9115  0.3731  0.1729
    35 C(13)  Bbb    -0.0003    -0.042    -0.015    -0.014 -0.1606  0.7101 -0.6855
              Bcc     0.0022     0.290     0.103     0.097 -0.3786  0.5971  0.7072
 
              Baa    -0.0013    -0.680    -0.243    -0.227  0.0286  0.3536  0.9350
    36 H(1)   Bbb    -0.0005    -0.264    -0.094    -0.088  0.9950  0.0796 -0.0606
              Bcc     0.0018     0.944     0.337     0.315 -0.0958  0.9320 -0.3496
 
              Baa    -0.0016    -0.836    -0.298    -0.279  0.0433 -0.1548  0.9870
    37 H(1)   Bbb     0.0003     0.160     0.057     0.053  0.0903  0.9845  0.1505
              Bcc     0.0013     0.676     0.241     0.226  0.9950 -0.0826 -0.0566
 
              Baa    -0.0013    -0.701    -0.250    -0.234 -0.1012 -0.4362  0.8942
    38 H(1)   Bbb    -0.0004    -0.187    -0.067    -0.063  0.9877 -0.1516  0.0379
              Bcc     0.0017     0.888     0.317     0.296  0.1190  0.8870  0.4461
 
              Baa    -0.0023    -0.315    -0.112    -0.105 -0.0943  0.9714  0.2178
    39 C(13)  Bbb    -0.0002    -0.025    -0.009    -0.008  0.4707 -0.1493  0.8696
              Bcc     0.0025     0.340     0.121     0.113  0.8772  0.1845 -0.4432
 
              Baa    -0.0012    -0.655    -0.234    -0.219  0.1623  0.3505  0.9224
    40 H(1)   Bbb    -0.0007    -0.373    -0.133    -0.124 -0.5516  0.8073 -0.2097
              Bcc     0.0019     1.029     0.367     0.343  0.8182  0.4747 -0.3244
 
              Baa    -0.0012    -0.619    -0.221    -0.207 -0.1881 -0.5237  0.8308
    41 H(1)   Bbb    -0.0009    -0.478    -0.171    -0.159 -0.4220  0.8070  0.4132
              Bcc     0.0021     1.097     0.391     0.366  0.8869  0.2728  0.3728
 
              Baa    -0.0013    -0.667    -0.238    -0.223  0.1905  0.0454  0.9806
    42 H(1)   Bbb    -0.0003    -0.176    -0.063    -0.059  0.2110  0.9737 -0.0861
              Bcc     0.0016     0.843     0.301     0.281  0.9587 -0.2233 -0.1759
 

 ---------------------------------------------------------------------------------

 No NMR shielding tensors so no spin-rotation constants.
 Leave Link  601 at Thu Jan 21 00:40:08 2021, MaxMem=  4026531840 cpu:               5.0 elap:               0.7
 (Enter /opt/ohpc/pub/libs/gaussian/g16-A.03/sandybridge/g16/l9999.exe)

 Test job not archived.
 1\1\GINC-CASCADEB025\SP\ULC-wHPBE\TZVP\C19H21N2(2+,2)\RDU230\21-Jan-20
 21\0\\#P LC-wHPBE/TZVP iop(3/107=0221900000, 3/108=0221900000) scf=(co
 nver=6,fermi,ndamp=35,noincfock,novaracc,vshift=500,xqc)\\H21 C19 N2\\
 2,2\C,0,5.924302,-1.175178,0.28256\C,0,6.625626,0.000025,-0.000251\C,0
 ,4.530324,-1.177472,0.278212\C,0,5.924206,1.175202,-0.282951\C,0,3.810
 936,-0.000036,-0.000021\C,0,4.530233,1.177435,-0.278371\H,0,7.716547,0
 .000056,-0.000331\H,0,3.994064,-2.094974,0.527939\H,0,6.466302,2.09321
 ,-0.514746\H,0,3.99388,2.094904,-0.52801\C,0,2.333716,-0.000062,0.0001
 09\C,0,1.604784,1.119278,0.452707\C,0,1.604752,-1.119433,-0.452341\C,0
 ,0.21685,1.12577,0.449243\C,0,0.216813,-1.125977,-0.44867\C,0,-0.50491
 9,-0.000106,0.000309\H,0,2.141671,1.985727,0.840835\H,0,2.141597,-1.98
 5891,-0.840507\H,0,-0.315693,1.995203,0.838189\H,0,-0.315745,-1.995465
 ,-0.837475\H,0,6.466484,-2.093156,0.514265\C,0,-1.942874,-0.000086,0.0
 00402\C,0,-3.143323,-0.702637,-0.003392\C,0,-3.143127,0.702801,0.00391
 5\N,0,-3.78708,-1.855019,0.001668\N,0,-3.786774,1.855252,-0.001097\C,0
 ,-3.068411,-3.12252,0.167733\H,0,-3.187886,-3.74858,-0.728596\H,0,-2.0
 05788,-2.927607,0.341041\H,0,-3.471162,-3.663551,1.036238\C,0,-5.24512
 1,-1.94416,-0.100275\H,0,-5.509149,-2.713998,-0.838669\H,0,-5.688951,-
 2.217262,0.869111\H,0,-5.659251,-0.989594,-0.439085\C,0,-3.068047,3.12
 2616,-0.16813\H,0,-3.188116,3.749602,0.727455\H,0,-2.005304,2.927538,-
 0.340531\H,0,-3.470192,3.662707,-1.037509\C,0,-5.24495,1.944232,0.0993
 91\H,0,-5.509538,2.71844,0.832954\H,0,-5.688631,2.211256,-0.871774\H,0
 ,-5.658779,0.991638,0.444142\\Version=EM64L-G16RevA.03\State=2-A\HF=-8
 45.0063266\S2=0.784072\S2-1=0.\S2A=0.750771\RMSD=5.023e-08\Dipole=-0.9
 930092,0.000048,-0.0008339\Quadrupole=87.3520135,-23.7405448,-63.61146
 87,-0.0001839,0.0045332,0.1958624\PG=C01 [X(C19H21N2)]\\@


 It is also a good rule not to put too much confidence in
 experimental results until they have been confirmed by
 Theory.
                             -- Sir Arthur Eddington
 Job cpu time:       0 days  3 hours 48 minutes 34.1 seconds.
 Elapsed time:       0 days  0 hours 28 minutes 39.9 seconds.
 File lengths (MBytes):  RWF=    188 Int=      0 D2E=      0 Chk=     24 Scr=      8
 Normal termination of Gaussian 16 at Thu Jan 21 00:40:08 2021.
