 Entering Gaussian System, Link 0=g16
 Input=mol_bp_cp_half_tune_c11.gjf
 Output=mol_bp_cp_half_tune_c11.log
 Initial command:
 /opt/ohpc/pub/libs/gaussian/g16-A.03/sandybridge/g16/l1.exe "/mnt/gpfs2_4m/scratch/rdu230/ondemand/projects/init_structures/wtuning/mol_bp_cp_half/tuning_mol_bp_cp_half_ocycle0/Gau-303782.inp" -scrdir="/mnt/gpfs2_4m/scratch/rdu230/ondemand/projects/init_structures/wtuning/mol_bp_cp_half/tuning_mol_bp_cp_half_ocycle0/"
 Entering Link 1 = /opt/ohpc/pub/libs/gaussian/g16-A.03/sandybridge/g16/l1.exe PID=    303783.
  
 Copyright (c) 1988,1990,1992,1993,1995,1998,2003,2009,2016,
            Gaussian, Inc.  All Rights Reserved.
  
 This is part of the Gaussian(R) 16 program.  It is based on
 the Gaussian(R) 09 system (copyright 2009, Gaussian, Inc.),
 the Gaussian(R) 03 system (copyright 2003, Gaussian, Inc.),
 the Gaussian(R) 98 system (copyright 1998, Gaussian, Inc.),
 the Gaussian(R) 94 system (copyright 1995, Gaussian, Inc.),
 the Gaussian 92(TM) system (copyright 1992, Gaussian, Inc.),
 the Gaussian 90(TM) system (copyright 1990, Gaussian, Inc.),
 the Gaussian 88(TM) system (copyright 1988, Gaussian, Inc.),
 the Gaussian 86(TM) system (copyright 1986, Carnegie Mellon
 University), and the Gaussian 82(TM) system (copyright 1983,
 Carnegie Mellon University). Gaussian is a federally registered
 trademark of Gaussian, Inc.
  
 This software contains proprietary and confidential information,
 including trade secrets, belonging to Gaussian, Inc.
  
 This software is provided under written license and may be
 used, copied, transmitted, or stored only in accord with that
 written license.
  
 The following legend is applicable only to US Government
 contracts under FAR:
  
                    RESTRICTED RIGHTS LEGEND
  
 Use, reproduction and disclosure by the US Government is
 subject to restrictions as set forth in subparagraphs (a)
 and (c) of the Commercial Computer Software - Restricted
 Rights clause in FAR 52.227-19.
  
 Gaussian, Inc.
 340 Quinnipiac St., Bldg. 40, Wallingford CT 06492
  
  
 ---------------------------------------------------------------
 Warning -- This program may not be used in any manner that
 competes with the business of Gaussian, Inc. or will provide
 assistance to any competitor of Gaussian, Inc.  The licensee
 of this program is prohibited from giving any competitor of
 Gaussian, Inc. access to this program.  By using this program,
 the user acknowledges that Gaussian, Inc. is engaged in the
 business of creating and licensing software in the field of
 computational chemistry and represents and warrants to the
 licensee that it is not a competitor of Gaussian, Inc. and that
 it will not use this program in any manner prohibited above.
 ---------------------------------------------------------------
  

 Cite this work as:
 Gaussian 16, Revision A.03,
 M. J. Frisch, G. W. Trucks, H. B. Schlegel, G. E. Scuseria, 
 M. A. Robb, J. R. Cheeseman, G. Scalmani, V. Barone, 
 G. A. Petersson, H. Nakatsuji, X. Li, M. Caricato, A. V. Marenich, 
 J. Bloino, B. G. Janesko, R. Gomperts, B. Mennucci, H. P. Hratchian, 
 J. V. Ortiz, A. F. Izmaylov, J. L. Sonnenberg, D. Williams-Young, 
 F. Ding, F. Lipparini, F. Egidi, J. Goings, B. Peng, A. Petrone, 
 T. Henderson, D. Ranasinghe, V. G. Zakrzewski, J. Gao, N. Rega, 
 G. Zheng, W. Liang, M. Hada, M. Ehara, K. Toyota, R. Fukuda, 
 J. Hasegawa, M. Ishida, T. Nakajima, Y. Honda, O. Kitao, H. Nakai, 
 T. Vreven, K. Throssell, J. A. Montgomery, Jr., J. E. Peralta, 
 F. Ogliaro, M. J. Bearpark, J. J. Heyd, E. N. Brothers, K. N. Kudin, 
 V. N. Staroverov, T. A. Keith, R. Kobayashi, J. Normand, 
 K. Raghavachari, A. P. Rendell, J. C. Burant, S. S. Iyengar, 
 J. Tomasi, M. Cossi, J. M. Millam, M. Klene, C. Adamo, R. Cammi, 
 J. W. Ochterski, R. L. Martin, K. Morokuma, O. Farkas, 
 J. B. Foresman, and D. J. Fox, Gaussian, Inc., Wallingford CT, 2016.
 
 ******************************************
 Gaussian 16:  EM64L-G16RevA.03 25-Dec-2016
                21-Jan-2021 
 ******************************************
 %mem=30GB
 %nproc=8
 Will use up to    8 processors via shared memory.
 ----------------------------------------------------------------------
 #P LC-wHPBE/TZVP iop(3/107=0208400000, 3/108=0208400000) scf=(conver=6
 ,fermi,ndamp=35,noincfock,novaracc,vshift=500,xqc)
 ----------------------------------------------------------------------
 1/38=1,172=1/1;
 2/12=2,17=6,18=5,40=1/2;
 3/5=19,7=101,11=2,25=1,30=1,74=-71,107=208400000,108=208400000/1,2,3;
 4//1;
 5/5=100002,6=6,8=3,10=500,13=1,18=-1,22=13,38=1,93=35/2,8;
 6/7=2,8=2,9=2,10=2,28=1/1;
 99/5=1,9=1/99;
 Leave Link    1 at Thu Jan 21 06:50:17 2021, MaxMem=  4026531840 cpu:               1.5 elap:               0.2
 (Enter /opt/ohpc/pub/libs/gaussian/g16-A.03/sandybridge/g16/l101.exe)
 ----------
 H21 C19 N2
 ----------
 Symbolic Z-matrix:
 Charge =  2 Multiplicity = 2
 C                     5.9243   -1.17518   0.28256 
 C                     6.62563   0.00003  -0.00025 
 C                     4.53032  -1.17747   0.27821 
 C                     5.92421   1.1752   -0.28295 
 C                     3.81094  -0.00004  -0.00002 
 C                     4.53023   1.17744  -0.27837 
 H                     7.71655   0.00006  -0.00033 
 H                     3.99406  -2.09497   0.52794 
 H                     6.4663    2.09321  -0.51475 
 H                     3.99388   2.0949   -0.52801 
 C                     2.33372  -0.00006   0.00011 
 C                     1.60478   1.11928   0.45271 
 C                     1.60475  -1.11943  -0.45234 
 C                     0.21685   1.12577   0.44924 
 C                     0.21681  -1.12598  -0.44867 
 C                    -0.50492  -0.00011   0.00031 
 H                     2.14167   1.98573   0.84084 
 H                     2.1416   -1.98589  -0.84051 
 H                    -0.31569   1.9952    0.83819 
 H                    -0.31575  -1.99547  -0.83748 
 H                     6.46648  -2.09316   0.51427 
 C                    -1.94287  -0.00009   0.0004 
 C                    -3.14332  -0.70264  -0.00339 
 C                    -3.14313   0.7028    0.00392 
 N                    -3.78708  -1.85502   0.00167 
 N                    -3.78677   1.85525  -0.0011 
 C                    -3.06841  -3.12252   0.16773 
 H                    -3.18789  -3.74858  -0.7286 
 H                    -2.00579  -2.92761   0.34104 
 H                    -3.47116  -3.66355   1.03624 
 C                    -5.24512  -1.94416  -0.10028 
 H                    -5.50915  -2.714    -0.83867 
 H                    -5.68895  -2.21726   0.86911 
 H                    -5.65925  -0.98959  -0.43909 
 C                    -3.06805   3.12262  -0.16813 
 H                    -3.18812   3.7496    0.72746 
 H                    -2.0053    2.92754  -0.34053 
 H                    -3.47019   3.66271  -1.03751 
 C                    -5.24495   1.94423   0.09939 
 H                    -5.50954   2.71844   0.83295 
 H                    -5.68863   2.21126  -0.87177 
 H                    -5.65878   0.99164   0.44414 
 
 ITRead=  0  0  0  0  0  0  0  0  0  0  0  0  0  0  0  0  0  0  0  0
 ITRead=  0  0  0  0  0  0  0  0  0  0  0  0  0  0  0  0  0  0  0  0
 ITRead=  0  0
 MicOpt= -1 -1 -1 -1 -1 -1 -1 -1 -1 -1 -1 -1 -1 -1 -1 -1 -1 -1 -1 -1
 MicOpt= -1 -1 -1 -1 -1 -1 -1 -1 -1 -1 -1 -1 -1 -1 -1 -1 -1 -1 -1 -1
 MicOpt= -1 -1
 NAtoms=     42 NQM=       42 NQMF=       0 NMMI=      0 NMMIF=      0
                NMic=       0 NMicF=      0.
                    Isotopes and Nuclear Properties:
 (Nuclear quadrupole moments (NQMom) in fm**2, nuclear magnetic moments (NMagM)
  in nuclear magnetons)

  Atom         1           2           3           4           5           6           7           8           9          10
 IAtWgt=          12          12          12          12          12          12           1           1           1           1
 AtmWgt=  12.0000000  12.0000000  12.0000000  12.0000000  12.0000000  12.0000000   1.0078250   1.0078250   1.0078250   1.0078250
 NucSpn=           0           0           0           0           0           0           1           1           1           1
 AtZEff=  -0.0000000  -0.0000000  -0.0000000  -0.0000000  -0.0000000  -0.0000000  -0.0000000  -0.0000000  -0.0000000  -0.0000000
 NQMom=    0.0000000   0.0000000   0.0000000   0.0000000   0.0000000   0.0000000   0.0000000   0.0000000   0.0000000   0.0000000
 NMagM=    0.0000000   0.0000000   0.0000000   0.0000000   0.0000000   0.0000000   2.7928460   2.7928460   2.7928460   2.7928460
 AtZNuc=   6.0000000   6.0000000   6.0000000   6.0000000   6.0000000   6.0000000   1.0000000   1.0000000   1.0000000   1.0000000

  Atom        11          12          13          14          15          16          17          18          19          20
 IAtWgt=          12          12          12          12          12          12           1           1           1           1
 AtmWgt=  12.0000000  12.0000000  12.0000000  12.0000000  12.0000000  12.0000000   1.0078250   1.0078250   1.0078250   1.0078250
 NucSpn=           0           0           0           0           0           0           1           1           1           1
 AtZEff=  -0.0000000  -0.0000000  -0.0000000  -0.0000000  -0.0000000  -0.0000000  -0.0000000  -0.0000000  -0.0000000  -0.0000000
 NQMom=    0.0000000   0.0000000   0.0000000   0.0000000   0.0000000   0.0000000   0.0000000   0.0000000   0.0000000   0.0000000
 NMagM=    0.0000000   0.0000000   0.0000000   0.0000000   0.0000000   0.0000000   2.7928460   2.7928460   2.7928460   2.7928460
 AtZNuc=   6.0000000   6.0000000   6.0000000   6.0000000   6.0000000   6.0000000   1.0000000   1.0000000   1.0000000   1.0000000

  Atom        21          22          23          24          25          26          27          28          29          30
 IAtWgt=           1          12          12          12          14          14          12           1           1           1
 AtmWgt=   1.0078250  12.0000000  12.0000000  12.0000000  14.0030740  14.0030740  12.0000000   1.0078250   1.0078250   1.0078250
 NucSpn=           1           0           0           0           2           2           0           1           1           1
 AtZEff=  -0.0000000  -0.0000000  -0.0000000  -0.0000000  -0.0000000  -0.0000000  -0.0000000  -0.0000000  -0.0000000  -0.0000000
 NQMom=    0.0000000   0.0000000   0.0000000   0.0000000   2.0440000   2.0440000   0.0000000   0.0000000   0.0000000   0.0000000
 NMagM=    2.7928460   0.0000000   0.0000000   0.0000000   0.4037610   0.4037610   0.0000000   2.7928460   2.7928460   2.7928460
 AtZNuc=   1.0000000   6.0000000   6.0000000   6.0000000   7.0000000   7.0000000   6.0000000   1.0000000   1.0000000   1.0000000

  Atom        31          32          33          34          35          36          37          38          39          40
 IAtWgt=          12           1           1           1          12           1           1           1          12           1
 AtmWgt=  12.0000000   1.0078250   1.0078250   1.0078250  12.0000000   1.0078250   1.0078250   1.0078250  12.0000000   1.0078250
 NucSpn=           0           1           1           1           0           1           1           1           0           1
 AtZEff=  -0.0000000  -0.0000000  -0.0000000  -0.0000000  -0.0000000  -0.0000000  -0.0000000  -0.0000000  -0.0000000  -0.0000000
 NQMom=    0.0000000   0.0000000   0.0000000   0.0000000   0.0000000   0.0000000   0.0000000   0.0000000   0.0000000   0.0000000
 NMagM=    0.0000000   2.7928460   2.7928460   2.7928460   0.0000000   2.7928460   2.7928460   2.7928460   0.0000000   2.7928460
 AtZNuc=   6.0000000   1.0000000   1.0000000   1.0000000   6.0000000   1.0000000   1.0000000   1.0000000   6.0000000   1.0000000

  Atom        41          42
 IAtWgt=           1           1
 AtmWgt=   1.0078250   1.0078250
 NucSpn=           1           1
 AtZEff=  -0.0000000  -0.0000000
 NQMom=    0.0000000   0.0000000
 NMagM=    2.7928460   2.7928460
 AtZNuc=   1.0000000   1.0000000
 Leave Link  101 at Thu Jan 21 06:50:17 2021, MaxMem=  4026531840 cpu:               0.7 elap:               0.1
 (Enter /opt/ohpc/pub/libs/gaussian/g16-A.03/sandybridge/g16/l202.exe)
                          Input orientation:                          
 ---------------------------------------------------------------------
 Center     Atomic      Atomic             Coordinates (Angstroms)
 Number     Number       Type             X           Y           Z
 ---------------------------------------------------------------------
      1          6           0        5.924302   -1.175178    0.282560
      2          6           0        6.625626    0.000025   -0.000251
      3          6           0        4.530324   -1.177472    0.278212
      4          6           0        5.924206    1.175202   -0.282951
      5          6           0        3.810936   -0.000036   -0.000021
      6          6           0        4.530233    1.177435   -0.278371
      7          1           0        7.716547    0.000056   -0.000331
      8          1           0        3.994064   -2.094974    0.527939
      9          1           0        6.466302    2.093210   -0.514746
     10          1           0        3.993880    2.094904   -0.528010
     11          6           0        2.333716   -0.000062    0.000109
     12          6           0        1.604784    1.119278    0.452707
     13          6           0        1.604752   -1.119433   -0.452341
     14          6           0        0.216850    1.125770    0.449243
     15          6           0        0.216813   -1.125977   -0.448670
     16          6           0       -0.504919   -0.000106    0.000309
     17          1           0        2.141671    1.985727    0.840835
     18          1           0        2.141597   -1.985891   -0.840507
     19          1           0       -0.315693    1.995203    0.838189
     20          1           0       -0.315745   -1.995465   -0.837475
     21          1           0        6.466484   -2.093156    0.514265
     22          6           0       -1.942874   -0.000086    0.000402
     23          6           0       -3.143323   -0.702637   -0.003392
     24          6           0       -3.143127    0.702801    0.003915
     25          7           0       -3.787080   -1.855019    0.001668
     26          7           0       -3.786774    1.855252   -0.001097
     27          6           0       -3.068411   -3.122520    0.167733
     28          1           0       -3.187886   -3.748580   -0.728596
     29          1           0       -2.005788   -2.927607    0.341041
     30          1           0       -3.471162   -3.663551    1.036238
     31          6           0       -5.245121   -1.944160   -0.100275
     32          1           0       -5.509149   -2.713998   -0.838669
     33          1           0       -5.688951   -2.217262    0.869111
     34          1           0       -5.659251   -0.989594   -0.439085
     35          6           0       -3.068047    3.122616   -0.168130
     36          1           0       -3.188116    3.749602    0.727455
     37          1           0       -2.005304    2.927538   -0.340531
     38          1           0       -3.470192    3.662707   -1.037509
     39          6           0       -5.244950    1.944232    0.099391
     40          1           0       -5.509538    2.718440    0.832954
     41          1           0       -5.688631    2.211256   -0.871774
     42          1           0       -5.658779    0.991638    0.444142
 ---------------------------------------------------------------------
                    Distance matrix (angstroms):
                    1          2          3          4          5
     1  C    0.000000
     2  C    1.397476   0.000000
     3  C    1.393987   2.419573   0.000000
     4  C    2.417455   1.397480   2.791574   0.000000
     5  C    2.434569   2.814690   1.407582   2.434573   0.000000
     6  C    2.791569   2.419570   2.419788   1.393982   1.407588
     7  H    2.161792   1.090921   3.408251   2.161788   3.905611
     8  H    2.152221   3.404868   1.091672   3.882917   2.168189
     9  H    3.407612   2.161368   3.882545   1.091025   3.420174
    10  H    3.882910   3.404869   3.412655   2.152223   2.168182
    11  C    3.788533   4.291910   2.507733   3.788534   1.477220
    12  C    4.894049   5.163986   3.723479   4.381977   2.514942
    13  C    4.381974   5.163986   3.015965   4.894050   2.514934
    14  C    6.156066   6.522404   4.892876   5.754343   3.792985
    15  C    5.754350   6.522411   4.374630   6.156072   3.792987
    16  C    6.541815   7.130545   5.178522   6.541807   4.315855
    17  H    4.960977   4.975569   4.003503   4.028327   2.727039
    18  H    4.028324   4.975581   2.758820   4.960999   2.727037
    19  H    7.021223   7.270875   5.819220   6.392628   4.659683
    20  H    6.392616   7.270870   5.039668   7.021226   4.659674
    21  H    1.091023   2.161356   2.154742   3.407607   3.420172
    22  C    7.959454   8.568500   6.585265   7.959431   5.753810
    23  C    9.084431   9.794187   7.693480   9.264152   6.989662
    24  C    9.264055   9.794001   7.905221   9.084161   6.989491
    25  N    9.739200  10.576655   8.349536  10.177049   7.821177
    26  N   10.176884  10.576386   8.857175   9.738842   7.820952
    27  C    9.201859  10.185915   7.844501   9.977008   7.556683
    28  H    9.522437  10.530315   8.197257  10.366892   7.972823
    29  H    8.121623   9.120790   6.766659   8.950263   6.520834
    30  H    9.748578  10.790794   8.413024  10.650199   8.217307
    31  C   11.202406  12.029318   9.812767  11.598175   9.262928
    32  H   11.590898  12.462810  10.217600  12.089512   9.743352
    33  H   11.674657  12.542765  10.289019  12.153250   9.793842
    34  H   11.607494  12.332482  10.216519  11.785041   9.531865
    35  C    9.976798  10.185581   8.742152   9.201425   7.556429
    36  H   10.367620  10.530832   9.167998   9.522755   7.973439
    37  H    8.949814   9.120256   7.742634   8.121030   6.520375
    38  H   10.649142  10.789656   9.442813   9.747397   8.216258
    39  C   11.598123  12.029150  10.263186  11.202127   9.262782
    40  H   12.091149  12.463796  10.783538  11.591261   9.744496
    41  H   12.151569  12.541532  10.827418  11.673821   9.792423
    42  H   11.785116  12.332372  10.418752  11.607235   9.531852
                    6          7          8          9         10
     6  C    0.000000
     7  H    3.408244   0.000000
     8  H    3.412664   4.304079   0.000000
     9  H    2.154734   2.491792   4.973936   0.000000
    10  H    1.091670   4.304077   4.320892   2.472458   0.000000
    11  C    2.507735   5.382831   2.724705   4.661022   2.724690
    12  C    3.015976   6.229892   4.005713   5.051620   2.760694
    13  C    3.723481   6.229896   2.760696   5.827490   4.005699
    14  C    4.374627   7.597026   4.964547   6.396942   4.019975
    15  C    4.892883   7.597037   4.019993   7.030195   4.964535
    16  C    5.178515   8.221466   4.990763   7.296929   4.990729
    17  H    2.758838   5.977432   4.492370   4.533386   2.305718
    18  H    4.003525   5.977453   2.305684   5.953844   4.492382
    19  H    5.039687   8.318690   5.949774   6.916321   4.522042
    20  H    5.819226   8.318692   4.522025   7.925754   5.949769
    21  H    3.882539   2.491787   2.472458   4.310977   4.973927
    22  C    6.585240   9.659421   6.317759   8.681101   6.317693
    23  C    7.905299  10.882581   7.291310  10.021134   7.683822
    24  C    7.693206  10.882389   7.683856   9.723342   7.290937
    25  N    8.857307  11.652242   7.802611  10.999411   8.742184
    26  N    8.349187  11.651959   8.742174  10.268692   7.802157
    27  C    8.742312  11.229160   7.145919  10.889461   8.808038
    28  H    9.167207  11.553757   7.476209  11.286079   9.260902
    29  H    7.743036  10.159308   6.060234   9.885205   7.872540
    30  H    9.443816  11.817839   7.645155  11.588746   9.556858
    31  C   10.263217  13.107052   9.261746  12.394740  10.092380
    32  H   10.781761  13.527303   9.620908  12.908354  10.655027
    33  H   10.829238  13.615425   9.689795  12.970945  10.691302
    34  H   10.418610  13.419534   9.764399  12.511532  10.134346
    35  C    7.844090  11.228802   8.808017   9.596022   7.145384
    36  H    8.197600  11.554239   9.261889   9.873930   7.476315
    37  H    6.766090  10.158754   7.872248   8.514374   6.059590
    38  H    8.411877  11.816678   9.555974  10.073257   7.643950
    39  C    9.812486  13.106875  10.092483  11.728290   9.261334
    40  H   10.217962  13.528241  10.657412  12.067641   9.620602
    41  H   10.288153  13.614243  10.689125  12.160748   9.689310
    42  H   10.216287  13.419394  10.134672  12.212719   9.764021
                   11         12         13         14         15
    11  C    0.000000
    12  C    1.410358   0.000000
    13  C    1.410351   2.414734   0.000000
    14  C    2.439332   1.387954   2.789276   0.000000
    15  C    2.439337   2.789286   1.387959   2.424172   0.000000
    16  C    2.838635   2.430747   2.430740   1.410705   1.410697
    17  H    2.164962   1.090699   3.406260   2.144250   3.879511
    18  H    2.164962   3.406266   1.090699   3.879503   2.144244
    19  H    3.420940   2.145710   3.880017   1.091235   3.417797
    20  H    3.420939   3.880029   2.145709   3.417808   1.091236
    21  H    4.661027   5.827491   5.051624   7.030195   6.396958
    22  C    4.276590   3.747457   3.747474   2.476574   2.476599
    23  C    5.521918   5.106067   4.787430   3.852105   3.415846
    24  C    5.521761   4.787225   5.105983   3.415650   3.852072
    25  N    6.395703   6.174308   5.460683   5.011675   4.094565
    26  N    6.395513   5.460448   6.174214   4.094381   5.011662
    27  C    6.241860   6.317659   5.122041   5.377746   3.893435
    28  H    6.713456   6.932619   5.473400   6.061256   4.306783
    29  H    5.245765   5.424572   4.115209   4.624034   2.968075
    30  H    6.941997   6.998656   5.869694   6.073186   4.716502
    31  C    7.824856   7.524071   6.908320   6.289640   5.533853
    32  H    8.341434   8.183502   7.300649   7.013530   5.954876
    33  H    8.368651   8.031467   7.493301   6.799312   6.148618
    34  H    8.065952   7.616353   7.265175   6.308126   5.877654
    35  C    6.241672   5.121928   6.317500   3.893468   5.377690
    36  H    6.714137   5.474119   6.933326   4.307632   6.062020
    37  H    5.245376   4.114823   5.424295   2.967841   4.623903
    38  H    6.941028   5.869000   6.997595   4.716011   6.072251
    39  C    7.824725   6.908273   7.523887   5.533854   6.289468
    40  H    8.342692   7.301745   8.185009   5.956119   7.015212
    41  H    8.367088   7.492701   8.028876   6.148014   6.796353
    42  H    8.066016   7.264689   7.617033   5.877162   6.309040
                   16         17         18         19         20
    16  C    0.000000
    17  H    3.413862   0.000000
    18  H    3.413848   4.312848   0.000000
    19  H    2.172351   2.457384   4.970453   0.000000
    20  H    2.172355   4.970464   2.457363   4.328196   0.000000
    21  H    7.296949   5.953817   4.533383   7.925751   6.916312
    22  C    1.437955   4.618797   4.618815   2.707542   2.707605
    23  C    2.730337   5.989256   5.502534   3.997761   3.219052
    24  C    2.730244   5.502311   5.989192   3.218804   3.997833
    25  N    3.770051   7.113763   5.989624   5.251143   3.574081
    26  N    3.770004   5.989352   7.113689   3.573848   5.251247
    27  C    4.043389   7.327497   5.427030   5.849620   3.139724
    28  H    4.666977   7.984333   5.614533   6.610246   3.366669
    29  H    3.307411   6.449191   4.414033   5.228540   2.261423
    30  H    4.826238   7.965954   6.151405   6.482107   4.031125
    31  C    5.124351   8.419881   7.423832   6.379542   4.984460
    32  H    5.754252   9.134725   7.685314   7.208357   5.242875
    33  H    5.704804   8.887326   8.018342   6.827717   5.642072
    34  H    5.266810   8.446604   7.874451   6.252524   5.451931
    35  C    4.043438   5.426941   7.327300   3.139935   5.849610
    36  H    4.667826   5.615224   7.985000   3.367639   6.611000
    37  H    3.307329   4.413619   6.448918   2.261286   5.228530
    38  H    4.825568   6.150890   7.964775   4.031089   6.481162
    39  C    5.124272   7.423856   8.419641   4.984576   6.379341
    40  H    5.755867   7.686217   9.136250   5.243961   7.210182
    41  H    5.702764   8.018574   8.884227   5.642616   6.823898
    42  H    5.267145   7.873538   8.447595   5.450778   6.254066
                   21         22         23         24         25
    21  H    0.000000
    22  C    8.681146   0.000000
    23  C    9.723677   1.390924   0.000000
    24  C   10.021101   1.390924   1.405457   0.000000
    25  N   10.269130   2.615698   1.320012   2.637636   0.000000
    26  N   10.999310   2.615769   2.637580   1.320019   3.710272
    27  C    9.596557   3.323316   2.427082   3.829556   1.466500
    28  H    9.873803   4.016553   3.131402   4.511471   2.116103
    29  H    8.515028   2.947944   2.522521   3.819300   2.106803
    30  H   10.074493   4.102389   3.155205   4.498703   2.107351
    31  C   11.728664   3.833327   2.443015   3.381662   1.464316
    32  H   12.067794   4.559350   3.215648   4.240581   2.099889
    33  H   12.161247   4.438876   3.087972   3.969452   2.121507
    34  H   12.213115   3.870883   2.569449   3.064528   2.109087
    35  C   10.889317   3.323505   3.829539   2.427085   5.032166
    36  H   11.286920   4.017386   4.512048   3.131857   5.683071
    37  H    9.884798   2.948070   3.819283   2.522447   5.115142
    38  H   11.587730   4.101952   4.498052   3.154771   5.623665
    39  C   12.394769   3.833259   3.381319   2.442934   4.070533
    40  H   12.910388   4.561208   4.242902   3.217143   4.957260
    41  H   12.969036   4.436375   3.965281   3.085751   4.573116
    42  H   12.511709   3.871482   3.065677   2.570162   3.435476
                   26         27         28         29         30
    26  N    0.000000
    27  C    5.032173   0.000000
    28  H    5.682504   1.099832   0.000000
    29  H    5.115145   1.094164   1.793175   0.000000
    30  H    5.624310   1.099647   1.789445   1.781076   0.000000
    31  C    4.070890   2.489664   2.807656   3.413972   2.719356
    32  H    4.954407   2.671505   2.543765   3.702821   2.927511
    33  H    4.578309   2.859834   3.339600   3.788026   2.652974
    34  H    3.433825   3.410286   3.715302   4.208596   3.756908
    35  C    1.466520   6.254161   6.895058   6.163834   6.903989
    36  H    2.116067   6.895918   7.638247   6.792079   7.424978
    37  H    2.106810   6.163743   6.791145   5.894681   6.891058
    38  H    2.107432   6.903140   7.423092   6.890364   7.614098
    39  C    1.464340   5.514886   6.109434   5.855372   5.955773
    40  H    2.099679   6.365409   7.046336   6.663039   6.702694
    41  H    2.121763   6.032851   6.464818   6.437559   6.562853
    42  H    2.109140   4.869569   5.472686   5.358680   5.177551
                   31         32         33         34         35
    31  C    0.000000
    32  H    1.098903   0.000000
    33  H    1.100581   1.787621   0.000000
    34  H    1.094300   1.776448   1.794276   0.000000
    35  C    5.515113   6.361970   6.038154   4.868062   0.000000
    36  H    6.110264   7.044009   6.471299   5.470585   1.099818
    37  H    5.855560   6.659730   6.442162   5.357701   1.094166
    38  H    5.955312   6.697705   6.567505   5.176292   1.099654
    39  C    3.893515   4.759082   4.255307   3.011468   2.489792
    40  H    4.762423   5.683811   4.939094   3.923011   2.669533
    41  H    4.249635   4.928634   4.758409   3.230097   2.862368
    42  H    3.014368   3.924249   3.237059   2.169187   3.409961
                   36         37         38         39         40
    36  H    0.000000
    37  H    1.793161   0.000000
    38  H    1.789474   1.781053   0.000000
    39  C    2.807916   3.414049   2.719460   0.000000
    40  H    2.542327   3.701411   2.923902   1.098872   0.000000
    41  H    3.343145   3.789746   2.656247   1.100598   1.787570
    42  H    3.713598   4.208480   3.757634   1.094323   1.776314
                   41         42
    41  H    0.000000
    42  H    1.794434   0.000000
 Stoichiometry    C19H21N2(2+,2)
 Framework group  C1[X(C19H21N2)]
 Deg. of freedom   120
 Full point group                 C1      NOp   1
 Largest Abelian subgroup         C1      NOp   1
 Largest concise Abelian subgroup C1      NOp   1
                         Standard orientation:                         
 ---------------------------------------------------------------------
 Center     Atomic      Atomic             Coordinates (Angstroms)
 Number     Number       Type             X           Y           Z
 ---------------------------------------------------------------------
      1          6           0       -5.924302   -1.175178   -0.282560
      2          6           0       -6.625626    0.000025    0.000251
      3          6           0       -4.530324   -1.177472   -0.278212
      4          6           0       -5.924206    1.175202    0.282951
      5          6           0       -3.810936   -0.000036    0.000021
      6          6           0       -4.530233    1.177435    0.278371
      7          1           0       -7.716547    0.000056    0.000331
      8          1           0       -3.994064   -2.094974   -0.527939
      9          1           0       -6.466302    2.093210    0.514746
     10          1           0       -3.993880    2.094904    0.528010
     11          6           0       -2.333716   -0.000062   -0.000109
     12          6           0       -1.604784    1.119278   -0.452707
     13          6           0       -1.604752   -1.119433    0.452341
     14          6           0       -0.216850    1.125770   -0.449243
     15          6           0       -0.216813   -1.125977    0.448670
     16          6           0        0.504919   -0.000106   -0.000309
     17          1           0       -2.141671    1.985727   -0.840835
     18          1           0       -2.141597   -1.985891    0.840507
     19          1           0        0.315693    1.995203   -0.838189
     20          1           0        0.315745   -1.995465    0.837475
     21          1           0       -6.466484   -2.093156   -0.514265
     22          6           0        1.942874   -0.000086   -0.000402
     23          6           0        3.143323   -0.702637    0.003392
     24          6           0        3.143127    0.702801   -0.003915
     25          7           0        3.787080   -1.855019   -0.001668
     26          7           0        3.786774    1.855252    0.001097
     27          6           0        3.068411   -3.122520   -0.167733
     28          1           0        3.187886   -3.748580    0.728596
     29          1           0        2.005788   -2.927607   -0.341041
     30          1           0        3.471162   -3.663551   -1.036238
     31          6           0        5.245121   -1.944160    0.100275
     32          1           0        5.509149   -2.713998    0.838669
     33          1           0        5.688951   -2.217262   -0.869111
     34          1           0        5.659251   -0.989594    0.439085
     35          6           0        3.068047    3.122616    0.168130
     36          1           0        3.188116    3.749602   -0.727455
     37          1           0        2.005304    2.927538    0.340531
     38          1           0        3.470192    3.662707    1.037509
     39          6           0        5.244950    1.944232   -0.099391
     40          1           0        5.509538    2.718440   -0.832954
     41          1           0        5.688631    2.211256    0.871774
     42          1           0        5.658779    0.991638   -0.444142
 ---------------------------------------------------------------------
 Rotational constants (GHZ):           0.7037808           0.1205812           0.1040104
 Leave Link  202 at Thu Jan 21 06:50:17 2021, MaxMem=  4026531840 cpu:               0.1 elap:               0.0
 (Enter /opt/ohpc/pub/libs/gaussian/g16-A.03/sandybridge/g16/l301.exe)
 Standard basis: TZVP (5D, 7F)
 Ernie: Thresh=  0.10000D-02 Tol=  0.10000D-05 Strict=F.
 There are   546 symmetry adapted cartesian basis functions of A   symmetry.
 There are   525 symmetry adapted basis functions of A   symmetry.
   525 basis functions,   903 primitive gaussians,   546 cartesian basis functions
    74 alpha electrons       73 beta electrons
       nuclear repulsion energy      1487.4602048397 Hartrees.
 IExCor=33909 DFT=T Ex+Corr=LC-wHPBE ExCW=0 ScaHFX=  1.000000
 ScaDFX=  1.000000  1.000000  1.000000  1.000000 ScalE2=  1.000000  1.000000
 IRadAn=      5 IRanWt=     -1 IRanGd=            0 ICorTp=0 IEmpDi=  4
 HFx  wShort=  0.000000 wLong=  0.208400 cFull=  0.000000 cShort=  0.000000 cLong=  1.000000
 DFx  wShort=  0.000000 wLong=  0.208400 cFull=  0.000000 cShort=  1.000000 cLong=  0.000000
 NAtoms=   42 NActive=   42 NUniq=   42 SFac= 1.00D+00 NAtFMM=   60 NAOKFM=F Big=F
 Integral buffers will be    131072 words long.
 Raffenetti 2 integral format.
 Two-electron integral symmetry is turned on.
 Leave Link  301 at Thu Jan 21 06:50:17 2021, MaxMem=  4026531840 cpu:               0.4 elap:               0.1
 (Enter /opt/ohpc/pub/libs/gaussian/g16-A.03/sandybridge/g16/l302.exe)
 NPDir=0 NMtPBC=     1 NCelOv=     1 NCel=       1 NClECP=     1 NCelD=      1
         NCelK=      1 NCelE2=     1 NClLst=     1 CellRange=     0.0.
 One-electron integrals computed using PRISM.
 One-electron integral symmetry used in STVInt
 NBasis=   525 RedAO= T EigKep=  8.06D-06  NBF=   525
 NBsUse=   525 1.00D-06 EigRej= -1.00D+00 NBFU=   525
 Precomputing XC quadrature grid using
 IXCGrd= 4 IRadAn=           5 IRanWt=          -1 IRanGd=           0 AccXCQ= 0.00D+00.
 Generated NRdTot=       0 NPtTot=           0 NUsed=           0 NTot=          32
 NSgBfM=   523   523   523   523   523 MxSgAt=    42 MxSgA2=    42.
 Leave Link  302 at Thu Jan 21 06:50:18 2021, MaxMem=  4026531840 cpu:               6.9 elap:               0.9
 (Enter /opt/ohpc/pub/libs/gaussian/g16-A.03/sandybridge/g16/l303.exe)
 DipDrv:  MaxL=1.
 Leave Link  303 at Thu Jan 21 06:50:18 2021, MaxMem=  4026531840 cpu:               0.6 elap:               0.1
 (Enter /opt/ohpc/pub/libs/gaussian/g16-A.03/sandybridge/g16/l401.exe)
 ExpMin= 9.52D-02 ExpMax= 1.97D+04 ExpMxC= 6.73D+02 IAcc=3 IRadAn=         5 AccDes= 0.00D+00
 Harris functional with IExCor=33909 and IRadAn=       5 diagonalized for initial guess.
 HarFok:  IExCor=33909 AccDes= 0.00D+00 IRadAn=         5 IDoV= 1 UseB2=F ITyADJ=14
 ICtDFT=  3500011 ScaDFX=  1.000000  1.000000  1.000000  1.000000
 FoFCou: FMM=F IPFlag=           0 FMFlag=      100000 FMFlg1=           0
         NFxFlg=           0 DoJE=T BraDBF=F KetDBF=T FulRan=T
         wScrn=  0.000000 ICntrl=       500 IOpCl=  0 I1Cent=   200000004 NGrid=           0
         NMat0=    1 NMatS0=      1 NMatT0=    0 NMatD0=    1 NMtDS0=    0 NMtDT0=    0
 Petite list used in FoFCou.
 Harris En= -828.862485542181    
 JPrj=0 DoOrth=F DoCkMO=F.
 Initial guess <Sx>= 0.0000 <Sy>= 0.0000 <Sz>= 0.5000 <S**2>= 0.7500 S= 0.5000
 Leave Link  401 at Thu Jan 21 06:50:23 2021, MaxMem=  4026531840 cpu:              39.8 elap:               5.0
 (Enter /opt/ohpc/pub/libs/gaussian/g16-A.03/sandybridge/g16/l502.exe)
 Integral symmetry usage will be decided dynamically.
 UHF open shell SCF:
 Using DIIS extrapolation, IDIIS=    10.
 NGot=  4026531840 LenX=  4025925692 LenY=  4025627030
 Requested convergence on RMS density matrix=1.00D-06 within  32 cycles.
 Requested convergence on MAX density matrix=1.00D-04.
 Requested convergence on             energy=1.00D-04.
 Virtual orbitals will be shifted by   0.500 hartree.
 No special actions if energy rises.
 Dynamic level shift is on during FON iterations.

 Cycle   1  Pass 1  IDiag  1:
 FoFJK:  IHMeth= 1 ICntrl=       0 DoSepK=T KAlg= 0 I1Cent=           0 FoldK=F
 IRaf=         1 NMat=       1 IRICut=       1 DoRegI=T DoRafI=F ISym2E= 0 IDoP0=0 IntGTp=1.
 FoFCou: FMM=F IPFlag=           0 FMFlag=      100000 FMFlg1=           0
         NFxFlg=           0 DoJE=T BraDBF=F KetDBF=F FulRan=T
         wScrn=  0.000000 ICntrl=       500 IOpCl=  0 I1Cent=           0 NGrid=           0
         NMat0=    1 NMatS0=      1 NMatT0=    0 NMatD0=    1 NMtDS0=    0 NMtDT0=    0
 Symmetry not used in FoFCou.
 E= -844.640462035527    
 DIIS: error= 2.87D-02 at cycle   1 NSaved=   1.
 NSaved= 1 IEnMin= 1 EnMin= -844.640462035527     IErMin= 1 ErrMin= 2.87D-02
 ErrMax= 2.87D-02  0.00D+00 EMaxC= 1.00D+00 BMatC= 1.25D+00 BMatP= 1.25D+00
 IDIUse=1 WtCom= 1.00D+00 WtEn= 0.00D+00
 Coeff-Com:  0.100D+01
 Coeff:      0.100D+01
 Gap=     0.451 Goal=   None    Shift=    0.500
 T= 1470. Gap= 0.527 NK=0 IS=   75 IE=  525 IFin=   74
          NO(<0.9)=   0  NV(>0.1)=   0     74.00e < EF      0.00e >EF  Err=0.0D+00
 Gap=    -0.043 Goal=   None    Shift=    0.500
 T= 1470. Gap= 0.376 NK=0 IS=   74 IE=  525 IFin=   73
          NO(<0.9)=   0  NV(>0.1)=   0     73.00e < EF      0.00e >EF  Err=0.0D+00
 GapD=   -0.043 DampG=0.250 DampE=0.500 DampFc=0.1250 IDamp=-1.
 Damping current iteration by 1.25D-01
 RMSDP=3.02D-03 MaxDP=2.75D-01              OVMax= 1.05D-01

 Cycle   2  Pass 1  IDiag  1:
 E= -844.699529985527     Delta-E=       -0.059067950000 Rises=F Damp=T
 DIIS: error= 2.55D-02 at cycle   2 NSaved=   2.
 NSaved= 2 IEnMin= 2 EnMin= -844.699529985527     IErMin= 2 ErrMin= 2.55D-02
 ErrMax= 2.55D-02  0.00D+00 EMaxC= 1.00D+00 BMatC= 9.00D-01 BMatP= 1.25D+00
 IDIUse=1 WtCom= 1.00D+00 WtEn= 0.00D+00
 Coeff-Com: -0.513D+01 0.613D+01
 Coeff:     -0.513D+01 0.613D+01
 Gap=     0.188 Goal=   None    Shift=    0.500
 T= 1447. Gap= 0.678 NK=0 IS=   75 IE=  525 IFin=   74
          NO(<0.9)=   0  NV(>0.1)=   0     74.00e < EF      0.00e >EF  Err=0.0D+00
 Gap=     0.058 Goal=   None    Shift=    0.500
 T= 1447. Gap= 0.552 NK=0 IS=   74 IE=  525 IFin=   73
          NO(<0.9)=   0  NV(>0.1)=   0     73.00e < EF      0.00e >EF  Err=0.0D+00
 GapD=    0.058 DampG=0.500 DampE=0.500 DampFc=0.2500 IDamp=-1.
 Damping current iteration by 2.50D-01
 RMSDP=2.77D-03 MaxDP=2.41D-01 DE=-5.91D-02 OVMax= 4.16D-02

 Cycle   3  Pass 1  IDiag  1:
 E= -844.786846231474     Delta-E=       -0.087316245947 Rises=F Damp=T
 DIIS: error= 1.98D-02 at cycle   3 NSaved=   3.
 NSaved= 3 IEnMin= 3 EnMin= -844.786846231474     IErMin= 3 ErrMin= 1.98D-02
 ErrMax= 1.98D-02  0.00D+00 EMaxC= 1.00D+00 BMatC= 4.79D-01 BMatP= 9.00D-01
 IDIUse=1 WtCom= 1.00D+00 WtEn= 0.00D+00
 Coeff-Com:  0.249D+00-0.307D+01 0.382D+01
 Coeff:      0.249D+00-0.307D+01 0.382D+01
 Gap=     0.211 Goal=   None    Shift=    0.500
 T= 1379. Gap= 0.710 NK=0 IS=   75 IE=  525 IFin=   74
          NO(<0.9)=   0  NV(>0.1)=   0     74.00e < EF      0.00e >EF  Err=0.0D+00
 Gap=     0.077 Goal=   None    Shift=    0.500
 T= 1379. Gap= 0.578 NK=0 IS=   74 IE=  525 IFin=   73
          NO(<0.9)=   0  NV(>0.1)=   0     73.00e < EF      0.00e >EF  Err=0.0D+00
 GapD=    0.077 DampG=0.500 DampE=0.500 DampFc=0.2500 IDamp=-1.
 Damping current iteration by 2.50D-01
 RMSDP=1.99D-03 MaxDP=1.60D-01 DE=-8.73D-02 OVMax= 3.41D-02

 Cycle   4  Pass 1  IDiag  1:
 E= -844.843083240882     Delta-E=       -0.056237009408 Rises=F Damp=T
 DIIS: error= 1.54D-02 at cycle   4 NSaved=   4.
 NSaved= 4 IEnMin= 4 EnMin= -844.843083240882     IErMin= 4 ErrMin= 1.54D-02
 ErrMax= 1.54D-02  0.00D+00 EMaxC= 1.00D+00 BMatC= 2.62D-01 BMatP= 4.79D-01
 IDIUse=1 WtCom= 1.00D+00 WtEn= 0.00D+00
 Coeff-Com:  0.669D+00-0.966D+00-0.272D+01 0.402D+01
 Coeff:      0.669D+00-0.966D+00-0.272D+01 0.402D+01
 Gap=     0.218 Goal=   None    Shift=    0.500
 T= 1260. Gap= 0.718 NK=0 IS=   75 IE=  525 IFin=   74
          NO(<0.9)=   0  NV(>0.1)=   0     74.00e < EF      0.00e >EF  Err=0.0D+00
 Gap=     0.092 Goal=   None    Shift=    0.500
 T= 1260. Gap= 0.592 NK=0 IS=   74 IE=  525 IFin=   73
          NO(<0.9)=   0  NV(>0.1)=   0     73.00e < EF      0.00e >EF  Err=0.0D+00
 GapD=    0.092 DampG=0.500 DampE=0.500 DampFc=0.2500 IDamp=-1.
 Damping current iteration by 2.50D-01
 RMSDP=1.46D-03 MaxDP=1.03D-01 DE=-5.62D-02 OVMax= 3.16D-02

 Cycle   5  Pass 1  IDiag  1:
 E= -844.881024231479     Delta-E=       -0.037940990598 Rises=F Damp=T
 DIIS: error= 1.22D-02 at cycle   5 NSaved=   5.
 NSaved= 5 IEnMin= 5 EnMin= -844.881024231479     IErMin= 5 ErrMin= 1.22D-02
 ErrMax= 1.22D-02  0.00D+00 EMaxC= 1.00D+00 BMatC= 1.46D-01 BMatP= 2.62D-01
 IDIUse=1 WtCom= 1.00D+00 WtEn= 0.00D+00
 Coeff-Com: -0.463D-01 0.778D+00 0.370D+00-0.691D+01 0.681D+01
 Coeff:     -0.463D-01 0.778D+00 0.370D+00-0.691D+01 0.681D+01
 Gap=     0.230 Goal=   None    Shift=    0.500
 T= 1112. Gap= 0.730 NK=4 IS=   75 IE=   88 IFin=   74
          NO(<0.9)=   0  NV(>0.1)=   0     74.00e < EF      0.00e >EF  Err=0.0D+00
 Gap=     0.101 Goal=   None    Shift=    0.500
 T= 1112. Gap= 0.603 NK=4 IS=   74 IE=   87 IFin=   73
          NO(<0.9)=   0  NV(>0.1)=   0     73.00e < EF      0.00e >EF  Err=0.0D+00
 GapD=    0.101 DampG=1.000 DampE=0.500 DampFc=0.5000 IDamp=-1.
 Damping current iteration by 5.00D-01
 RMSDP=1.06D-03 MaxDP=6.12D-02 DE=-3.79D-02 OVMax= 3.30D-02

 Cycle   6  Pass 1  IDiag  1:
 E= -844.932134357817     Delta-E=       -0.051110126338 Rises=F Damp=T
 DIIS: error= 8.93D-03 at cycle   6 NSaved=   6.
 NSaved= 6 IEnMin= 6 EnMin= -844.932134357817     IErMin= 6 ErrMin= 8.93D-03
 ErrMax= 8.93D-03  0.00D+00 EMaxC= 1.00D+00 BMatC= 3.72D-02 BMatP= 1.46D-01
 IDIUse=1 WtCom= 1.00D+00 WtEn= 0.00D+00
 Coeff-Com: -0.347D+00 0.549D+00 0.143D+01-0.745D+00-0.400D+01 0.411D+01
 Coeff:     -0.347D+00 0.549D+00 0.143D+01-0.745D+00-0.400D+01 0.411D+01
 Gap=     0.237 Goal=   None    Shift=    0.500
 T=  955. Gap= 0.737 NK=4 IS=   75 IE=   88 IFin=   74
          NO(<0.9)=   0  NV(>0.1)=   0     74.00e < EF      0.00e >EF  Err=0.0D+00
 Gap=     0.108 Goal=   None    Shift=    0.500
 T=  955. Gap= 0.610 NK=4 IS=   74 IE=   87 IFin=   73
          NO(<0.9)=   0  NV(>0.1)=   0     73.00e < EF      0.00e >EF  Err=0.0D+00
 GapD=    0.108 DampG=1.000 DampE=1.000 DampFc=1.0000 IDamp=-1.
 RMSDP=5.40D-04 MaxDP=1.89D-02 DE=-5.11D-02 OVMax= 3.49D-02

 Cycle   7  Pass 1  IDiag  1:
 E= -844.978393173085     Delta-E=       -0.046258815268 Rises=F Damp=F
 DIIS: error= 4.92D-03 at cycle   7 NSaved=   7.
 NSaved= 7 IEnMin= 7 EnMin= -844.978393173085     IErMin= 7 ErrMin= 4.92D-03
 ErrMax= 4.92D-03  0.00D+00 EMaxC= 1.00D+00 BMatC= 8.71D-04 BMatP= 3.72D-02
 IDIUse=1 WtCom= 1.00D+00 WtEn= 0.00D+00
 Coeff-Com: -0.158D+00 0.684D-01 0.287D+00 0.242D+01-0.360D+01 0.206D+00
 Coeff-Com:  0.177D+01
 Coeff:     -0.158D+00 0.684D-01 0.287D+00 0.242D+01-0.360D+01 0.206D+00
 Coeff:      0.177D+01
 Gap=     0.240 Goal=   None    Shift=    0.500
 T=  752. Gap= 0.740 NK=4 IS=   75 IE=   88 IFin=   74
          NO(<0.9)=   0  NV(>0.1)=   0     74.00e < EF      0.00e >EF  Err=0.0D+00
 Gap=     0.113 Goal=   None    Shift=    0.500
 T=  752. Gap= 0.615 NK=4 IS=   74 IE=   87 IFin=   73
          NO(<0.9)=   0  NV(>0.1)=   0     73.00e < EF      0.00e >EF  Err=0.0D+00
 GapD=    0.113 DampG=1.000 DampE=1.000 DampFc=1.0000 IDamp=-1.
 RMSDP=1.48D-04 MaxDP=1.13D-02 DE=-4.63D-02 OVMax= 3.44D-02

 Cycle   8  Pass 1  IDiag  1:
 E= -844.980093043009     Delta-E=       -0.001699869924 Rises=F Damp=F
 DIIS: error= 4.47D-03 at cycle   8 NSaved=   8.
 NSaved= 8 IEnMin= 8 EnMin= -844.980093043009     IErMin= 8 ErrMin= 4.47D-03
 ErrMax= 4.47D-03  0.00D+00 EMaxC= 1.00D+00 BMatC= 6.94D-04 BMatP= 8.71D-04
 IDIUse=1 WtCom= 1.00D+00 WtEn= 0.00D+00
 Coeff-Com: -0.231D-01 0.235D-01-0.483D+00 0.133D+01 0.569D-01-0.196D+01
 Coeff-Com: -0.128D+00 0.218D+01
 Coeff:     -0.231D-01 0.235D-01-0.483D+00 0.133D+01 0.569D-01-0.196D+01
 Coeff:     -0.128D+00 0.218D+01
 Gap=     0.248 Goal=   None    Shift=    0.500
 T=  541. Gap= 0.747 NK=4 IS=   75 IE=   87 IFin=   74
          NO(<0.9)=   0  NV(>0.1)=   0     74.00e < EF      0.00e >EF  Err=0.0D+00
 Gap=     0.120 Goal=   None    Shift=    0.500
 T=  541. Gap= 0.621 NK=4 IS=   74 IE=   87 IFin=   73
          NO(<0.9)=   0  NV(>0.1)=   0     73.00e < EF      0.00e >EF  Err=0.0D+00
 GapD=    0.120 DampG=1.000 DampE=1.000 DampFc=1.0000 IDamp=-1.
 RMSDP=1.69D-04 MaxDP=1.28D-02 DE=-1.70D-03 OVMax= 3.63D-02

 Cycle   9  Pass 1  IDiag  1:
 E= -844.981637235258     Delta-E=       -0.001544192249 Rises=F Damp=F
 DIIS: error= 4.17D-03 at cycle   9 NSaved=   9.
 NSaved= 9 IEnMin= 9 EnMin= -844.981637235258     IErMin= 9 ErrMin= 4.17D-03
 ErrMax= 4.17D-03  0.00D+00 EMaxC= 1.00D+00 BMatC= 6.37D-04 BMatP= 6.94D-04
 IDIUse=1 WtCom= 1.00D+00 WtEn= 0.00D+00
 Coeff-Com: -0.264D-01 0.313D-01-0.470D+00 0.128D+01 0.747D-01-0.191D+01
 Coeff-Com: -0.137D+00 0.208D+01 0.815D-01
 Coeff:     -0.264D-01 0.313D-01-0.470D+00 0.128D+01 0.747D-01-0.191D+01
 Coeff:     -0.137D+00 0.208D+01 0.815D-01
 Gap=     0.248 Goal=   None    Shift=    0.500
 T=  360. Gap= 0.748 NK=4 IS=   75 IE=   87 IFin=   74
          NO(<0.9)=   0  NV(>0.1)=   0     74.00e < EF      0.00e >EF  Err=0.0D+00
 Gap=     0.123 Goal=   None    Shift=    0.500
 T=  360. Gap= 0.624 NK=4 IS=   74 IE=   87 IFin=   73
          NO(<0.9)=   0  NV(>0.1)=   0     73.00e < EF      0.00e >EF  Err=0.0D+00
 GapD=    0.123 DampG=1.000 DampE=1.000 DampFc=1.0000 IDamp=-1.
 RMSDP=8.64D-05 MaxDP=7.13D-03 DE=-1.54D-03 OVMax= 2.86D-02

 Cycle  10  Pass 1  IDiag  1:
 E= -844.982709383590     Delta-E=       -0.001072148332 Rises=F Damp=F
 DIIS: error= 3.71D-03 at cycle  10 NSaved=  10.
 NSaved=10 IEnMin=10 EnMin= -844.982709383590     IErMin=10 ErrMin= 3.71D-03
 ErrMax= 3.71D-03  0.00D+00 EMaxC= 1.00D+00 BMatC= 5.07D-04 BMatP= 6.37D-04
 IDIUse=1 WtCom= 1.00D+00 WtEn= 0.00D+00
 Coeff-Com:  0.556D-02-0.133D+00 0.104D+00 0.919D+00-0.727D+00-0.761D+00
 Coeff-Com:  0.775D+00-0.689D-01-0.192D+01 0.281D+01
 Coeff:      0.556D-02-0.133D+00 0.104D+00 0.919D+00-0.727D+00-0.761D+00
 Coeff:      0.775D+00-0.689D-01-0.192D+01 0.281D+01
 Gap=     0.254 Goal=   None    Shift=    0.500
 T=  304. Gap= 0.753 NK=4 IS=   75 IE=   87 IFin=   74
          NO(<0.9)=   0  NV(>0.1)=   0     74.00e < EF      0.00e >EF  Err=0.0D+00
 Gap=     0.127 Goal=   None    Shift=    0.500
 T=  304. Gap= 0.628 NK=4 IS=   74 IE=   87 IFin=   73
          NO(<0.9)=   0  NV(>0.1)=   0     73.00e < EF      0.00e >EF  Err=0.0D+00
 GapD=    0.127 DampG=1.000 DampE=1.000 DampFc=1.0000 IDamp=-1.
 RMSDP=1.18D-04 MaxDP=8.90D-03 DE=-1.07D-03 OVMax= 3.15D-02

 Cycle  11  Pass 1  IDiag  1:
 E= -844.983760851510     Delta-E=       -0.001051467919 Rises=F Damp=F
 DIIS: error= 3.54D-03 at cycle  11 NSaved=  11.
 NSaved=11 IEnMin=11 EnMin= -844.983760851510     IErMin=11 ErrMin= 3.54D-03
 ErrMax= 3.54D-03  0.00D+00 EMaxC= 1.00D+00 BMatC= 5.24D-04 BMatP= 5.07D-04
 IDIUse=1 WtCom= 1.00D+00 WtEn= 0.00D+00
 Coeff-Com: -0.205D-01-0.233D+00 0.537D+00 0.171D+01-0.306D+01 0.902D+00
 Coeff-Com:  0.211D+01-0.155D+01-0.450D+01 0.307D+01 0.204D+01
 Coeff:     -0.205D-01-0.233D+00 0.537D+00 0.171D+01-0.306D+01 0.902D+00
 Coeff:      0.211D+01-0.155D+01-0.450D+01 0.307D+01 0.204D+01
 Gap=     0.258 Goal=   None    Shift=    0.500
 T=  257. Gap= 0.758 NK=4 IS=   75 IE=   85 IFin=   74
          NO(<0.9)=   0  NV(>0.1)=   0     74.00e < EF      0.00e >EF  Err=0.0D+00
 Gap=     0.129 Goal=   None    Shift=    0.500
 T=  257. Gap= 0.630 NK=4 IS=   74 IE=   87 IFin=   73
          NO(<0.9)=   0  NV(>0.1)=   0     73.00e < EF      0.00e >EF  Err=0.0D+00
 GapD=    0.129 DampG=1.000 DampE=1.000 DampFc=1.0000 IDamp=-1.
 RMSDP=1.39D-04 MaxDP=1.12D-02 DE=-1.05D-03 OVMax= 3.54D-02

 Cycle  12  Pass 1  IDiag  1:
 E= -844.984831033444     Delta-E=       -0.001070181934 Rises=F Damp=F
 DIIS: error= 3.39D-03 at cycle  12 NSaved=  12.
 NSaved=12 IEnMin=12 EnMin= -844.984831033444     IErMin=12 ErrMin= 3.39D-03
 ErrMax= 3.39D-03  0.00D+00 EMaxC= 1.00D+00 BMatC= 5.83D-04 BMatP= 5.07D-04
 IDIUse=1 WtCom= 1.00D+00 WtEn= 0.00D+00
 Coeff-Com: -0.357D-01-0.143D+00-0.944D-02 0.269D+01-0.343D+01 0.589D+00
 Coeff-Com:  0.155D+01 0.987D+00-0.617D+01 0.293D+01-0.670D+00 0.271D+01
 Coeff:     -0.357D-01-0.143D+00-0.944D-02 0.269D+01-0.343D+01 0.589D+00
 Coeff:      0.155D+01 0.987D+00-0.617D+01 0.293D+01-0.670D+00 0.271D+01
 Gap=     0.262 Goal=   None    Shift=    0.500
 T=  215. Gap= 0.762 NK=4 IS=   75 IE=   85 IFin=   74
          NO(<0.9)=   0  NV(>0.1)=   0     74.00e < EF      0.00e >EF  Err=0.0D+00
 Gap=     0.131 Goal=   None    Shift=    0.500
 T=  215. Gap= 0.633 NK=4 IS=   74 IE=   87 IFin=   73
          NO(<0.9)=   0  NV(>0.1)=   0     73.00e < EF      0.00e >EF  Err=0.0D+00
 GapD=    0.131 DampG=1.000 DampE=1.000 DampFc=1.0000 IDamp=-1.
 RMSDP=1.47D-04 MaxDP=1.06D-02 DE=-1.07D-03 OVMax= 3.83D-02

 Cycle  13  Pass 1  IDiag  1:
 E= -844.985873882763     Delta-E=       -0.001042849320 Rises=F Damp=F
 DIIS: error= 3.23D-03 at cycle  13 NSaved=  13.
 NSaved=13 IEnMin=13 EnMin= -844.985873882763     IErMin=13 ErrMin= 3.23D-03
 ErrMax= 3.23D-03  0.00D+00 EMaxC= 1.00D+00 BMatC= 6.72D-04 BMatP= 5.07D-04
 IDIUse=1 WtCom= 1.00D+00 WtEn= 0.00D+00
 Coeff-Com: -0.225D-01-0.111D+00 0.127D-01 0.205D+01-0.252D+01 0.172D+00
 Coeff-Com:  0.114D+01 0.158D+01-0.595D+01 0.337D+01-0.434D+00-0.244D+00
 Coeff-Com:  0.197D+01
 Coeff:     -0.225D-01-0.111D+00 0.127D-01 0.205D+01-0.252D+01 0.172D+00
 Coeff:      0.114D+01 0.158D+01-0.595D+01 0.337D+01-0.434D+00-0.244D+00
 Coeff:      0.197D+01
 Gap=     0.264 Goal=   None    Shift=    0.500
 T=  187. Gap= 0.764 NK=4 IS=   75 IE=   86 IFin=   74
          NO(<0.9)=   0  NV(>0.1)=   0     74.00e < EF      0.00e >EF  Err=0.0D+00
 Gap=     0.135 Goal=   None    Shift=    0.500
 T=  187. Gap= 0.636 NK=4 IS=   74 IE=   87 IFin=   73
          NO(<0.9)=   0  NV(>0.1)=   0     73.00e < EF      0.00e >EF  Err=0.0D+00
 GapD=    0.135 DampG=1.000 DampE=1.000 DampFc=1.0000 IDamp=-1.
 RMSDP=1.10D-04 MaxDP=7.60D-03 DE=-1.04D-03 OVMax= 3.40D-02

 Cycle  14  Pass 1  IDiag  1:
 E= -844.986735900709     Delta-E=       -0.000862017945 Rises=F Damp=F
 DIIS: error= 2.97D-03 at cycle  14 NSaved=  14.
 NSaved=14 IEnMin=14 EnMin= -844.986735900709     IErMin=14 ErrMin= 2.97D-03
 ErrMax= 2.97D-03  0.00D+00 EMaxC= 1.00D+00 BMatC= 6.06D-04 BMatP= 5.07D-04
 IDIUse=1 WtCom= 1.00D+00 WtEn= 0.00D+00
 Coeff-Com:  0.492D-02-0.141D+00 0.263D+00 0.101D+01-0.141D+01-0.195D+00
 Coeff-Com:  0.103D+01 0.645D+00-0.356D+01 0.278D+01 0.119D+01-0.356D+01
 Coeff-Com: -0.238D+00 0.318D+01
 Coeff:      0.492D-02-0.141D+00 0.263D+00 0.101D+01-0.141D+01-0.195D+00
 Coeff:      0.103D+01 0.645D+00-0.356D+01 0.278D+01 0.119D+01-0.356D+01
 Coeff:     -0.238D+00 0.318D+01
 Gap=     0.267 Goal=   None    Shift=    0.500
 T=  153. Gap= 0.766 NK=4 IS=   75 IE=   86 IFin=   74
          NO(<0.9)=   0  NV(>0.1)=   0     74.00e < EF      0.00e >EF  Err=0.0D+00
 Gap=     0.137 Goal=   None    Shift=    0.500
 T=  153. Gap= 0.638 NK=4 IS=   74 IE=   87 IFin=   73
          NO(<0.9)=   0  NV(>0.1)=   0     73.00e < EF      0.00e >EF  Err=0.0D+00
 GapD=    0.137 DampG=1.000 DampE=1.000 DampFc=1.0000 IDamp=-1.
 RMSDP=1.25D-04 MaxDP=7.59D-03 DE=-8.62D-04 OVMax= 3.51D-02

 Cycle  15  Pass 1  IDiag  1:
 E= -844.987523205702     Delta-E=       -0.000787304993 Rises=F Damp=F
 DIIS: error= 2.76D-03 at cycle  15 NSaved=  15.
 NSaved=15 IEnMin=15 EnMin= -844.987523205702     IErMin=15 ErrMin= 2.76D-03
 ErrMax= 2.76D-03  0.00D+00 EMaxC= 1.00D+00 BMatC= 6.45D-04 BMatP= 5.07D-04
 IDIUse=1 WtCom= 1.00D+00 WtEn= 0.00D+00
 Coeff-Com:  0.143D-02-0.139D+00 0.315D+00 0.888D+00-0.136D+01-0.124D+00
 Coeff-Com:  0.101D+01 0.441D-01-0.262D+01 0.241D+01 0.179D+01-0.312D+01
 Coeff-Com: -0.182D+01 0.239D+01 0.134D+01
 Coeff:      0.143D-02-0.139D+00 0.315D+00 0.888D+00-0.136D+01-0.124D+00
 Coeff:      0.101D+01 0.441D-01-0.262D+01 0.241D+01 0.179D+01-0.312D+01
 Coeff:     -0.182D+01 0.239D+01 0.134D+01
 Gap=     0.267 Goal=   None    Shift=    0.500
 T=  112. Gap= 0.767 NK=4 IS=   75 IE=   86 IFin=   74
          NO(<0.9)=   0  NV(>0.1)=   0     74.00e < EF      0.00e >EF  Err=0.0D+00
 Gap=     0.138 Goal=   None    Shift=    0.500
 T=  112. Gap= 0.640 NK=4 IS=   74 IE=   86 IFin=   73
          NO(<0.9)=   0  NV(>0.1)=   0     73.00e < EF      0.00e >EF  Err=0.0D+00
 GapD=    0.138 DampG=1.000 DampE=1.000 DampFc=1.0000 IDamp=-1.
 RMSDP=8.74D-05 MaxDP=5.22D-03 DE=-7.87D-04 OVMax= 3.00D-02

 Cycle  16  Pass 1  IDiag  1:
 E= -844.988161573957     Delta-E=       -0.000638368255 Rises=F Damp=F
 DIIS: error= 2.47D-03 at cycle  16 NSaved=  16.
 NSaved=16 IEnMin=16 EnMin= -844.988161573957     IErMin=16 ErrMin= 2.47D-03
 ErrMax= 2.47D-03  0.00D+00 EMaxC= 1.00D+00 BMatC= 5.18D-04 BMatP= 5.07D-04
 IDIUse=1 WtCom= 1.00D+00 WtEn= 0.00D+00
 Coeff-Com: -0.181D-01-0.120D+00 0.211D-01 0.186D+01-0.243D+01 0.498D+00
 Coeff-Com:  0.112D+01-0.648D+00-0.154D+01 0.386D+00 0.926D+00 0.256D+01
 Coeff-Com: -0.335D+01-0.115D+01-0.174D+01 0.461D+01
 Coeff:     -0.181D-01-0.120D+00 0.211D-01 0.186D+01-0.243D+01 0.498D+00
 Coeff:      0.112D+01-0.648D+00-0.154D+01 0.386D+00 0.926D+00 0.256D+01
 Coeff:     -0.335D+01-0.115D+01-0.174D+01 0.461D+01
 Gap=     0.269 Goal=   None    Shift=    0.500
 T=   59. Gap= 0.768 NK=4 IS=   75 IE=   86 IFin=   74
          NO(<0.9)=   0  NV(>0.1)=   0     74.00e < EF      0.00e >EF  Err=0.0D+00
 Gap=     0.138 Goal=   None    Shift=    0.500
 T=   59. Gap= 0.640 NK=4 IS=   74 IE=   85 IFin=   73
          NO(<0.9)=   0  NV(>0.1)=   0     73.00e < EF      0.00e >EF  Err=0.0D+00
 GapD=    0.138 DampG=1.000 DampE=1.000 DampFc=1.0000 IDamp=-1.
 RMSDP=1.50D-04 MaxDP=9.52D-03 DE=-6.38D-04 OVMax= 3.72D-02

 Cycle  17  Pass 1  IDiag  1:
 E= -844.988775795924     Delta-E=       -0.000614221967 Rises=F Damp=F
 DIIS: error= 2.39D-03 at cycle  17 NSaved=  17.
 NSaved=17 IEnMin=17 EnMin= -844.988775795924     IErMin=17 ErrMin= 2.39D-03
 ErrMax= 2.39D-03  0.00D+00 EMaxC= 1.00D+00 BMatC= 7.41D-04 BMatP= 5.07D-04
 IDIUse=1 WtCom= 1.00D+00 WtEn= 0.00D+00
 Coeff-Com: -0.156D-01-0.117D+00 0.703D-02 0.178D+01-0.230D+01 0.461D+00
 Coeff-Com:  0.973D+00-0.231D+00-0.209D+01 0.653D+00 0.717D+00 0.250D+01
 Coeff-Com: -0.232D+01-0.106D+01-0.317D+01 0.460D+01 0.609D+00
 Coeff:     -0.156D-01-0.117D+00 0.703D-02 0.178D+01-0.230D+01 0.461D+00
 Coeff:      0.973D+00-0.231D+00-0.209D+01 0.653D+00 0.717D+00 0.250D+01
 Coeff:     -0.232D+01-0.106D+01-0.317D+01 0.460D+01 0.609D+00
 Gap=     0.268 Goal=   None    Shift=    0.500
 T=   15. Gap= 0.768 NK=4 IS=   75 IE=   85 IFin=   74
          NO(<0.9)=   0  NV(>0.1)=   0     74.00e < EF      0.00e >EF  Err=0.0D+00
 Gap=     0.141 Goal=   None    Shift=    0.500
 T=   15. Gap= 0.642 NK=4 IS=   74 IE=   85 IFin=   73
          NO(<0.9)=   0  NV(>0.1)=   0     73.00e < EF      0.00e >EF  Err=0.0D+00
 GapD=    0.141 DampG=1.000 DampE=1.000 DampFc=1.0000 IDamp=-1.
 RMSDP=8.68D-05 MaxDP=5.17D-03 DE=-6.14D-04 OVMax= 3.00D-02

 Cycle  18  Pass 1  IDiag  1:
 E= -844.989277647625     Delta-E=       -0.000501851700 Rises=F Damp=F
 DIIS: error= 2.11D-03 at cycle  18 NSaved=  18.
 NSaved=18 IEnMin=18 EnMin= -844.989277647625     IErMin=18 ErrMin= 2.11D-03
 ErrMax= 2.11D-03  0.00D+00 EMaxC= 1.00D+00 BMatC= 6.03D-04 BMatP= 5.07D-04
 IDIUse=1 WtCom= 1.00D+00 WtEn= 0.00D+00
 Coeff-Com:  0.265D-02-0.872D-01 0.344D-01 0.949D+00-0.112D+01-0.717D-02
 Coeff-Com:  0.492D+00 0.649D+00-0.209D+01 0.732D+00 0.998D-01 0.741D+00
 Coeff-Com:  0.570D+00-0.835D+00-0.155D+01 0.195D+01-0.380D+01 0.428D+01
 Coeff:      0.265D-02-0.872D-01 0.344D-01 0.949D+00-0.112D+01-0.717D-02
 Coeff:      0.492D+00 0.649D+00-0.209D+01 0.732D+00 0.998D-01 0.741D+00
 Coeff:      0.570D+00-0.835D+00-0.155D+01 0.195D+01-0.380D+01 0.428D+01
 Gap=     0.268 Goal=   None    Shift=    0.500
 Gap=     0.141 Goal=   None    Shift=    0.500
 GapD=    0.141 DampG=1.000 DampE=1.000 DampFc=1.0000 IDamp=-1.
 RMSDP=8.74D-05 MaxDP=5.47D-03 DE=-5.02D-04 OVMax= 2.84D-02

 Cycle  19  Pass 1  IDiag  1:
 E= -844.989684473515     Delta-E=       -0.000406825890 Rises=F Damp=F
 DIIS: error= 1.87D-03 at cycle  19 NSaved=  19.
 NSaved=19 IEnMin=19 EnMin= -844.989684473515     IErMin=19 ErrMin= 1.87D-03
 ErrMax= 1.87D-03  0.00D+00 EMaxC= 1.00D+00 BMatC= 5.34D-04 BMatP= 5.07D-04
 IDIUse=1 WtCom= 1.00D+00 WtEn= 0.00D+00
 Coeff-Com:  0.538D-02-0.795D-01 0.130D+00 0.573D+00-0.830D+00 0.108D-01
 Coeff-Com:  0.469D+00 0.187D+00-0.114D+01 0.415D+00 0.443D+00-0.140D+00
 Coeff-Com: -0.266D+00-0.197D+00 0.114D+01 0.738D+00-0.494D+01 0.242D+01
 Coeff-Com:  0.206D+01
 Coeff:      0.538D-02-0.795D-01 0.130D+00 0.573D+00-0.830D+00 0.108D-01
 Coeff:      0.469D+00 0.187D+00-0.114D+01 0.415D+00 0.443D+00-0.140D+00
 Coeff:     -0.266D+00-0.197D+00 0.114D+01 0.738D+00-0.494D+01 0.242D+01
 Coeff:      0.206D+01
 Gap=     0.268 Goal=   None    Shift=    0.500
 Gap=     0.142 Goal=   None    Shift=    0.500
 GapD=    0.142 DampG=1.000 DampE=1.000 DampFc=1.0000 IDamp=-1.
 RMSDP=6.81D-05 MaxDP=3.72D-03 DE=-4.07D-04 OVMax= 2.44D-02

 Cycle  20  Pass 1  IDiag  1:
 E= -844.990009169712     Delta-E=       -0.000324696197 Rises=F Damp=F
 DIIS: error= 1.63D-03 at cycle  20 NSaved=  20.
 NSaved=20 IEnMin=20 EnMin= -844.990009169712     IErMin=20 ErrMin= 1.63D-03
 ErrMax= 1.63D-03  0.00D+00 EMaxC= 1.00D+00 BMatC= 4.17D-04 BMatP= 5.07D-04
 IDIUse=1 WtCom= 1.00D+00 WtEn= 0.00D+00
 Coeff-Com: -0.206D-01-0.371D-02 0.118D+00 0.490D+00-0.103D+01 0.450D+00
 Coeff-Com:  0.379D+00-0.716D+00 0.201D+00-0.979D-01 0.119D+01 0.742D-01
 Coeff-Com: -0.306D+01 0.110D+01 0.906D+00 0.106D+01 0.172D+01-0.536D+01
 Coeff-Com: -0.147D+01 0.508D+01
 Coeff:     -0.206D-01-0.371D-02 0.118D+00 0.490D+00-0.103D+01 0.450D+00
 Coeff:      0.379D+00-0.716D+00 0.201D+00-0.979D-01 0.119D+01 0.742D-01
 Coeff:     -0.306D+01 0.110D+01 0.906D+00 0.106D+01 0.172D+01-0.536D+01
 Coeff:     -0.147D+01 0.508D+01
 Gap=     0.267 Goal=   None    Shift=    0.500
 Gap=     0.141 Goal=   None    Shift=    0.500
 GapD=    0.141 DampG=1.000 DampE=1.000 DampFc=1.0000 IDamp=-1.
 RMSDP=8.84D-05 MaxDP=5.34D-03 DE=-3.25D-04 OVMax= 2.51D-02

 Cycle  21  Pass 1  IDiag  1:
 E= -844.990263394389     Delta-E=       -0.000254224677 Rises=F Damp=F
 DIIS: error= 1.48D-03 at cycle  21 NSaved=  20.
 NSaved=20 IEnMin=20 EnMin= -844.990263394389     IErMin=20 ErrMin= 1.48D-03
 ErrMax= 1.48D-03  0.00D+00 EMaxC= 1.00D+00 BMatC= 4.60D-04 BMatP= 4.17D-04
 IDIUse=1 WtCom= 1.00D+00 WtEn= 0.00D+00
 Coeff-Com: -0.353D-01 0.394D-01 0.584D+00-0.920D+00 0.302D+00 0.319D+00
 Coeff-Com: -0.566D+00 0.144D+00-0.726D-01 0.118D+01 0.368D-01-0.294D+01
 Coeff-Com:  0.126D+01-0.721D-02 0.165D+01 0.187D+01-0.474D+01-0.205D+01
 Coeff-Com:  0.421D+01 0.738D+00
 Coeff:     -0.353D-01 0.394D-01 0.584D+00-0.920D+00 0.302D+00 0.319D+00
 Coeff:     -0.566D+00 0.144D+00-0.726D-01 0.118D+01 0.368D-01-0.294D+01
 Coeff:      0.126D+01-0.721D-02 0.165D+01 0.187D+01-0.474D+01-0.205D+01
 Coeff:      0.421D+01 0.738D+00
 Gap=     0.267 Goal=   None    Shift=    0.500
 Gap=     0.142 Goal=   None    Shift=    0.500
 GapD=    0.142 DampG=1.000 DampE=1.000 DampFc=1.0000 IDamp=-1.
 RMSDP=5.50D-05 MaxDP=2.76D-03 DE=-2.54D-04 OVMax= 2.02D-02

 Cycle  22  Pass 1  IDiag  1:
 E= -844.990473817724     Delta-E=       -0.000210423335 Rises=F Damp=F
 DIIS: error= 1.27D-03 at cycle  22 NSaved=  20.
 NSaved=20 IEnMin=20 EnMin= -844.990473817724     IErMin=20 ErrMin= 1.27D-03
 ErrMax= 1.27D-03  0.00D+00 EMaxC= 1.00D+00 BMatC= 3.53D-04 BMatP= 4.17D-04
 IDIUse=1 WtCom= 1.00D+00 WtEn= 0.00D+00
 Coeff-Com: -0.494D-01 0.330D+00-0.370D+00 0.317D-01 0.920D-01 0.194D+00
 Coeff-Com: -0.602D+00 0.207D+00 0.216D+00 0.826D+00-0.763D+00-0.459D+00
 Coeff-Com: -0.198D+01 0.220D+01 0.244D+01-0.916D+00-0.243D+01 0.677D+00
 Coeff-Com: -0.459D+01 0.594D+01
 Coeff:     -0.494D-01 0.330D+00-0.370D+00 0.317D-01 0.920D-01 0.194D+00
 Coeff:     -0.602D+00 0.207D+00 0.216D+00 0.826D+00-0.763D+00-0.459D+00
 Coeff:     -0.198D+01 0.220D+01 0.244D+01-0.916D+00-0.243D+01 0.677D+00
 Coeff:     -0.459D+01 0.594D+01
 Gap=     0.266 Goal=   None    Shift=    0.500
 Gap=     0.141 Goal=   None    Shift=    0.500
 GapD=    0.141 DampG=1.000 DampE=1.000 DampFc=1.0000 IDamp=-1.
 RMSDP=6.84D-05 MaxDP=3.29D-03 DE=-2.10D-04 OVMax= 2.01D-02

 Cycle  23  Pass 1  IDiag  1:
 E= -844.990632211534     Delta-E=       -0.000158393810 Rises=F Damp=F
 DIIS: error= 1.13D-03 at cycle  23 NSaved=  20.
 NSaved=20 IEnMin=20 EnMin= -844.990632211534     IErMin=20 ErrMin= 1.13D-03
 ErrMax= 1.13D-03  0.00D+00 EMaxC= 1.00D+00 BMatC= 3.52D-04 BMatP= 3.53D-04
 IDIUse=1 WtCom= 1.00D+00 WtEn= 0.00D+00
 Coeff-Com:  0.153D+00-0.225D+00 0.374D-01 0.594D-01 0.144D+00-0.510D+00
 Coeff-Com:  0.209D+00 0.170D+00 0.650D+00-0.428D+00-0.565D+00-0.176D+01
 Coeff-Com:  0.193D+01 0.194D+01-0.317D+00-0.200D+01 0.662D+00-0.557D+01
 Coeff-Com:  0.577D+01 0.652D+00
 Coeff:      0.153D+00-0.225D+00 0.374D-01 0.594D-01 0.144D+00-0.510D+00
 Coeff:      0.209D+00 0.170D+00 0.650D+00-0.428D+00-0.565D+00-0.176D+01
 Coeff:      0.193D+01 0.194D+01-0.317D+00-0.200D+01 0.662D+00-0.557D+01
 Coeff:      0.577D+01 0.652D+00
 Gap=     0.266 Goal=   None    Shift=    0.500
 Gap=     0.141 Goal=   None    Shift=    0.500
 GapD=    0.141 DampG=1.000 DampE=1.000 DampFc=1.0000 IDamp=-1.
 RMSDP=4.45D-05 MaxDP=1.86D-03 DE=-1.58D-04 OVMax= 1.63D-02

 Cycle  24  Pass 1  IDiag  1:
 E= -844.990760262595     Delta-E=       -0.000128051061 Rises=F Damp=F
 DIIS: error= 9.68D-04 at cycle  24 NSaved=  20.
 NSaved=20 IEnMin=20 EnMin= -844.990760262595     IErMin=20 ErrMin= 9.68D-04
 ErrMax= 9.68D-04  0.00D+00 EMaxC= 1.00D+00 BMatC= 2.71D-04 BMatP= 3.52D-04
 IDIUse=1 WtCom= 1.00D+00 WtEn= 0.00D+00
 Coeff-Com: -0.129D-01 0.227D-01-0.479D-01 0.791D-01-0.346D+00 0.181D+00
 Coeff-Com:  0.549D-01 0.587D+00-0.286D+00-0.480D+00-0.548D+00 0.467D+00
 Coeff-Com:  0.189D+01-0.180D+01-0.572D+00 0.197D+01-0.262D+01 0.202D+01
 Coeff-Com: -0.473D+01 0.517D+01
 Coeff:     -0.129D-01 0.227D-01-0.479D-01 0.791D-01-0.346D+00 0.181D+00
 Coeff:      0.549D-01 0.587D+00-0.286D+00-0.480D+00-0.548D+00 0.467D+00
 Coeff:      0.189D+01-0.180D+01-0.572D+00 0.197D+01-0.262D+01 0.202D+01
 Coeff:     -0.473D+01 0.517D+01
 Gap=     0.265 Goal=   None    Shift=    0.500
 Gap=     0.141 Goal=   None    Shift=    0.500
 RMSDP=5.04D-05 MaxDP=2.29D-03 DE=-1.28D-04 OVMax= 1.55D-02

 Cycle  25  Pass 1  IDiag  1:
 E= -844.990842747975     Delta-E=       -0.000082485379 Rises=F Damp=F
 DIIS: error= 8.56D-04 at cycle  25 NSaved=  20.
 NSaved=20 IEnMin=20 EnMin= -844.990842747975     IErMin=20 ErrMin= 8.56D-04
 ErrMax= 8.56D-04  0.00D+00 EMaxC= 1.00D+00 BMatC= 2.64D-04 BMatP= 2.71D-04
 IDIUse=1 WtCom= 1.00D+00 WtEn= 0.00D+00
 Coeff-Com: -0.264D-02-0.392D-01 0.941D-01-0.370D+00 0.202D+00 0.195D+00
 Coeff-Com:  0.477D+00-0.618D+00-0.185D+00-0.405D+00 0.489D+00 0.176D+01
 Coeff-Com: -0.207D+01-0.709D+00 0.208D+01-0.123D+01 0.129D+01-0.524D+01
 Coeff-Com:  0.426D+01 0.101D+01
 Coeff:     -0.264D-02-0.392D-01 0.941D-01-0.370D+00 0.202D+00 0.195D+00
 Coeff:      0.477D+00-0.618D+00-0.185D+00-0.405D+00 0.489D+00 0.176D+01
 Coeff:     -0.207D+01-0.709D+00 0.208D+01-0.123D+01 0.129D+01-0.524D+01
 Coeff:      0.426D+01 0.101D+01
 Gap=     0.265 Goal=   None    Shift=    0.500
 Gap=     0.141 Goal=   None    Shift=    0.500
 RMSDP=3.03D-05 MaxDP=1.37D-03 DE=-8.25D-05 OVMax= 1.21D-02

 Cycle  26  Pass 1  IDiag  1:
 E= -844.990913915891     Delta-E=       -0.000071167916 Rises=F Damp=F
 DIIS: error= 7.15D-04 at cycle  26 NSaved=  20.
 NSaved=20 IEnMin=20 EnMin= -844.990913915891     IErMin=20 ErrMin= 7.15D-04
 ErrMax= 7.15D-04  0.00D+00 EMaxC= 1.00D+00 BMatC= 1.90D-04 BMatP= 2.64D-04
 IDIUse=1 WtCom= 1.00D+00 WtEn= 0.00D+00
 Coeff-Com:  0.753D-01-0.118D+00-0.247D+00 0.155D+00 0.281D+00 0.385D+00
 Coeff-Com: -0.667D+00-0.268D+00-0.382D+00 0.576D+00 0.201D+01-0.171D+01
 Coeff-Com: -0.114D+01 0.783D+00-0.313D+00 0.122D+01 0.137D+00 0.301D+00
 Coeff-Com: -0.645D+01 0.636D+01
 Coeff:      0.753D-01-0.118D+00-0.247D+00 0.155D+00 0.281D+00 0.385D+00
 Coeff:     -0.667D+00-0.268D+00-0.382D+00 0.576D+00 0.201D+01-0.171D+01
 Coeff:     -0.114D+01 0.783D+00-0.313D+00 0.122D+01 0.137D+00 0.301D+00
 Coeff:     -0.645D+01 0.636D+01
 Gap=     0.265 Goal=   None    Shift=    0.500
 Gap=     0.142 Goal=   None    Shift=    0.500
 RMSDP=2.45D-05 MaxDP=1.15D-03 DE=-7.12D-05 OVMax= 9.98D-03

 Cycle  27  Pass 1  IDiag  1:
 E= -844.990962111518     Delta-E=       -0.000048195627 Rises=F Damp=F
 DIIS: error= 5.92D-04 at cycle  27 NSaved=  20.
 NSaved=20 IEnMin=20 EnMin= -844.990962111518     IErMin=20 ErrMin= 5.92D-04
 ErrMax= 5.92D-04  0.00D+00 EMaxC= 1.00D+00 BMatC= 1.38D-04 BMatP= 1.90D-04
 IDIUse=1 WtCom= 1.00D+00 WtEn= 0.00D+00
 Coeff-Com:  0.124D-01-0.199D+00 0.127D+00 0.249D-01 0.412D+00-0.251D+00
 Coeff-Com: -0.399D+00-0.626D+00 0.591D+00 0.170D+01-0.809D+00-0.109D+01
 Coeff-Com:  0.250D+00-0.137D+01 0.179D+01 0.165D+01-0.139D+00-0.639D+01
 Coeff-Com:  0.390D+01 0.181D+01
 Coeff:      0.124D-01-0.199D+00 0.127D+00 0.249D-01 0.412D+00-0.251D+00
 Coeff:     -0.399D+00-0.626D+00 0.591D+00 0.170D+01-0.809D+00-0.109D+01
 Coeff:      0.250D+00-0.137D+01 0.179D+01 0.165D+01-0.139D+00-0.639D+01
 Coeff:      0.390D+01 0.181D+01
 Gap=     0.265 Goal=   None    Shift=    0.500
 Gap=     0.142 Goal=   None    Shift=    0.500
 RMSDP=1.80D-05 MaxDP=9.22D-04 DE=-4.82D-05 OVMax= 7.90D-03

 Cycle  28  Pass 1  IDiag  1:
 E= -844.990995791240     Delta-E=       -0.000033679722 Rises=F Damp=F
 DIIS: error= 4.85D-04 at cycle  28 NSaved=  20.
 NSaved=20 IEnMin=20 EnMin= -844.990995791240     IErMin=20 ErrMin= 4.85D-04
 ErrMax= 4.85D-04  0.00D+00 EMaxC= 1.00D+00 BMatC= 9.45D-05 BMatP= 1.38D-04
 IDIUse=1 WtCom= 1.00D+00 WtEn= 0.00D+00
 Coeff-Com: -0.154D+00 0.126D+00-0.212D-01 0.351D+00-0.144D+00-0.333D+00
 Coeff-Com: -0.563D+00 0.517D+00 0.107D+01-0.264D+00-0.733D+00 0.149D+00
 Coeff-Com: -0.166D+01 0.162D+01 0.949D+00 0.282D+00-0.262D+01 0.190D+00
 Coeff-Com:  0.134D+00 0.211D+01
 Coeff:     -0.154D+00 0.126D+00-0.212D-01 0.351D+00-0.144D+00-0.333D+00
 Coeff:     -0.563D+00 0.517D+00 0.107D+01-0.264D+00-0.733D+00 0.149D+00
 Coeff:     -0.166D+01 0.162D+01 0.949D+00 0.282D+00-0.262D+01 0.190D+00
 Coeff:      0.134D+00 0.211D+01
 Gap=     0.265 Goal=   None    Shift=    0.500
 Gap=     0.141 Goal=   None    Shift=    0.500
 RMSDP=1.30D-05 MaxDP=6.69D-04 DE=-3.37D-05 OVMax= 6.12D-03

 Cycle  29  Pass 1  IDiag  1:
 E= -844.991019462585     Delta-E=       -0.000023671345 Rises=F Damp=F
 DIIS: error= 3.89D-04 at cycle  29 NSaved=  20.
 NSaved=20 IEnMin=20 EnMin= -844.991019462585     IErMin=20 ErrMin= 3.89D-04
 ErrMax= 3.89D-04  0.00D+00 EMaxC= 1.00D+00 BMatC= 5.96D-05 BMatP= 9.45D-05
 IDIUse=1 WtCom= 1.00D+00 WtEn= 0.00D+00
 Coeff-Com: -0.404D-02-0.245D-02 0.149D+00-0.743D-01-0.162D+00-0.221D+00
 Coeff-Com:  0.296D+00 0.709D-01 0.192D+00-0.129D+00 0.115D+00-0.120D+01
 Coeff-Com:  0.854D+00-0.371D+00 0.723D+00 0.170D+01-0.252D+01-0.151D+01
 Coeff-Com:  0.791D+00 0.231D+01
 Coeff:     -0.404D-02-0.245D-02 0.149D+00-0.743D-01-0.162D+00-0.221D+00
 Coeff:      0.296D+00 0.709D-01 0.192D+00-0.129D+00 0.115D+00-0.120D+01
 Coeff:      0.854D+00-0.371D+00 0.723D+00 0.170D+01-0.252D+01-0.151D+01
 Coeff:      0.791D+00 0.231D+01
 Gap=     0.265 Goal=   None    Shift=    0.500
 Gap=     0.141 Goal=   None    Shift=    0.500
 RMSDP=1.23D-05 MaxDP=5.73D-04 DE=-2.37D-05 OVMax= 5.26D-03

 Cycle  30  Pass 1  IDiag  1:
 E= -844.991035192480     Delta-E=       -0.000015729895 Rises=F Damp=F
 DIIS: error= 3.08D-04 at cycle  30 NSaved=  20.
 NSaved=20 IEnMin=20 EnMin= -844.991035192480     IErMin=20 ErrMin= 3.08D-04
 ErrMax= 3.08D-04  0.00D+00 EMaxC= 1.00D+00 BMatC= 3.74D-05 BMatP= 5.96D-05
 IDIUse=1 WtCom= 1.00D+00 WtEn= 0.00D+00
 Coeff-Com:  0.248D-01-0.614D-01 0.829D-02 0.628D-01-0.113D+00 0.160D+00
 Coeff-Com: -0.638D-01-0.176D-02-0.573D-01 0.137D+00-0.230D+00 0.128D+00
 Coeff-Com: -0.546D+00 0.529D+00 0.900D+00-0.531D+00-0.108D+01-0.105D+01
 Coeff-Com:  0.110D+01 0.169D+01
 Coeff:      0.248D-01-0.614D-01 0.829D-02 0.628D-01-0.113D+00 0.160D+00
 Coeff:     -0.638D-01-0.176D-02-0.573D-01 0.137D+00-0.230D+00 0.128D+00
 Coeff:     -0.546D+00 0.529D+00 0.900D+00-0.531D+00-0.108D+01-0.105D+01
 Coeff:      0.110D+01 0.169D+01
 Gap=     0.265 Goal=   None    Shift=    0.500
 Gap=     0.141 Goal=   None    Shift=    0.500
 RMSDP=7.96D-06 MaxDP=3.57D-04 DE=-1.57D-05 OVMax= 3.75D-03

 Cycle  31  Pass 1  IDiag  1:
 E= -844.991045485121     Delta-E=       -0.000010292641 Rises=F Damp=F
 DIIS: error= 2.44D-04 at cycle  31 NSaved=  20.
 NSaved=20 IEnMin=20 EnMin= -844.991045485121     IErMin=20 ErrMin= 2.44D-04
 ErrMax= 2.44D-04  0.00D+00 EMaxC= 1.00D+00 BMatC= 2.12D-05 BMatP= 3.74D-05
 IDIUse=1 WtCom= 1.00D+00 WtEn= 0.00D+00
 Coeff-Com: -0.189D-01 0.498D-02 0.509D-01-0.801D-01 0.593D-01 0.354D-01
 Coeff-Com: -0.716D-01-0.155D+00 0.667D-01 0.291D+00-0.194D-01-0.138D+00
 Coeff-Com: -0.111D+00-0.675D+00 0.132D+01 0.909D-01-0.142D+01-0.148D+00
 Coeff-Com: -0.469D+00 0.239D+01
 Coeff:     -0.189D-01 0.498D-02 0.509D-01-0.801D-01 0.593D-01 0.354D-01
 Coeff:     -0.716D-01-0.155D+00 0.667D-01 0.291D+00-0.194D-01-0.138D+00
 Coeff:     -0.111D+00-0.675D+00 0.132D+01 0.909D-01-0.142D+01-0.148D+00
 Coeff:     -0.469D+00 0.239D+01
 Gap=     0.265 Goal=   None    Shift=    0.500
 Gap=     0.141 Goal=   None    Shift=    0.500
 RMSDP=7.14D-06 MaxDP=3.00D-04 DE=-1.03D-05 OVMax= 3.16D-03

 Cycle  32  Pass 1  IDiag  1:
 E= -844.991051137577     Delta-E=       -0.000005652455 Rises=F Damp=F
 DIIS: error= 1.99D-04 at cycle  32 NSaved=  20.
 NSaved=20 IEnMin=20 EnMin= -844.991051137577     IErMin=20 ErrMin= 1.99D-04
 ErrMax= 1.99D-04  0.00D+00 EMaxC= 1.00D+00 BMatC= 1.43D-05 BMatP= 2.12D-05
 IDIUse=1 WtCom= 1.00D+00 WtEn= 0.00D+00
 Coeff-Com: -0.137D-01 0.132D-01-0.990D-02 0.946D-02 0.786D-01-0.445D-03
 Coeff-Com: -0.229D+00 0.551D-01-0.845D-01 0.238D+00 0.391D+00-0.386D+00
 Coeff-Com: -0.763D+00 0.734D+00 0.344D+00-0.379D+00-0.210D+00-0.128D+01
 Coeff-Com:  0.585D+00 0.191D+01
 Coeff:     -0.137D-01 0.132D-01-0.990D-02 0.946D-02 0.786D-01-0.445D-03
 Coeff:     -0.229D+00 0.551D-01-0.845D-01 0.238D+00 0.391D+00-0.386D+00
 Coeff:     -0.763D+00 0.734D+00 0.344D+00-0.379D+00-0.210D+00-0.128D+01
 Coeff:      0.585D+00 0.191D+01
 Gap=     0.265 Goal=   None    Shift=    0.500
 Gap=     0.141 Goal=   None    Shift=    0.500
 RMSDP=6.04D-06 MaxDP=2.67D-04 DE=-5.65D-06 OVMax= 2.60D-03

 >>>>>>>>>> Convergence criterion not met.
 SCF Done:  E(ULC-wHPBE) =  -844.991051138     A.U. after   33 cycles
            NFock= 32  Conv=0.60D-05     -V/T= 2.0053
 <Sx>= 0.0000 <Sy>= 0.0000 <Sz>= 0.5000 <S**2>= 0.7805 S= 0.5152
 <L.S>= 0.000000000000E+00
 KE= 8.405764060309D+02 PE=-4.898839512589D+03 EE= 1.725811850581D+03
 Annihilation of the first spin contaminant:
 S**2 before annihilation     0.7805,   after     0.7506
 Leave Link  502 at Thu Jan 21 07:09:16 2021, MaxMem=  4026531840 cpu:            9040.3 elap:            1132.9
 (Enter /opt/ohpc/pub/libs/gaussian/g16-A.03/sandybridge/g16/l508.exe)
 Integral symmetry usage will be decided dynamically.
 Tight linear equation convergence will be used.
 ULC-wHPBE wavefunction.
 Quadratic Convergence SCF Method.
 Line search only if initial step raises energy.
 FoFJK:  IHMeth= 1 ICntrl=       0 DoSepK=T KAlg= 0 I1Cent=           0 FoldK=F
 IRaf=         1 NMat=       1 IRICut=       1 DoRegI=T DoRafI=F ISym2E= 1 IDoP0=0 IntGTp=1.
 FoFCou: FMM=F IPFlag=           0 FMFlag=      100000 FMFlg1=           0
         NFxFlg=           0 DoJE=T BraDBF=F KetDBF=F FulRan=T
         wScrn=  0.000000 ICntrl=       500 IOpCl=  0 I1Cent=           0 NGrid=           0
         NMat0=    1 NMatS0=      1 NMatT0=    0 NMatD0=    1 NMtDS0=    0 NMtDT0=    0
 Petite list used in FoFCou.
 Iteration   1 EE= -844.991054840969                                    Grad=2.228D-03 Max rot=    0.0421 deg.
 QCNR:  CnvC1=2.23D-08 CnvC2=2.23D-07
 LinEq1:  Iter=  0 NonCon=     1 RMS=2.35D-05 Max=5.20D-03 NDo=     1
 AX will form     1 AO Fock derivatives at one time.
 LinEq1:  Iter=  1 NonCon=     1 RMS=1.06D-05 Max=9.20D-04 NDo=     1
 LinEq1:  Iter=  2 NonCon=     1 RMS=5.31D-06 Max=3.48D-04 NDo=     1
 LinEq1:  Iter=  3 NonCon=     1 RMS=4.60D-06 Max=4.90D-04 NDo=     1
 LinEq1:  Iter=  4 NonCon=     1 RMS=2.15D-06 Max=1.28D-04 NDo=     1
 LinEq1:  Iter=  5 NonCon=     1 RMS=1.59D-06 Max=1.80D-04 NDo=     1
 LinEq1:  Iter=  6 NonCon=     1 RMS=7.04D-07 Max=4.54D-05 NDo=     1
 LinEq1:  Iter=  7 NonCon=     1 RMS=4.87D-07 Max=4.05D-05 NDo=     1
 LinEq1:  Iter=  8 NonCon=     1 RMS=2.18D-07 Max=1.14D-05 NDo=     1
 LinEq1:  Iter=  9 NonCon=     1 RMS=1.24D-07 Max=1.02D-05 NDo=     1
 LinEq1:  Iter= 10 NonCon=     1 RMS=8.63D-08 Max=6.77D-06 NDo=     1
 LinEq1:  Iter= 11 NonCon=     1 RMS=5.70D-08 Max=4.69D-06 NDo=     1
 LinEq1:  Iter= 12 NonCon=     1 RMS=4.06D-08 Max=3.12D-06 NDo=     1
 LinEq1:  Iter= 13 NonCon=     1 RMS=1.79D-08 Max=1.04D-06 NDo=     1
 LinEq1:  Iter= 14 NonCon=     1 RMS=1.05D-08 Max=5.13D-07 NDo=     1
 LinEq1:  Iter= 15 NonCon=     1 RMS=5.41D-09 Max=3.52D-07 NDo=     1
 LinEq1:  Iter= 16 NonCon=     0 RMS=2.99D-09 Max=2.14D-07 NDo=     1
 Linear equations converged to 2.228D-08 2.228D-07 after    16 iterations.
 Angle between quadratic step and gradient=  68.53 degrees.
     ILin= 1 X=0.000D+00 Y=-8.449910548410D+02 DE= 0.00D+00 F= -1.34D-05
     ILin= 2 X=1.000D+00 Y=-8.449910615780D+02 DE=-6.74D-06
 Iteration   2 EE= -844.991061577990     Delta-E=       -0.000006737021 Grad=1.107D-05 Max rot=    0.0002 deg.
 Rotation gradient small -- convergence achieved.
 SCF Done:  E(ULC-wHPBE) =  -844.991061578     a.u. after    2 cycles
            Convg  =    0.1107D-04                    18 Fock formations.
              S**2 =  0.7808                  -V/T =  2.0052
 <Sx>= 0.0000 <Sy>= 0.0000 <Sz>= 0.5000 <S**2>= 0.7808 S= 0.5153
 <L.S>= 0.000000000000E+00
 Annihilation of the first spin contaminant:
 S**2 before annihilation     0.7808,   after     0.7506
 Leave Link  508 at Thu Jan 21 07:18:54 2021, MaxMem=  4026531840 cpu:            4605.3 elap:             577.9
 (Enter /opt/ohpc/pub/libs/gaussian/g16-A.03/sandybridge/g16/l601.exe)
 Copying SCF densities to generalized density rwf, IOpCl= 1 IROHF=0.

 **********************************************************************

            Population analysis using the SCF density.

 **********************************************************************

 Orbital symmetries:
 Alpha Orbitals:
       Occupied  (A) (A) (A) (A) (A) (A) (A) (A) (A) (A) (A) (A)
                 (A) (A) (A) (A) (A) (A) (A) (A) (A) (A) (A) (A)
                 (A) (A) (A) (A) (A) (A) (A) (A) (A) (A) (A) (A)
                 (A) (A) (A) (A) (A) (A) (A) (A) (A) (A) (A) (A)
                 (A) (A) (A) (A) (A) (A) (A) (A) (A) (A) (A) (A)
                 (A) (A) (A) (A) (A) (A) (A) (A) (A) (A) (A) (A)
                 (A) (A)
       Virtual   (A) (A) (A) (A) (A) (A) (A) (A) (A) (A) (A) (A)
                 (A) (A) (A) (A) (A) (A) (A) (A) (A) (A) (A) (A)
                 (A) (A) (A) (A) (A) (A) (A) (A) (A) (A) (A) (A)
                 (A) (A) (A) (A) (A) (A) (A) (A) (A) (A) (A) (A)
                 (A) (A) (A) (A) (A) (A) (A) (A) (A) (A) (A) (A)
                 (A) (A) (A) (A) (A) (A) (A) (A) (A) (A) (A) (A)
                 (A) (A) (A) (A) (A) (A) (A) (A) (A) (A) (A) (A)
                 (A) (A) (A) (A) (A) (A) (A) (A) (A) (A) (A) (A)
                 (A) (A) (A) (A) (A) (A) (A) (A) (A) (A) (A) (A)
                 (A) (A) (A) (A) (A) (A) (A) (A) (A) (A) (A) (A)
                 (A) (A) (A) (A) (A) (A) (A) (A) (A) (A) (A) (A)
                 (A) (A) (A) (A) (A) (A) (A) (A) (A) (A) (A) (A)
                 (A) (A) (A) (A) (A) (A) (A) (A) (A) (A) (A) (A)
                 (A) (A) (A) (A) (A) (A) (A) (A) (A) (A) (A) (A)
                 (A) (A) (A) (A) (A) (A) (A) (A) (A) (A) (A) (A)
                 (A) (A) (A) (A) (A) (A) (A) (A) (A) (A) (A) (A)
                 (A) (A) (A) (A) (A) (A) (A) (A) (A) (A) (A) (A)
                 (A) (A) (A) (A) (A) (A) (A) (A) (A) (A) (A) (A)
                 (A) (A) (A) (A) (A) (A) (A) (A) (A) (A) (A) (A)
                 (A) (A) (A) (A) (A) (A) (A) (A) (A) (A) (A) (A)
                 (A) (A) (A) (A) (A) (A) (A) (A) (A) (A) (A) (A)
                 (A) (A) (A) (A) (A) (A) (A) (A) (A) (A) (A) (A)
                 (A) (A) (A) (A) (A) (A) (A) (A) (A) (A) (A) (A)
                 (A) (A) (A) (A) (A) (A) (A) (A) (A) (A) (A) (A)
                 (A) (A) (A) (A) (A) (A) (A) (A) (A) (A) (A) (A)
                 (A) (A) (A) (A) (A) (A) (A) (A) (A) (A) (A) (A)
                 (A) (A) (A) (A) (A) (A) (A) (A) (A) (A) (A) (A)
                 (A) (A) (A) (A) (A) (A) (A) (A) (A) (A) (A) (A)
                 (A) (A) (A) (A) (A) (A) (A) (A) (A) (A) (A) (A)
                 (A) (A) (A) (A) (A) (A) (A) (A) (A) (A) (A) (A)
                 (A) (A) (A) (A) (A) (A) (A) (A) (A) (A) (A) (A)
                 (A) (A) (A) (A) (A) (A) (A) (A) (A) (A) (A) (A)
                 (A) (A) (A) (A) (A) (A) (A) (A) (A) (A) (A) (A)
                 (A) (A) (A) (A) (A) (A) (A) (A) (A) (A) (A) (A)
                 (A) (A) (A) (A) (A) (A) (A) (A) (A) (A) (A) (A)
                 (A) (A) (A) (A) (A) (A) (A) (A) (A) (A) (A) (A)
                 (A) (A) (A) (A) (A) (A) (A) (A) (A) (A) (A) (A)
                 (A) (A) (A) (A) (A) (A) (A)
 Beta  Orbitals:
       Occupied  (A) (A) (A) (A) (A) (A) (A) (A) (A) (A) (A) (A)
                 (A) (A) (A) (A) (A) (A) (A) (A) (A) (A) (A) (A)
                 (A) (A) (A) (A) (A) (A) (A) (A) (A) (A) (A) (A)
                 (A) (A) (A) (A) (A) (A) (A) (A) (A) (A) (A) (A)
                 (A) (A) (A) (A) (A) (A) (A) (A) (A) (A) (A) (A)
                 (A) (A) (A) (A) (A) (A) (A) (A) (A) (A) (A) (A)
                 (A)
       Virtual   (A) (A) (A) (A) (A) (A) (A) (A) (A) (A) (A) (A)
                 (A) (A) (A) (A) (A) (A) (A) (A) (A) (A) (A) (A)
                 (A) (A) (A) (A) (A) (A) (A) (A) (A) (A) (A) (A)
                 (A) (A) (A) (A) (A) (A) (A) (A) (A) (A) (A) (A)
                 (A) (A) (A) (A) (A) (A) (A) (A) (A) (A) (A) (A)
                 (A) (A) (A) (A) (A) (A) (A) (A) (A) (A) (A) (A)
                 (A) (A) (A) (A) (A) (A) (A) (A) (A) (A) (A) (A)
                 (A) (A) (A) (A) (A) (A) (A) (A) (A) (A) (A) (A)
                 (A) (A) (A) (A) (A) (A) (A) (A) (A) (A) (A) (A)
                 (A) (A) (A) (A) (A) (A) (A) (A) (A) (A) (A) (A)
                 (A) (A) (A) (A) (A) (A) (A) (A) (A) (A) (A) (A)
                 (A) (A) (A) (A) (A) (A) (A) (A) (A) (A) (A) (A)
                 (A) (A) (A) (A) (A) (A) (A) (A) (A) (A) (A) (A)
                 (A) (A) (A) (A) (A) (A) (A) (A) (A) (A) (A) (A)
                 (A) (A) (A) (A) (A) (A) (A) (A) (A) (A) (A) (A)
                 (A) (A) (A) (A) (A) (A) (A) (A) (A) (A) (A) (A)
                 (A) (A) (A) (A) (A) (A) (A) (A) (A) (A) (A) (A)
                 (A) (A) (A) (A) (A) (A) (A) (A) (A) (A) (A) (A)
                 (A) (A) (A) (A) (A) (A) (A) (A) (A) (A) (A) (A)
                 (A) (A) (A) (A) (A) (A) (A) (A) (A) (A) (A) (A)
                 (A) (A) (A) (A) (A) (A) (A) (A) (A) (A) (A) (A)
                 (A) (A) (A) (A) (A) (A) (A) (A) (A) (A) (A) (A)
                 (A) (A) (A) (A) (A) (A) (A) (A) (A) (A) (A) (A)
                 (A) (A) (A) (A) (A) (A) (A) (A) (A) (A) (A) (A)
                 (A) (A) (A) (A) (A) (A) (A) (A) (A) (A) (A) (A)
                 (A) (A) (A) (A) (A) (A) (A) (A) (A) (A) (A) (A)
                 (A) (A) (A) (A) (A) (A) (A) (A) (A) (A) (A) (A)
                 (A) (A) (A) (A) (A) (A) (A) (A) (A) (A) (A) (A)
                 (A) (A) (A) (A) (A) (A) (A) (A) (A) (A) (A) (A)
                 (A) (A) (A) (A) (A) (A) (A) (A) (A) (A) (A) (A)
                 (A) (A) (A) (A) (A) (A) (A) (A) (A) (A) (A) (A)
                 (A) (A) (A) (A) (A) (A) (A) (A) (A) (A) (A) (A)
                 (A) (A) (A) (A) (A) (A) (A) (A) (A) (A) (A) (A)
                 (A) (A) (A) (A) (A) (A) (A) (A) (A) (A) (A) (A)
                 (A) (A) (A) (A) (A) (A) (A) (A) (A) (A) (A) (A)
                 (A) (A) (A) (A) (A) (A) (A) (A) (A) (A) (A) (A)
[...]
    27  C(13)             -0.00202      -2.27489      -0.81174      -0.75882
    28  H(1)               0.00198       8.87235       3.16588       2.95950
    29  H(1)               0.00004       0.19969       0.07125       0.06661
    30  H(1)               0.00187       8.37824       2.98956       2.79468
    31  C(13)             -0.00188      -2.11309      -0.75400      -0.70485
    32  H(1)               0.00161       7.18170       2.56261       2.39556
    33  H(1)               0.00199       8.89200       3.17289       2.96605
    34  H(1)               0.00012       0.52718       0.18811       0.17585
    35  C(13)             -0.00202      -2.27437      -0.81155      -0.75865
    36  H(1)               0.00198       8.86005       3.16149       2.95540
    37  H(1)               0.00004       0.19738       0.07043       0.06584
    38  H(1)               0.00188       8.39429       2.99529       2.80004
    39  C(13)             -0.00188      -2.11422      -0.75441      -0.70523
    40  H(1)               0.00159       7.11673       2.53943       2.37388
    41  H(1)               0.00200       8.93214       3.18721       2.97944
    42  H(1)               0.00012       0.55240       0.19711       0.18426
 --------------------------------------------------------
       Center         ----  Spin Dipole Couplings  ----
                      3XX-RR        3YY-RR        3ZZ-RR
 --------------------------------------------------------
     1   Atom        0.014923      0.013334     -0.028257
     2   Atom       -0.152182     -0.134960      0.287142
     3   Atom       -0.057453     -0.037540      0.094993
     4   Atom        0.014925      0.013333     -0.028258
     5   Atom       -0.112447     -0.110257      0.222704
     6   Atom       -0.057445     -0.037538      0.094983
     7   Atom        0.021765     -0.018186     -0.003579
     8   Atom       -0.005953      0.010098     -0.004146
     9   Atom       -0.001422      0.004440     -0.003018
    10   Atom       -0.005952      0.010098     -0.004146
    11   Atom       -0.044089     -0.048240      0.092329
    12   Atom       -0.058269     -0.017867      0.076137
    13   Atom       -0.058279     -0.017875      0.076153
    14   Atom        0.027510      0.015285     -0.042795
    15   Atom        0.027510      0.015288     -0.042798
    16   Atom       -0.105096     -0.072453      0.177549
    17   Atom       -0.004479      0.007523     -0.003043
    18   Atom       -0.004480      0.007523     -0.003043
    19   Atom        0.001387      0.000648     -0.002035
    20   Atom        0.001387      0.000648     -0.002035
    21   Atom       -0.001422      0.004440     -0.003018
    22   Atom        0.034701      0.016330     -0.051031
    23   Atom       -0.004967     -0.003607      0.008574
    24   Atom       -0.004961     -0.003616      0.008577
    25   Atom       -0.095835     -0.095206      0.191041
    26   Atom       -0.095845     -0.095191      0.191036
    27   Atom       -0.001384      0.000319      0.001064
    28   Atom       -0.000515      0.001430     -0.000915
    29   Atom        0.001299      0.000267     -0.001566
    30   Atom       -0.000359      0.001097     -0.000738
    31   Atom        0.001877     -0.002292      0.000415
    32   Atom        0.001061     -0.000163     -0.000898
    33   Atom        0.001454     -0.000776     -0.000678
    34   Atom        0.001421     -0.000222     -0.001199
    35   Atom       -0.001387      0.000317      0.001069
    36   Atom       -0.000516      0.001434     -0.000918
    37   Atom        0.001299      0.000267     -0.001566
    38   Atom       -0.000359      0.001093     -0.000735
    39   Atom        0.001880     -0.002286      0.000406
    40   Atom        0.001064     -0.000158     -0.000906
    41   Atom        0.001453     -0.000781     -0.000672
    42   Atom        0.001421     -0.000223     -0.001199
 --------------------------------------------------------
                        XY            XZ            YZ
 --------------------------------------------------------
     1   Atom        0.000103     -0.009276      0.006228
     2   Atom       -0.000007      0.000030     -0.104476
     3   Atom        0.007830     -0.020079     -0.049520
     4   Atom       -0.000102      0.009269      0.006227
     5   Atom       -0.000004      0.000031     -0.042773
     6   Atom       -0.007837      0.020101     -0.049517
     7   Atom       -0.000001     -0.000002     -0.003836
     8   Atom       -0.004217     -0.000419      0.002182
     9   Atom        0.000419      0.000166      0.002505
    10   Atom        0.004218      0.000420      0.002181
    11   Atom        0.000002      0.000014      0.024522
    12   Atom        0.010479      0.016228      0.072336
    13   Atom       -0.010466     -0.016207      0.072338
    14   Atom        0.002413      0.006733     -0.024880
    15   Atom       -0.002417     -0.006746     -0.024879
    16   Atom        0.000005      0.000014      0.104411
    17   Atom       -0.003134      0.000713     -0.003352
    18   Atom        0.003134     -0.000713     -0.003352
    19   Atom       -0.001079      0.000777     -0.001717
    20   Atom        0.001079     -0.000778     -0.001717
    21   Atom       -0.000419     -0.000167      0.002505
    22   Atom        0.000001     -0.000001     -0.000756
    23   Atom       -0.003405      0.013229      0.000866
    24   Atom        0.003409     -0.013252      0.000835
    25   Atom        0.000924     -0.013348     -0.023745
    26   Atom       -0.000918      0.013230     -0.023841
    27   Atom        0.001137      0.000923      0.000965
    28   Atom        0.000222     -0.000053     -0.001054
    29   Atom        0.000081      0.000135      0.000307
    30   Atom       -0.000180     -0.000213      0.001232
    31   Atom       -0.000663      0.001058     -0.000720
    32   Atom       -0.001022      0.000814     -0.000618
    33   Atom       -0.000723     -0.001067      0.000446
    34   Atom        0.000445      0.000508      0.000037
    35   Atom       -0.001138     -0.000930      0.000974
    36   Atom       -0.000222      0.000053     -0.001053
    37   Atom       -0.000081     -0.000135      0.000307
    38   Atom        0.000180      0.000214      0.001234
    39   Atom        0.000661     -0.001043     -0.000725
    40   Atom        0.001028     -0.000809     -0.000612
    41   Atom        0.000715      0.001070      0.000443
    42   Atom       -0.000443     -0.000512      0.000037
 --------------------------------------------------------


 ---------------------------------------------------------------------------------
              Anisotropic Spin Dipole Couplings in Principal Axis System
 ---------------------------------------------------------------------------------

       Atom             a.u.   MegaHertz   Gauss  10(-4) cm-1        Axes

              Baa    -0.0310    -4.161    -1.485    -1.388  0.1964 -0.1368  0.9709
     1 C(13)  Bbb     0.0138     1.846     0.659     0.616  0.3672  0.9284  0.0565
              Bcc     0.0173     2.316     0.826     0.772  0.9092 -0.3454 -0.2326
 
              Baa    -0.1594   -21.391    -7.633    -7.135  0.0000  0.9737  0.2278
     2 C(13)  Bbb    -0.1522   -20.421    -7.287    -6.812  1.0000 -0.0000 -0.0001
              Bcc     0.3116    41.812    14.920    13.947  0.0001 -0.2278  0.9737
 
              Baa    -0.0603    -8.097    -2.889    -2.701  0.9779 -0.1993  0.0629
     3 C(13)  Bbb    -0.0538    -7.221    -2.577    -2.409  0.1679  0.9284  0.3316
              Bcc     0.1142    15.318     5.466     5.110 -0.1245 -0.3137  0.9413
 
              Baa    -0.0310    -4.161    -1.485    -1.388 -0.1962 -0.1368  0.9710
     4 C(13)  Bbb     0.0138     1.846     0.659     0.616 -0.3672  0.9284  0.0566
              Bcc     0.0173     2.316     0.826     0.772  0.9092  0.3454  0.2324
 
              Baa    -0.1157   -15.521    -5.538    -5.177  0.0000  0.9921  0.1254
     5 C(13)  Bbb    -0.1124   -15.089    -5.384    -5.033  1.0000 -0.0000 -0.0001
              Bcc     0.2281    30.610    10.923    10.211  0.0001 -0.1254  0.9921
 
              Baa    -0.0603    -8.097    -2.889    -2.701  0.9779  0.1993 -0.0630
     6 C(13)  Bbb    -0.0538    -7.221    -2.577    -2.409 -0.1678  0.9284  0.3316
              Bcc     0.1141    15.317     5.466     5.109  0.1246 -0.3137  0.9413
 
              Baa    -0.0191   -10.208    -3.643    -3.405  0.0000  0.9709  0.2395
     7 H(1)   Bbb    -0.0026    -1.405    -0.501    -0.469  0.0001 -0.2395  0.9709
              Bcc     0.0218    11.613     4.144     3.874  1.0000 -0.0000 -0.0001
 
              Baa    -0.0070    -3.734    -1.332    -1.246  0.9686  0.2446 -0.0448
     8 H(1)   Bbb    -0.0045    -2.378    -0.848    -0.793  0.0775 -0.1258  0.9890
              Bcc     0.0115     6.112     2.181     2.039 -0.2363  0.9614  0.1408
 
              Baa    -0.0038    -2.018    -0.720    -0.673 -0.0158 -0.2907  0.9567
     9 H(1)   Bbb    -0.0015    -0.775    -0.276    -0.258  0.9976 -0.0691 -0.0045
              Bcc     0.0052     2.793     0.996     0.931  0.0674  0.9543  0.2910
 
              Baa    -0.0070    -3.734    -1.332    -1.246  0.9686 -0.2447  0.0446
    10 H(1)   Bbb    -0.0045    -2.377    -0.848    -0.793 -0.0773 -0.1258  0.9890
              Bcc     0.0115     6.111     2.181     2.039  0.2364  0.9614  0.1408
 
              Baa    -0.0524    -7.031    -2.509    -2.345  0.0000  0.9859 -0.1671
    11 C(13)  Bbb    -0.0441    -5.916    -2.111    -1.973  1.0000 -0.0000 -0.0001
              Bcc     0.0965    12.947     4.620     4.319  0.0001  0.1671  0.9859
 
              Baa    -0.0609    -8.177    -2.918    -2.728  0.9283 -0.3628  0.0816
    12 C(13)  Bbb    -0.0566    -7.591    -2.709    -2.532  0.3555  0.8017 -0.4805
              Bcc     0.1175    15.769     5.627     5.260  0.1089  0.4750  0.8732
 
              Baa    -0.0609    -8.178    -2.918    -2.728  0.9283  0.3628 -0.0817
    13 C(13)  Bbb    -0.0566    -7.592    -2.709    -2.532 -0.3556  0.8018 -0.4804
              Bcc     0.1175    15.770     5.627     5.260 -0.1088  0.4750  0.8733
 
              Baa    -0.0526    -7.063    -2.520    -2.356 -0.0889  0.3454  0.9342
    14 C(13)  Bbb     0.0245     3.286     1.172     1.096  0.0196  0.9384 -0.3451
              Bcc     0.0281     3.777     1.348     1.260  0.9958  0.0123  0.0902
 
              Baa    -0.0526    -7.063    -2.520    -2.356  0.0890  0.3454  0.9342
    15 C(13)  Bbb     0.0245     3.286     1.172     1.096 -0.0196  0.9384 -0.3450
              Bcc     0.0282     3.778     1.348     1.260  0.9958 -0.0124 -0.0903
 
              Baa    -0.1103   -14.804    -5.283    -4.938  0.0000  0.9401 -0.3410
    16 C(13)  Bbb    -0.1051   -14.103    -5.032    -4.704  1.0000 -0.0000 -0.0000
              Bcc     0.2154    28.907    10.315     9.642  0.0000  0.3410  0.9401
 
              Baa    -0.0053    -2.805    -1.001    -0.936  0.9632  0.2569  0.0787
    17 H(1)   Bbb    -0.0040    -2.129    -0.760    -0.710 -0.1426  0.2407  0.9601
              Bcc     0.0092     4.934     1.760     1.646 -0.2277  0.9360 -0.2685
 
              Baa    -0.0053    -2.805    -1.001    -0.936  0.9632 -0.2569 -0.0788
    18 H(1)   Bbb    -0.0040    -2.129    -0.760    -0.710  0.1427  0.2407  0.9601
              Bcc     0.0092     4.934     1.761     1.646  0.2277  0.9360 -0.2685
 
              Baa    -0.0029    -1.540    -0.549    -0.514 -0.0580  0.4219  0.9048
    19 H(1)   Bbb     0.0001     0.071     0.025     0.024  0.7169  0.6483 -0.2563
              Bcc     0.0028     1.468     0.524     0.490  0.6947 -0.6338  0.3401
 
              Baa    -0.0029    -1.540    -0.549    -0.514  0.0581  0.4219  0.9048
    20 H(1)   Bbb     0.0001     0.071     0.025     0.024  0.7169 -0.6484  0.2562
              Bcc     0.0028     1.468     0.524     0.490  0.6947  0.6337 -0.3401
 
              Baa    -0.0038    -2.018    -0.720    -0.673  0.0159 -0.2907  0.9567
    21 H(1)   Bbb    -0.0015    -0.775    -0.276    -0.258  0.9976  0.0691  0.0044
              Bcc     0.0052     2.793     0.996     0.931 -0.0673  0.9543  0.2911
 
              Baa    -0.0510    -6.849    -2.444    -2.285  0.0000  0.0112  0.9999
    22 C(13)  Bbb     0.0163     2.192     0.782     0.731 -0.0000  0.9999 -0.0112
              Bcc     0.0347     4.657     1.662     1.553  1.0000  0.0000 -0.0000
 
              Baa    -0.0141    -1.896    -0.677    -0.633  0.8178  0.3047 -0.4881
    23 C(13)  Bbb    -0.0026    -0.347    -0.124    -0.116 -0.2333  0.9510  0.2028
              Bcc     0.0167     2.243     0.801     0.748  0.5260 -0.0520  0.8489
 
              Baa    -0.0141    -1.897    -0.677    -0.633  0.8181 -0.3038  0.4884
    24 C(13)  Bbb    -0.0026    -0.350    -0.125    -0.117  0.2317  0.9513  0.2035
              Bcc     0.0167     2.247     0.802     0.750 -0.5264 -0.0533  0.8486
 
              Baa    -0.0972    -3.749    -1.338    -1.251  0.2275  0.9696  0.0904
    25 N(14)  Bbb    -0.0964    -3.718    -1.327    -1.240  0.9727 -0.2306  0.0261
              Bcc     0.1936     7.467     2.665     2.491 -0.0462 -0.0820  0.9956
 
              Baa    -0.0972    -3.749    -1.338    -1.251 -0.2275  0.9695  0.0906
    26 N(14)  Bbb    -0.0964    -3.718    -1.327    -1.240  0.9727  0.2307 -0.0256
              Bcc     0.1936     7.467     2.665     2.491  0.0458 -0.0823  0.9956
 
              Baa    -0.0020    -0.270    -0.096    -0.090  0.9118 -0.3805 -0.1541
    27 C(13)  Bbb    -0.0003    -0.035    -0.012    -0.012  0.1910  0.7255 -0.6612
              Bcc     0.0023     0.305     0.109     0.102  0.3634  0.5735  0.7342
 
              Baa    -0.0013    -0.705    -0.251    -0.235 -0.0382  0.3604  0.9320
    28 H(1)   Bbb    -0.0005    -0.286    -0.102    -0.095  0.9947 -0.0751  0.0698
              Bcc     0.0019     0.990     0.353     0.330  0.0952  0.9298 -0.3556
 
              Baa    -0.0016    -0.865    -0.309    -0.289 -0.0412 -0.1585  0.9865
    29 H(1)   Bbb     0.0003     0.164     0.058     0.055 -0.1011  0.9829  0.1537
              Bcc     0.0013     0.701     0.250     0.234  0.9940  0.0934  0.0565
 
              Baa    -0.0014    -0.730    -0.261    -0.244  0.1098 -0.4378  0.8923
    30 H(1)   Bbb    -0.0004    -0.202    -0.072    -0.067  0.9865  0.1574 -0.0441
              Bcc     0.0017     0.932     0.333     0.311 -0.1211  0.8852  0.4492
 
              Baa    -0.0025    -0.337    -0.120    -0.112  0.0979  0.9740  0.2043
    31 C(13)  Bbb    -0.0001    -0.013    -0.005    -0.004 -0.5017 -0.1290  0.8553
              Bcc     0.0026     0.350     0.125     0.117  0.8595 -0.1862  0.4761
 
              Baa    -0.0013    -0.685    -0.244    -0.228 -0.1630  0.3584  0.9192
    32 H(1)   Bbb    -0.0007    -0.380    -0.136    -0.127  0.5596  0.8009 -0.2130
              Bcc     0.0020     1.065     0.380     0.355  0.8126 -0.4796  0.3311
 
              Baa    -0.0012    -0.645    -0.230    -0.215  0.1816 -0.5420  0.8206
    33 H(1)   Bbb    -0.0009    -0.496    -0.177    -0.165  0.4323  0.7935  0.4284
              Bcc     0.0021     1.141     0.407     0.381  0.8833 -0.2769 -0.3784
 
              Baa    -0.0013    -0.691    -0.247    -0.231 -0.1909  0.0457  0.9806
    34 H(1)   Bbb    -0.0003    -0.175    -0.062    -0.058 -0.2216  0.9711 -0.0884
              Bcc     0.0016     0.866     0.309     0.289  0.9563  0.2342  0.1752
 
              Baa    -0.0020    -0.271    -0.097    -0.090  0.9121  0.3797  0.1549
    35 C(13)  Bbb    -0.0003    -0.036    -0.013    -0.012 -0.1903  0.7265 -0.6603
              Bcc     0.0023     0.307     0.110     0.102 -0.3632  0.5728  0.7349
 
              Baa    -0.0013    -0.705    -0.252    -0.235  0.0380  0.3594  0.9324
    36 H(1)   Bbb    -0.0005    -0.286    -0.102    -0.095  0.9948  0.0751 -0.0695
              Bcc     0.0019     0.991     0.354     0.331 -0.0950  0.9301 -0.3547
 
              Baa    -0.0016    -0.865    -0.309    -0.289  0.0413 -0.1588  0.9864
    37 H(1)   Bbb     0.0003     0.164     0.058     0.055  0.1007  0.9829  0.1540
              Bcc     0.0013     0.701     0.250     0.234  0.9941 -0.0930 -0.0566
 
              Baa    -0.0014    -0.730    -0.261    -0.244 -0.1106 -0.4389  0.8917
    38 H(1)   Bbb    -0.0004    -0.202    -0.072    -0.067  0.9864 -0.1581  0.0445
              Bcc     0.0017     0.932     0.332     0.311  0.1215  0.8845  0.4504
 
              Baa    -0.0025    -0.336    -0.120    -0.112 -0.0974  0.9734  0.2074
    39 C(13)  Bbb    -0.0001    -0.012    -0.004    -0.004  0.4985 -0.1326  0.8567
              Bcc     0.0026     0.348     0.124     0.116  0.8614  0.1868 -0.4723
 
              Baa    -0.0013    -0.685    -0.244    -0.228  0.1637  0.3517  0.9217
    40 H(1)   Bbb    -0.0007    -0.381    -0.136    -0.127 -0.5585  0.8032 -0.2073
              Bcc     0.0020     1.066     0.380     0.356  0.8132  0.4809 -0.3279
 
              Baa    -0.0012    -0.644    -0.230    -0.215 -0.1827 -0.5454  0.8180
    41 H(1)   Bbb    -0.0009    -0.496    -0.177    -0.165 -0.4316  0.7920  0.4317
              Bcc     0.0021     1.139     0.407     0.380  0.8834  0.2742  0.3801
 
              Baa    -0.0013    -0.692    -0.247    -0.231  0.1919  0.0453  0.9804
    42 H(1)   Bbb    -0.0003    -0.174    -0.062    -0.058  0.2206  0.9714 -0.0881
              Bcc     0.0016     0.866     0.309     0.289  0.9563 -0.2331 -0.1764
 

 ---------------------------------------------------------------------------------

 No NMR shielding tensors so no spin-rotation constants.
 Leave Link  601 at Thu Jan 21 07:18:55 2021, MaxMem=  4026531840 cpu:               4.7 elap:               0.7
 (Enter /opt/ohpc/pub/libs/gaussian/g16-A.03/sandybridge/g16/l9999.exe)

 Test job not archived.
 1\1\GINC-CASCADEB025\SP\ULC-wHPBE\TZVP\C19H21N2(2+,2)\RDU230\21-Jan-20
 21\0\\#P LC-wHPBE/TZVP iop(3/107=0208400000, 3/108=0208400000) scf=(co
 nver=6,fermi,ndamp=35,noincfock,novaracc,vshift=500,xqc)\\H21 C19 N2\\
 2,2\C,0,5.924302,-1.175178,0.28256\C,0,6.625626,0.000025,-0.000251\C,0
 ,4.530324,-1.177472,0.278212\C,0,5.924206,1.175202,-0.282951\C,0,3.810
 936,-0.000036,-0.000021\C,0,4.530233,1.177435,-0.278371\H,0,7.716547,0
 .000056,-0.000331\H,0,3.994064,-2.094974,0.527939\H,0,6.466302,2.09321
 ,-0.514746\H,0,3.99388,2.094904,-0.52801\C,0,2.333716,-0.000062,0.0001
 09\C,0,1.604784,1.119278,0.452707\C,0,1.604752,-1.119433,-0.452341\C,0
 ,0.21685,1.12577,0.449243\C,0,0.216813,-1.125977,-0.44867\C,0,-0.50491
 9,-0.000106,0.000309\H,0,2.141671,1.985727,0.840835\H,0,2.141597,-1.98
 5891,-0.840507\H,0,-0.315693,1.995203,0.838189\H,0,-0.315745,-1.995465
 ,-0.837475\H,0,6.466484,-2.093156,0.514265\C,0,-1.942874,-0.000086,0.0
 00402\C,0,-3.143323,-0.702637,-0.003392\C,0,-3.143127,0.702801,0.00391
 5\N,0,-3.78708,-1.855019,0.001668\N,0,-3.786774,1.855252,-0.001097\C,0
 ,-3.068411,-3.12252,0.167733\H,0,-3.187886,-3.74858,-0.728596\H,0,-2.0
 05788,-2.927607,0.341041\H,0,-3.471162,-3.663551,1.036238\C,0,-5.24512
 1,-1.94416,-0.100275\H,0,-5.509149,-2.713998,-0.838669\H,0,-5.688951,-
 2.217262,0.869111\H,0,-5.659251,-0.989594,-0.439085\C,0,-3.068047,3.12
 2616,-0.16813\H,0,-3.188116,3.749602,0.727455\H,0,-2.005304,2.927538,-
 0.340531\H,0,-3.470192,3.662707,-1.037509\C,0,-5.24495,1.944232,0.0993
 91\H,0,-5.509538,2.71844,0.832954\H,0,-5.688631,2.211256,-0.871774\H,0
 ,-5.658779,0.991638,0.444142\\Version=EM64L-G16RevA.03\State=2-A\HF=-8
 44.9910616\S2=0.78084\S2-1=0.\S2A=0.750616\RMSD=4.298e-08\Dipole=-1.11
 57558,0.0000461,-0.0008357\Quadrupole=87.0723962,-23.542037,-63.530359
 3,-0.0001388,0.0046117,0.1939014\PG=C01 [X(C19H21N2)]\\@


 DESK:  A WASTEBASKET WITH DRAWERS.
 Job cpu time:       0 days  3 hours 48 minutes 20.7 seconds.
 Elapsed time:       0 days  0 hours 28 minutes 38.2 seconds.
 File lengths (MBytes):  RWF=    188 Int=      0 D2E=      0 Chk=     24 Scr=      8
 Normal termination of Gaussian 16 at Thu Jan 21 07:18:55 2021.
