 Entering Gaussian System, Link 0=g16
 Input=mol_bp_cp_half_tune_n6.gjf
 Output=mol_bp_cp_half_tune_n6.log
 Initial command:
 /opt/ohpc/pub/libs/gaussian/g16-A.03/sandybridge/g16/l1.exe "/mnt/gpfs2_4m/scratch/rdu230/ondemand/projects/init_structures/wtuning/mol_bp_cp_half/tuning_mol_bp_cp_half_ocycle0/Gau-268286.inp" -scrdir="/mnt/gpfs2_4m/scratch/rdu230/ondemand/projects/init_structures/wtuning/mol_bp_cp_half/tuning_mol_bp_cp_half_ocycle0/"
 Entering Link 1 = /opt/ohpc/pub/libs/gaussian/g16-A.03/sandybridge/g16/l1.exe PID=    268287.
  
 Copyright (c) 1988,1990,1992,1993,1995,1998,2003,2009,2016,
            Gaussian, Inc.  All Rights Reserved.
  
 This is part of the Gaussian(R) 16 program.  It is based on
 the Gaussian(R) 09 system (copyright 2009, Gaussian, Inc.),
 the Gaussian(R) 03 system (copyright 2003, Gaussian, Inc.),
 the Gaussian(R) 98 system (copyright 1998, Gaussian, Inc.),
 the Gaussian(R) 94 system (copyright 1995, Gaussian, Inc.),
 the Gaussian 92(TM) system (copyright 1992, Gaussian, Inc.),
 the Gaussian 90(TM) system (copyright 1990, Gaussian, Inc.),
 the Gaussian 88(TM) system (copyright 1988, Gaussian, Inc.),
 the Gaussian 86(TM) system (copyright 1986, Carnegie Mellon
 University), and the Gaussian 82(TM) system (copyright 1983,
 Carnegie Mellon University). Gaussian is a federally registered
 trademark of Gaussian, Inc.
  
 This software contains proprietary and confidential information,
 including trade secrets, belonging to Gaussian, Inc.
  
 This software is provided under written license and may be
 used, copied, transmitted, or stored only in accord with that
 written license.
  
 The following legend is applicable only to US Government
 contracts under FAR:
  
                    RESTRICTED RIGHTS LEGEND
  
 Use, reproduction and disclosure by the US Government is
 subject to restrictions as set forth in subparagraphs (a)
 and (c) of the Commercial Computer Software - Restricted
 Rights clause in FAR 52.227-19.
  
 Gaussian, Inc.
 340 Quinnipiac St., Bldg. 40, Wallingford CT 06492
  
  
 ---------------------------------------------------------------
 Warning -- This program may not be used in any manner that
 competes with the business of Gaussian, Inc. or will provide
 assistance to any competitor of Gaussian, Inc.  The licensee
 of this program is prohibited from giving any competitor of
 Gaussian, Inc. access to this program.  By using this program,
 the user acknowledges that Gaussian, Inc. is engaged in the
 business of creating and licensing software in the field of
 computational chemistry and represents and warrants to the
 licensee that it is not a competitor of Gaussian, Inc. and that
 it will not use this program in any manner prohibited above.
 ---------------------------------------------------------------
  

 Cite this work as:
 Gaussian 16, Revision A.03,
 M. J. Frisch, G. W. Trucks, H. B. Schlegel, G. E. Scuseria, 
 M. A. Robb, J. R. Cheeseman, G. Scalmani, V. Barone, 
 G. A. Petersson, H. Nakatsuji, X. Li, M. Caricato, A. V. Marenich, 
 J. Bloino, B. G. Janesko, R. Gomperts, B. Mennucci, H. P. Hratchian, 
 J. V. Ortiz, A. F. Izmaylov, J. L. Sonnenberg, D. Williams-Young, 
 F. Ding, F. Lipparini, F. Egidi, J. Goings, B. Peng, A. Petrone, 
 T. Henderson, D. Ranasinghe, V. G. Zakrzewski, J. Gao, N. Rega, 
 G. Zheng, W. Liang, M. Hada, M. Ehara, K. Toyota, R. Fukuda, 
 J. Hasegawa, M. Ishida, T. Nakajima, Y. Honda, O. Kitao, H. Nakai, 
 T. Vreven, K. Throssell, J. A. Montgomery, Jr., J. E. Peralta, 
 F. Ogliaro, M. J. Bearpark, J. J. Heyd, E. N. Brothers, K. N. Kudin, 
 V. N. Staroverov, T. A. Keith, R. Kobayashi, J. Normand, 
 K. Raghavachari, A. P. Rendell, J. C. Burant, S. S. Iyengar, 
 J. Tomasi, M. Cossi, J. M. Millam, M. Klene, C. Adamo, R. Cammi, 
 J. W. Ochterski, R. L. Martin, K. Morokuma, O. Farkas, 
 J. B. Foresman, and D. J. Fox, Gaussian, Inc., Wallingford CT, 2016.
 
 ******************************************
 Gaussian 16:  EM64L-G16RevA.03 25-Dec-2016
                21-Jan-2021 
 ******************************************
 %mem=30GB
 %nproc=8
 Will use up to    8 processors via shared memory.
 ----------------------------------------------------------------------
 #P LC-wHPBE/TZVP iop(3/107=0197900000, 3/108=0197900000) scf=(conver=6
 ,fermi,ndamp=35,noincfock,novaracc,vshift=500,xqc)
 ----------------------------------------------------------------------
 1/38=1,172=1/1;
 2/12=2,17=6,18=5,40=1/2;
 3/5=19,7=101,11=2,25=1,30=1,74=-71,107=197900000,108=197900000/1,2,3;
 4//1;
 5/5=100002,6=6,8=3,10=500,13=1,18=-1,22=13,38=1,93=35/2,8;
 6/7=2,8=2,9=2,10=2,28=1/1;
 99/5=1,9=1/99;
 Leave Link    1 at Thu Jan 21 03:41:12 2021, MaxMem=  4026531840 cpu:               1.2 elap:               0.2
 (Enter /opt/ohpc/pub/libs/gaussian/g16-A.03/sandybridge/g16/l101.exe)
 ----------
 H21 C19 N2
 ----------
 Symbolic Z-matrix:
 Charge =  1 Multiplicity = 1
 C                     5.9243   -1.17518   0.28256 
 C                     6.62563   0.00003  -0.00025 
 C                     4.53032  -1.17747   0.27821 
 C                     5.92421   1.1752   -0.28295 
 C                     3.81094  -0.00004  -0.00002 
 C                     4.53023   1.17744  -0.27837 
 H                     7.71655   0.00006  -0.00033 
 H                     3.99406  -2.09497   0.52794 
 H                     6.4663    2.09321  -0.51475 
 H                     3.99388   2.0949   -0.52801 
 C                     2.33372  -0.00006   0.00011 
 C                     1.60478   1.11928   0.45271 
 C                     1.60475  -1.11943  -0.45234 
 C                     0.21685   1.12577   0.44924 
 C                     0.21681  -1.12598  -0.44867 
 C                    -0.50492  -0.00011   0.00031 
 H                     2.14167   1.98573   0.84084 
 H                     2.1416   -1.98589  -0.84051 
 H                    -0.31569   1.9952    0.83819 
 H                    -0.31575  -1.99547  -0.83748 
 H                     6.46648  -2.09316   0.51427 
 C                    -1.94287  -0.00009   0.0004 
 C                    -3.14332  -0.70264  -0.00339 
 C                    -3.14313   0.7028    0.00392 
 N                    -3.78708  -1.85502   0.00167 
 N                    -3.78677   1.85525  -0.0011 
 C                    -3.06841  -3.12252   0.16773 
 H                    -3.18789  -3.74858  -0.7286 
 H                    -2.00579  -2.92761   0.34104 
 H                    -3.47116  -3.66355   1.03624 
 C                    -5.24512  -1.94416  -0.10028 
 H                    -5.50915  -2.714    -0.83867 
 H                    -5.68895  -2.21726   0.86911 
 H                    -5.65925  -0.98959  -0.43909 
 C                    -3.06805   3.12262  -0.16813 
 H                    -3.18812   3.7496    0.72746 
 H                    -2.0053    2.92754  -0.34053 
 H                    -3.47019   3.66271  -1.03751 
 C                    -5.24495   1.94423   0.09939 
 H                    -5.50954   2.71844   0.83295 
 H                    -5.68863   2.21126  -0.87177 
 H                    -5.65878   0.99164   0.44414 
 
 ITRead=  0  0  0  0  0  0  0  0  0  0  0  0  0  0  0  0  0  0  0  0
 ITRead=  0  0  0  0  0  0  0  0  0  0  0  0  0  0  0  0  0  0  0  0
 ITRead=  0  0
 MicOpt= -1 -1 -1 -1 -1 -1 -1 -1 -1 -1 -1 -1 -1 -1 -1 -1 -1 -1 -1 -1
 MicOpt= -1 -1 -1 -1 -1 -1 -1 -1 -1 -1 -1 -1 -1 -1 -1 -1 -1 -1 -1 -1
 MicOpt= -1 -1
 NAtoms=     42 NQM=       42 NQMF=       0 NMMI=      0 NMMIF=      0
                NMic=       0 NMicF=      0.
                    Isotopes and Nuclear Properties:
 (Nuclear quadrupole moments (NQMom) in fm**2, nuclear magnetic moments (NMagM)
  in nuclear magnetons)

  Atom         1           2           3           4           5           6           7           8           9          10
 IAtWgt=          12          12          12          12          12          12           1           1           1           1
 AtmWgt=  12.0000000  12.0000000  12.0000000  12.0000000  12.0000000  12.0000000   1.0078250   1.0078250   1.0078250   1.0078250
 NucSpn=           0           0           0           0           0           0           1           1           1           1
 AtZEff=  -0.0000000  -0.0000000  -0.0000000  -0.0000000  -0.0000000  -0.0000000  -0.0000000  -0.0000000  -0.0000000  -0.0000000
 NQMom=    0.0000000   0.0000000   0.0000000   0.0000000   0.0000000   0.0000000   0.0000000   0.0000000   0.0000000   0.0000000
 NMagM=    0.0000000   0.0000000   0.0000000   0.0000000   0.0000000   0.0000000   2.7928460   2.7928460   2.7928460   2.7928460
 AtZNuc=   6.0000000   6.0000000   6.0000000   6.0000000   6.0000000   6.0000000   1.0000000   1.0000000   1.0000000   1.0000000

  Atom        11          12          13          14          15          16          17          18          19          20
 IAtWgt=          12          12          12          12          12          12           1           1           1           1
 AtmWgt=  12.0000000  12.0000000  12.0000000  12.0000000  12.0000000  12.0000000   1.0078250   1.0078250   1.0078250   1.0078250
 NucSpn=           0           0           0           0           0           0           1           1           1           1
 AtZEff=  -0.0000000  -0.0000000  -0.0000000  -0.0000000  -0.0000000  -0.0000000  -0.0000000  -0.0000000  -0.0000000  -0.0000000
 NQMom=    0.0000000   0.0000000   0.0000000   0.0000000   0.0000000   0.0000000   0.0000000   0.0000000   0.0000000   0.0000000
 NMagM=    0.0000000   0.0000000   0.0000000   0.0000000   0.0000000   0.0000000   2.7928460   2.7928460   2.7928460   2.7928460
 AtZNuc=   6.0000000   6.0000000   6.0000000   6.0000000   6.0000000   6.0000000   1.0000000   1.0000000   1.0000000   1.0000000

  Atom        21          22          23          24          25          26          27          28          29          30
 IAtWgt=           1          12          12          12          14          14          12           1           1           1
 AtmWgt=   1.0078250  12.0000000  12.0000000  12.0000000  14.0030740  14.0030740  12.0000000   1.0078250   1.0078250   1.0078250
 NucSpn=           1           0           0           0           2           2           0           1           1           1
 AtZEff=  -0.0000000  -0.0000000  -0.0000000  -0.0000000  -0.0000000  -0.0000000  -0.0000000  -0.0000000  -0.0000000  -0.0000000
 NQMom=    0.0000000   0.0000000   0.0000000   0.0000000   2.0440000   2.0440000   0.0000000   0.0000000   0.0000000   0.0000000
 NMagM=    2.7928460   0.0000000   0.0000000   0.0000000   0.4037610   0.4037610   0.0000000   2.7928460   2.7928460   2.7928460
 AtZNuc=   1.0000000   6.0000000   6.0000000   6.0000000   7.0000000   7.0000000   6.0000000   1.0000000   1.0000000   1.0000000

  Atom        31          32          33          34          35          36          37          38          39          40
 IAtWgt=          12           1           1           1          12           1           1           1          12           1
 AtmWgt=  12.0000000   1.0078250   1.0078250   1.0078250  12.0000000   1.0078250   1.0078250   1.0078250  12.0000000   1.0078250
 NucSpn=           0           1           1           1           0           1           1           1           0           1
 AtZEff=  -0.0000000  -0.0000000  -0.0000000  -0.0000000  -0.0000000  -0.0000000  -0.0000000  -0.0000000  -0.0000000  -0.0000000
 NQMom=    0.0000000   0.0000000   0.0000000   0.0000000   0.0000000   0.0000000   0.0000000   0.0000000   0.0000000   0.0000000
 NMagM=    0.0000000   2.7928460   2.7928460   2.7928460   0.0000000   2.7928460   2.7928460   2.7928460   0.0000000   2.7928460
 AtZNuc=   6.0000000   1.0000000   1.0000000   1.0000000   6.0000000   1.0000000   1.0000000   1.0000000   6.0000000   1.0000000

  Atom        41          42
 IAtWgt=           1           1
 AtmWgt=   1.0078250   1.0078250
 NucSpn=           1           1
 AtZEff=  -0.0000000  -0.0000000
 NQMom=    0.0000000   0.0000000
 NMagM=    2.7928460   2.7928460
 AtZNuc=   1.0000000   1.0000000
 Leave Link  101 at Thu Jan 21 03:41:12 2021, MaxMem=  4026531840 cpu:               0.8 elap:               0.1
 (Enter /opt/ohpc/pub/libs/gaussian/g16-A.03/sandybridge/g16/l202.exe)
                          Input orientation:                          
 ---------------------------------------------------------------------
 Center     Atomic      Atomic             Coordinates (Angstroms)
 Number     Number       Type             X           Y           Z
 ---------------------------------------------------------------------
      1          6           0        5.924302   -1.175178    0.282560
      2          6           0        6.625626    0.000025   -0.000251
      3          6           0        4.530324   -1.177472    0.278212
      4          6           0        5.924206    1.175202   -0.282951
      5          6           0        3.810936   -0.000036   -0.000021
      6          6           0        4.530233    1.177435   -0.278371
      7          1           0        7.716547    0.000056   -0.000331
      8          1           0        3.994064   -2.094974    0.527939
      9          1           0        6.466302    2.093210   -0.514746
     10          1           0        3.993880    2.094904   -0.528010
     11          6           0        2.333716   -0.000062    0.000109
     12          6           0        1.604784    1.119278    0.452707
     13          6           0        1.604752   -1.119433   -0.452341
     14          6           0        0.216850    1.125770    0.449243
     15          6           0        0.216813   -1.125977   -0.448670
     16          6           0       -0.504919   -0.000106    0.000309
     17          1           0        2.141671    1.985727    0.840835
     18          1           0        2.141597   -1.985891   -0.840507
     19          1           0       -0.315693    1.995203    0.838189
     20          1           0       -0.315745   -1.995465   -0.837475
     21          1           0        6.466484   -2.093156    0.514265
     22          6           0       -1.942874   -0.000086    0.000402
     23          6           0       -3.143323   -0.702637   -0.003392
     24          6           0       -3.143127    0.702801    0.003915
     25          7           0       -3.787080   -1.855019    0.001668
     26          7           0       -3.786774    1.855252   -0.001097
     27          6           0       -3.068411   -3.122520    0.167733
     28          1           0       -3.187886   -3.748580   -0.728596
     29          1           0       -2.005788   -2.927607    0.341041
     30          1           0       -3.471162   -3.663551    1.036238
     31          6           0       -5.245121   -1.944160   -0.100275
     32          1           0       -5.509149   -2.713998   -0.838669
     33          1           0       -5.688951   -2.217262    0.869111
     34          1           0       -5.659251   -0.989594   -0.439085
     35          6           0       -3.068047    3.122616   -0.168130
     36          1           0       -3.188116    3.749602    0.727455
     37          1           0       -2.005304    2.927538   -0.340531
     38          1           0       -3.470192    3.662707   -1.037509
     39          6           0       -5.244950    1.944232    0.099391
     40          1           0       -5.509538    2.718440    0.832954
     41          1           0       -5.688631    2.211256   -0.871774
     42          1           0       -5.658779    0.991638    0.444142
 ---------------------------------------------------------------------
                    Distance matrix (angstroms):
                    1          2          3          4          5
     1  C    0.000000
     2  C    1.397476   0.000000
     3  C    1.393987   2.419573   0.000000
     4  C    2.417455   1.397480   2.791574   0.000000
     5  C    2.434569   2.814690   1.407582   2.434573   0.000000
     6  C    2.791569   2.419570   2.419788   1.393982   1.407588
     7  H    2.161792   1.090921   3.408251   2.161788   3.905611
     8  H    2.152221   3.404868   1.091672   3.882917   2.168189
     9  H    3.407612   2.161368   3.882545   1.091025   3.420174
    10  H    3.882910   3.404869   3.412655   2.152223   2.168182
    11  C    3.788533   4.291910   2.507733   3.788534   1.477220
    12  C    4.894049   5.163986   3.723479   4.381977   2.514942
    13  C    4.381974   5.163986   3.015965   4.894050   2.514934
    14  C    6.156066   6.522404   4.892876   5.754343   3.792985
    15  C    5.754350   6.522411   4.374630   6.156072   3.792987
    16  C    6.541815   7.130545   5.178522   6.541807   4.315855
    17  H    4.960977   4.975569   4.003503   4.028327   2.727039
    18  H    4.028324   4.975581   2.758820   4.960999   2.727037
    19  H    7.021223   7.270875   5.819220   6.392628   4.659683
    20  H    6.392616   7.270870   5.039668   7.021226   4.659674
    21  H    1.091023   2.161356   2.154742   3.407607   3.420172
    22  C    7.959454   8.568500   6.585265   7.959431   5.753810
    23  C    9.084431   9.794187   7.693480   9.264152   6.989662
    24  C    9.264055   9.794001   7.905221   9.084161   6.989491
    25  N    9.739200  10.576655   8.349536  10.177049   7.821177
    26  N   10.176884  10.576386   8.857175   9.738842   7.820952
    27  C    9.201859  10.185915   7.844501   9.977008   7.556683
    28  H    9.522437  10.530315   8.197257  10.366892   7.972823
    29  H    8.121623   9.120790   6.766659   8.950263   6.520834
    30  H    9.748578  10.790794   8.413024  10.650199   8.217307
    31  C   11.202406  12.029318   9.812767  11.598175   9.262928
    32  H   11.590898  12.462810  10.217600  12.089512   9.743352
    33  H   11.674657  12.542765  10.289019  12.153250   9.793842
    34  H   11.607494  12.332482  10.216519  11.785041   9.531865
    35  C    9.976798  10.185581   8.742152   9.201425   7.556429
    36  H   10.367620  10.530832   9.167998   9.522755   7.973439
    37  H    8.949814   9.120256   7.742634   8.121030   6.520375
    38  H   10.649142  10.789656   9.442813   9.747397   8.216258
    39  C   11.598123  12.029150  10.263186  11.202127   9.262782
    40  H   12.091149  12.463796  10.783538  11.591261   9.744496
    41  H   12.151569  12.541532  10.827418  11.673821   9.792423
    42  H   11.785116  12.332372  10.418752  11.607235   9.531852
                    6          7          8          9         10
     6  C    0.000000
     7  H    3.408244   0.000000
     8  H    3.412664   4.304079   0.000000
     9  H    2.154734   2.491792   4.973936   0.000000
    10  H    1.091670   4.304077   4.320892   2.472458   0.000000
    11  C    2.507735   5.382831   2.724705   4.661022   2.724690
    12  C    3.015976   6.229892   4.005713   5.051620   2.760694
    13  C    3.723481   6.229896   2.760696   5.827490   4.005699
    14  C    4.374627   7.597026   4.964547   6.396942   4.019975
    15  C    4.892883   7.597037   4.019993   7.030195   4.964535
    16  C    5.178515   8.221466   4.990763   7.296929   4.990729
    17  H    2.758838   5.977432   4.492370   4.533386   2.305718
    18  H    4.003525   5.977453   2.305684   5.953844   4.492382
    19  H    5.039687   8.318690   5.949774   6.916321   4.522042
    20  H    5.819226   8.318692   4.522025   7.925754   5.949769
    21  H    3.882539   2.491787   2.472458   4.310977   4.973927
    22  C    6.585240   9.659421   6.317759   8.681101   6.317693
    23  C    7.905299  10.882581   7.291310  10.021134   7.683822
    24  C    7.693206  10.882389   7.683856   9.723342   7.290937
    25  N    8.857307  11.652242   7.802611  10.999411   8.742184
    26  N    8.349187  11.651959   8.742174  10.268692   7.802157
    27  C    8.742312  11.229160   7.145919  10.889461   8.808038
    28  H    9.167207  11.553757   7.476209  11.286079   9.260902
    29  H    7.743036  10.159308   6.060234   9.885205   7.872540
    30  H    9.443816  11.817839   7.645155  11.588746   9.556858
    31  C   10.263217  13.107052   9.261746  12.394740  10.092380
    32  H   10.781761  13.527303   9.620908  12.908354  10.655027
    33  H   10.829238  13.615425   9.689795  12.970945  10.691302
    34  H   10.418610  13.419534   9.764399  12.511532  10.134346
    35  C    7.844090  11.228802   8.808017   9.596022   7.145384
    36  H    8.197600  11.554239   9.261889   9.873930   7.476315
    37  H    6.766090  10.158754   7.872248   8.514374   6.059590
    38  H    8.411877  11.816678   9.555974  10.073257   7.643950
    39  C    9.812486  13.106875  10.092483  11.728290   9.261334
    40  H   10.217962  13.528241  10.657412  12.067641   9.620602
    41  H   10.288153  13.614243  10.689125  12.160748   9.689310
    42  H   10.216287  13.419394  10.134672  12.212719   9.764021
                   11         12         13         14         15
    11  C    0.000000
    12  C    1.410358   0.000000
    13  C    1.410351   2.414734   0.000000
    14  C    2.439332   1.387954   2.789276   0.000000
    15  C    2.439337   2.789286   1.387959   2.424172   0.000000
    16  C    2.838635   2.430747   2.430740   1.410705   1.410697
    17  H    2.164962   1.090699   3.406260   2.144250   3.879511
    18  H    2.164962   3.406266   1.090699   3.879503   2.144244
    19  H    3.420940   2.145710   3.880017   1.091235   3.417797
    20  H    3.420939   3.880029   2.145709   3.417808   1.091236
    21  H    4.661027   5.827491   5.051624   7.030195   6.396958
    22  C    4.276590   3.747457   3.747474   2.476574   2.476599
    23  C    5.521918   5.106067   4.787430   3.852105   3.415846
    24  C    5.521761   4.787225   5.105983   3.415650   3.852072
    25  N    6.395703   6.174308   5.460683   5.011675   4.094565
    26  N    6.395513   5.460448   6.174214   4.094381   5.011662
    27  C    6.241860   6.317659   5.122041   5.377746   3.893435
    28  H    6.713456   6.932619   5.473400   6.061256   4.306783
    29  H    5.245765   5.424572   4.115209   4.624034   2.968075
    30  H    6.941997   6.998656   5.869694   6.073186   4.716502
    31  C    7.824856   7.524071   6.908320   6.289640   5.533853
    32  H    8.341434   8.183502   7.300649   7.013530   5.954876
    33  H    8.368651   8.031467   7.493301   6.799312   6.148618
    34  H    8.065952   7.616353   7.265175   6.308126   5.877654
    35  C    6.241672   5.121928   6.317500   3.893468   5.377690
    36  H    6.714137   5.474119   6.933326   4.307632   6.062020
    37  H    5.245376   4.114823   5.424295   2.967841   4.623903
    38  H    6.941028   5.869000   6.997595   4.716011   6.072251
    39  C    7.824725   6.908273   7.523887   5.533854   6.289468
    40  H    8.342692   7.301745   8.185009   5.956119   7.015212
    41  H    8.367088   7.492701   8.028876   6.148014   6.796353
    42  H    8.066016   7.264689   7.617033   5.877162   6.309040
                   16         17         18         19         20
    16  C    0.000000
    17  H    3.413862   0.000000
    18  H    3.413848   4.312848   0.000000
    19  H    2.172351   2.457384   4.970453   0.000000
    20  H    2.172355   4.970464   2.457363   4.328196   0.000000
    21  H    7.296949   5.953817   4.533383   7.925751   6.916312
    22  C    1.437955   4.618797   4.618815   2.707542   2.707605
    23  C    2.730337   5.989256   5.502534   3.997761   3.219052
    24  C    2.730244   5.502311   5.989192   3.218804   3.997833
    25  N    3.770051   7.113763   5.989624   5.251143   3.574081
    26  N    3.770004   5.989352   7.113689   3.573848   5.251247
    27  C    4.043389   7.327497   5.427030   5.849620   3.139724
    28  H    4.666977   7.984333   5.614533   6.610246   3.366669
    29  H    3.307411   6.449191   4.414033   5.228540   2.261423
    30  H    4.826238   7.965954   6.151405   6.482107   4.031125
    31  C    5.124351   8.419881   7.423832   6.379542   4.984460
    32  H    5.754252   9.134725   7.685314   7.208357   5.242875
    33  H    5.704804   8.887326   8.018342   6.827717   5.642072
    34  H    5.266810   8.446604   7.874451   6.252524   5.451931
    35  C    4.043438   5.426941   7.327300   3.139935   5.849610
    36  H    4.667826   5.615224   7.985000   3.367639   6.611000
    37  H    3.307329   4.413619   6.448918   2.261286   5.228530
    38  H    4.825568   6.150890   7.964775   4.031089   6.481162
    39  C    5.124272   7.423856   8.419641   4.984576   6.379341
    40  H    5.755867   7.686217   9.136250   5.243961   7.210182
    41  H    5.702764   8.018574   8.884227   5.642616   6.823898
    42  H    5.267145   7.873538   8.447595   5.450778   6.254066
                   21         22         23         24         25
    21  H    0.000000
    22  C    8.681146   0.000000
    23  C    9.723677   1.390924   0.000000
    24  C   10.021101   1.390924   1.405457   0.000000
    25  N   10.269130   2.615698   1.320012   2.637636   0.000000
    26  N   10.999310   2.615769   2.637580   1.320019   3.710272
    27  C    9.596557   3.323316   2.427082   3.829556   1.466500
    28  H    9.873803   4.016553   3.131402   4.511471   2.116103
    29  H    8.515028   2.947944   2.522521   3.819300   2.106803
    30  H   10.074493   4.102389   3.155205   4.498703   2.107351
    31  C   11.728664   3.833327   2.443015   3.381662   1.464316
    32  H   12.067794   4.559350   3.215648   4.240581   2.099889
    33  H   12.161247   4.438876   3.087972   3.969452   2.121507
    34  H   12.213115   3.870883   2.569449   3.064528   2.109087
    35  C   10.889317   3.323505   3.829539   2.427085   5.032166
    36  H   11.286920   4.017386   4.512048   3.131857   5.683071
    37  H    9.884798   2.948070   3.819283   2.522447   5.115142
    38  H   11.587730   4.101952   4.498052   3.154771   5.623665
    39  C   12.394769   3.833259   3.381319   2.442934   4.070533
    40  H   12.910388   4.561208   4.242902   3.217143   4.957260
    41  H   12.969036   4.436375   3.965281   3.085751   4.573116
    42  H   12.511709   3.871482   3.065677   2.570162   3.435476
                   26         27         28         29         30
    26  N    0.000000
    27  C    5.032173   0.000000
    28  H    5.682504   1.099832   0.000000
    29  H    5.115145   1.094164   1.793175   0.000000
    30  H    5.624310   1.099647   1.789445   1.781076   0.000000
    31  C    4.070890   2.489664   2.807656   3.413972   2.719356
    32  H    4.954407   2.671505   2.543765   3.702821   2.927511
    33  H    4.578309   2.859834   3.339600   3.788026   2.652974
    34  H    3.433825   3.410286   3.715302   4.208596   3.756908
    35  C    1.466520   6.254161   6.895058   6.163834   6.903989
    36  H    2.116067   6.895918   7.638247   6.792079   7.424978
    37  H    2.106810   6.163743   6.791145   5.894681   6.891058
    38  H    2.107432   6.903140   7.423092   6.890364   7.614098
    39  C    1.464340   5.514886   6.109434   5.855372   5.955773
    40  H    2.099679   6.365409   7.046336   6.663039   6.702694
    41  H    2.121763   6.032851   6.464818   6.437559   6.562853
    42  H    2.109140   4.869569   5.472686   5.358680   5.177551
                   31         32         33         34         35
    31  C    0.000000
    32  H    1.098903   0.000000
    33  H    1.100581   1.787621   0.000000
    34  H    1.094300   1.776448   1.794276   0.000000
    35  C    5.515113   6.361970   6.038154   4.868062   0.000000
    36  H    6.110264   7.044009   6.471299   5.470585   1.099818
    37  H    5.855560   6.659730   6.442162   5.357701   1.094166
    38  H    5.955312   6.697705   6.567505   5.176292   1.099654
    39  C    3.893515   4.759082   4.255307   3.011468   2.489792
    40  H    4.762423   5.683811   4.939094   3.923011   2.669533
    41  H    4.249635   4.928634   4.758409   3.230097   2.862368
    42  H    3.014368   3.924249   3.237059   2.169187   3.409961
                   36         37         38         39         40
    36  H    0.000000
    37  H    1.793161   0.000000
    38  H    1.789474   1.781053   0.000000
    39  C    2.807916   3.414049   2.719460   0.000000
    40  H    2.542327   3.701411   2.923902   1.098872   0.000000
    41  H    3.343145   3.789746   2.656247   1.100598   1.787570
    42  H    3.713598   4.208480   3.757634   1.094323   1.776314
                   41         42
    41  H    0.000000
    42  H    1.794434   0.000000
 Stoichiometry    C19H21N2(1+)
 Framework group  C1[X(C19H21N2)]
 Deg. of freedom   120
 Full point group                 C1      NOp   1
 Largest Abelian subgroup         C1      NOp   1
 Largest concise Abelian subgroup C1      NOp   1
                         Standard orientation:                         
 ---------------------------------------------------------------------
 Center     Atomic      Atomic             Coordinates (Angstroms)
 Number     Number       Type             X           Y           Z
 ---------------------------------------------------------------------
      1          6           0       -5.924302   -1.175178   -0.282560
      2          6           0       -6.625626    0.000025    0.000251
      3          6           0       -4.530324   -1.177472   -0.278212
      4          6           0       -5.924206    1.175202    0.282951
      5          6           0       -3.810936   -0.000036    0.000021
      6          6           0       -4.530233    1.177435    0.278371
      7          1           0       -7.716547    0.000056    0.000331
      8          1           0       -3.994064   -2.094974   -0.527939
      9          1           0       -6.466302    2.093210    0.514746
     10          1           0       -3.993880    2.094904    0.528010
     11          6           0       -2.333716   -0.000062   -0.000109
     12          6           0       -1.604784    1.119278   -0.452707
     13          6           0       -1.604752   -1.119433    0.452341
     14          6           0       -0.216850    1.125770   -0.449243
     15          6           0       -0.216813   -1.125977    0.448670
     16          6           0        0.504919   -0.000106   -0.000309
     17          1           0       -2.141671    1.985727   -0.840835
     18          1           0       -2.141597   -1.985891    0.840507
     19          1           0        0.315693    1.995203   -0.838189
     20          1           0        0.315745   -1.995465    0.837475
     21          1           0       -6.466484   -2.093156   -0.514265
     22          6           0        1.942874   -0.000086   -0.000402
     23          6           0        3.143323   -0.702637    0.003392
     24          6           0        3.143127    0.702801   -0.003915
     25          7           0        3.787080   -1.855019   -0.001668
     26          7           0        3.786774    1.855252    0.001097
     27          6           0        3.068411   -3.122520   -0.167733
     28          1           0        3.187886   -3.748580    0.728596
     29          1           0        2.005788   -2.927607   -0.341041
     30          1           0        3.471162   -3.663551   -1.036238
     31          6           0        5.245121   -1.944160    0.100275
     32          1           0        5.509149   -2.713998    0.838669
     33          1           0        5.688951   -2.217262   -0.869111
     34          1           0        5.659251   -0.989594    0.439085
     35          6           0        3.068047    3.122616    0.168130
     36          1           0        3.188116    3.749602   -0.727455
     37          1           0        2.005304    2.927538    0.340531
     38          1           0        3.470192    3.662707    1.037509
     39          6           0        5.244950    1.944232   -0.099391
     40          1           0        5.509538    2.718440   -0.832954
     41          1           0        5.688631    2.211256    0.871774
     42          1           0        5.658779    0.991638   -0.444142
 ---------------------------------------------------------------------
 Rotational constants (GHZ):           0.7037808           0.1205812           0.1040104
 Leave Link  202 at Thu Jan 21 03:41:12 2021, MaxMem=  4026531840 cpu:               0.4 elap:               0.1
 (Enter /opt/ohpc/pub/libs/gaussian/g16-A.03/sandybridge/g16/l301.exe)
 Standard basis: TZVP (5D, 7F)
 Ernie: Thresh=  0.10000D-02 Tol=  0.10000D-05 Strict=F.
 There are   546 symmetry adapted cartesian basis functions of A   symmetry.
 There are   525 symmetry adapted basis functions of A   symmetry.
   525 basis functions,   903 primitive gaussians,   546 cartesian basis functions
    74 alpha electrons       74 beta electrons
       nuclear repulsion energy      1487.4602048397 Hartrees.
 IExCor=33909 DFT=T Ex+Corr=LC-wHPBE ExCW=0 ScaHFX=  1.000000
 ScaDFX=  1.000000  1.000000  1.000000  1.000000 ScalE2=  1.000000  1.000000
 IRadAn=      5 IRanWt=     -1 IRanGd=            0 ICorTp=0 IEmpDi=  4
 HFx  wShort=  0.000000 wLong=  0.197900 cFull=  0.000000 cShort=  0.000000 cLong=  1.000000
 DFx  wShort=  0.000000 wLong=  0.197900 cFull=  0.000000 cShort=  1.000000 cLong=  0.000000
 NAtoms=   42 NActive=   42 NUniq=   42 SFac= 1.00D+00 NAtFMM=   60 NAOKFM=F Big=F
 Integral buffers will be    131072 words long.
 Raffenetti 2 integral format.
 Two-electron integral symmetry is turned on.
 Leave Link  301 at Thu Jan 21 03:41:12 2021, MaxMem=  4026531840 cpu:               0.4 elap:               0.1
 (Enter /opt/ohpc/pub/libs/gaussian/g16-A.03/sandybridge/g16/l302.exe)
 NPDir=0 NMtPBC=     1 NCelOv=     1 NCel=       1 NClECP=     1 NCelD=      1
         NCelK=      1 NCelE2=     1 NClLst=     1 CellRange=     0.0.
 One-electron integrals computed using PRISM.
 One-electron integral symmetry used in STVInt
 NBasis=   525 RedAO= T EigKep=  8.06D-06  NBF=   525
 NBsUse=   525 1.00D-06 EigRej= -1.00D+00 NBFU=   525
 Precomputing XC quadrature grid using
 IXCGrd= 4 IRadAn=           5 IRanWt=          -1 IRanGd=           0 AccXCQ= 0.00D+00.
 Generated NRdTot=       0 NPtTot=           0 NUsed=           0 NTot=          32
 NSgBfM=   523   523   523   523   523 MxSgAt=    42 MxSgA2=    42.
 Leave Link  302 at Thu Jan 21 03:41:13 2021, MaxMem=  4026531840 cpu:               6.9 elap:               0.9
 (Enter /opt/ohpc/pub/libs/gaussian/g16-A.03/sandybridge/g16/l303.exe)
 DipDrv:  MaxL=1.
 Leave Link  303 at Thu Jan 21 03:41:14 2021, MaxMem=  4026531840 cpu:               0.7 elap:               0.1
 (Enter /opt/ohpc/pub/libs/gaussian/g16-A.03/sandybridge/g16/l401.exe)
 ExpMin= 9.52D-02 ExpMax= 1.97D+04 ExpMxC= 6.73D+02 IAcc=3 IRadAn=         5 AccDes= 0.00D+00
 Harris functional with IExCor=33909 and IRadAn=       5 diagonalized for initial guess.
 HarFok:  IExCor=33909 AccDes= 0.00D+00 IRadAn=         5 IDoV= 1 UseB2=F ITyADJ=14
 ICtDFT=  3500011 ScaDFX=  1.000000  1.000000  1.000000  1.000000
 FoFCou: FMM=F IPFlag=           0 FMFlag=      100000 FMFlg1=           0
         NFxFlg=           0 DoJE=T BraDBF=F KetDBF=T FulRan=T
         wScrn=  0.000000 ICntrl=       500 IOpCl=  0 I1Cent=   200000004 NGrid=           0
         NMat0=    1 NMatS0=      1 NMatT0=    0 NMatD0=    1 NMtDS0=    0 NMtDT0=    0
 Petite list used in FoFCou.
 Harris En= -829.802619330394    
 JPrj=0 DoOrth=F DoCkMO=F.
 Leave Link  401 at Thu Jan 21 03:41:18 2021, MaxMem=  4026531840 cpu:              39.1 elap:               5.0
 (Enter /opt/ohpc/pub/libs/gaussian/g16-A.03/sandybridge/g16/l502.exe)
 Integral symmetry usage will be decided dynamically.
 Closed shell SCF:
 Using DIIS extrapolation, IDIIS=    10.
 NGot=  4026531840 LenX=  4025925692 LenY=  4025627030
 Requested convergence on RMS density matrix=1.00D-06 within  32 cycles.
 Requested convergence on MAX density matrix=1.00D-04.
 Requested convergence on             energy=1.00D-04.
 Virtual orbitals will be shifted by   0.500 hartree.
 No special actions if energy rises.
 Dynamic level shift is on during FON iterations.

 Cycle   1  Pass 1  IDiag  1:
 FoFJK:  IHMeth= 1 ICntrl=       0 DoSepK=T KAlg= 0 I1Cent=           0 FoldK=F
 IRaf=         1 NMat=       1 IRICut=       1 DoRegI=T DoRafI=F ISym2E= 0 IDoP0=0 IntGTp=1.
 FoFCou: FMM=F IPFlag=           0 FMFlag=      100000 FMFlg1=           0
         NFxFlg=           0 DoJE=T BraDBF=F KetDBF=F FulRan=T
         wScrn=  0.000000 ICntrl=       500 IOpCl=  0 I1Cent=           0 NGrid=           0
         NMat0=    1 NMatS0=      1 NMatT0=    0 NMatD0=    1 NMtDS0=    0 NMtDT0=    0
 Symmetry not used in FoFCou.
 E= -845.053599181738    
 DIIS: error= 3.05D-02 at cycle   1 NSaved=   1.
 NSaved= 1 IEnMin= 1 EnMin= -845.053599181738     IErMin= 1 ErrMin= 3.05D-02
 ErrMax= 3.05D-02  0.00D+00 EMaxC= 1.00D+00 BMatC= 3.03D-01 BMatP= 3.03D-01
 IDIUse=1 WtCom= 1.00D+00 WtEn= 0.00D+00
 Coeff-Com:  0.100D+01
 Coeff:      0.100D+01
 Gap=     0.360 Goal=   None    Shift=    0.500
 T= 1505. Gap= 0.665 NK=0 IS=   75 IE=  525 IFin=   74
          NO(<0.9)=   0  NV(>0.1)=   0     74.00e < EF      0.00e >EF  Err=0.0D+00
 GapD=    0.360 DampG=1.000 DampE=0.500 DampFc=0.5000 IDamp=-1.
 Damping current iteration by 5.00D-01
 RMSDP=2.39D-03 MaxDP=1.07D-01              OVMax= 6.43D-02

 Cycle   2  Pass 1  IDiag  1:
 E= -845.238925246922     Delta-E=       -0.185326065184 Rises=F Damp=T
 DIIS: error= 1.26D-02 at cycle   2 NSaved=   2.
 NSaved= 2 IEnMin= 2 EnMin= -845.238925246922     IErMin= 2 ErrMin= 1.26D-02
 ErrMax= 1.26D-02  0.00D+00 EMaxC= 1.00D+00 BMatC= 5.54D-02 BMatP= 3.03D-01
 IDIUse=1 WtCom= 1.00D+00 WtEn= 0.00D+00
 Coeff-Com: -0.617D+00 0.162D+01
 Coeff:     -0.617D+00 0.162D+01
 Gap=     0.248 Goal=   None    Shift=    0.500
 T= 1374. Gap= 0.738 NK=0 IS=   75 IE=  525 IFin=   74
          NO(<0.9)=   0  NV(>0.1)=   0     74.00e < EF      0.00e >EF  Err=0.0D+00
 GapD=    0.248 DampG=1.000 DampE=0.500 DampFc=0.5000 IDamp=-1.
 Damping current iteration by 5.00D-01
 RMSDP=1.31D-03 MaxDP=5.23D-02 DE=-1.85D-01 OVMax= 1.86D-02

 Cycle   3  Pass 1  IDiag  1:
 E= -845.305068744901     Delta-E=       -0.066143497979 Rises=F Damp=T
 DIIS: error= 7.81D-03 at cycle   3 NSaved=   3.
 NSaved= 3 IEnMin= 3 EnMin= -845.305068744901     IErMin= 3 ErrMin= 7.81D-03
 ErrMax= 7.81D-03  0.00D+00 EMaxC= 1.00D+00 BMatC= 1.15D-02 BMatP= 5.54D-02
 IDIUse=1 WtCom= 1.00D+00 WtEn= 0.00D+00
 Coeff-Com:  0.795D-01-0.103D+01 0.195D+01
 Coeff:      0.795D-01-0.103D+01 0.195D+01
 Gap=     0.247 Goal=   None    Shift=    0.500
 T= 1153. Gap= 0.747 NK=0 IS=   75 IE=  525 IFin=   74
          NO(<0.9)=   0  NV(>0.1)=   0     74.00e < EF      0.00e >EF  Err=0.0D+00
 GapD=    0.247 DampG=1.000 DampE=1.000 DampFc=1.0000 IDamp=-1.
 RMSDP=7.23D-04 MaxDP=2.86D-02 DE=-6.61D-02 OVMax= 1.36D-02

 Cycle   4  Pass 1  IDiag  1:
 E= -845.361099119052     Delta-E=       -0.056030374151 Rises=F Damp=F
 DIIS: error= 3.22D-03 at cycle   4 NSaved=   4.
 NSaved= 4 IEnMin= 4 EnMin= -845.361099119052     IErMin= 4 ErrMin= 3.22D-03
 ErrMax= 3.22D-03  0.00D+00 EMaxC= 1.00D+00 BMatC= 4.53D-04 BMatP= 1.15D-02
 IDIUse=1 WtCom= 1.00D+00 WtEn= 0.00D+00
 Coeff-Com:  0.844D-01-0.273D+00 0.255D+00 0.933D+00
 Coeff:      0.844D-01-0.273D+00 0.255D+00 0.933D+00
 Gap=     0.248 Goal=   None    Shift=    0.500
 T=  693. Gap= 0.749 NK=0 IS=   75 IE=  525 IFin=   74
          NO(<0.9)=   0  NV(>0.1)=   0     74.00e < EF      0.00e >EF  Err=0.0D+00
 GapD=    0.248 DampG=1.000 DampE=1.000 DampFc=1.0000 IDamp=-1.
 RMSDP=1.21D-04 MaxDP=4.46D-03 DE=-5.60D-02 OVMax= 9.53D-03

 Cycle   5  Pass 1  IDiag  1:
 E= -845.361959073979     Delta-E=       -0.000859954927 Rises=F Damp=F
 DIIS: error= 2.58D-03 at cycle   5 NSaved=   5.
 NSaved= 5 IEnMin= 5 EnMin= -845.361959073979     IErMin= 5 ErrMin= 2.58D-03
 ErrMax= 2.58D-03  0.00D+00 EMaxC= 1.00D+00 BMatC= 1.10D-04 BMatP= 4.53D-04
 IDIUse=1 WtCom= 1.00D+00 WtEn= 0.00D+00
 Coeff-Com: -0.207D-02 0.140D+00-0.297D+00-0.248D+00 0.141D+01
 Coeff:     -0.207D-02 0.140D+00-0.297D+00-0.248D+00 0.141D+01
 Gap=     0.252 Goal=   None    Shift=    0.500
 T=  363. Gap= 0.752 NK=0 IS=   75 IE=  525 IFin=   74
          NO(<0.9)=   0  NV(>0.1)=   0     74.00e < EF      0.00e >EF  Err=0.0D+00
 GapD=    0.252 DampG=1.000 DampE=1.000 DampFc=1.0000 IDamp=-1.
 RMSDP=8.79D-05 MaxDP=2.77D-03 DE=-8.60D-04 OVMax= 8.13D-03

 Cycle   6  Pass 1  IDiag  1:
 E= -845.362370003331     Delta-E=       -0.000410929352 Rises=F Damp=F
 DIIS: error= 1.92D-03 at cycle   6 NSaved=   6.
 NSaved= 6 IEnMin= 6 EnMin= -845.362370003331     IErMin= 6 ErrMin= 1.92D-03
 ErrMax= 1.92D-03  0.00D+00 EMaxC= 1.00D+00 BMatC= 4.76D-05 BMatP= 1.10D-04
 IDIUse=1 WtCom= 1.00D+00 WtEn= 0.00D+00
 Coeff-Com: -0.310D-01 0.121D+00-0.147D+00-0.387D+00-0.488D-01 0.149D+01
 Coeff:     -0.310D-01 0.121D+00-0.147D+00-0.387D+00-0.488D-01 0.149D+01
 Gap=     0.253 Goal=   None    Shift=    0.500
 T=   22. Gap= 0.753 NK=0 IS=   75 IE=  525 IFin=   74
          NO(<0.9)=   0  NV(>0.1)=   0     74.00e < EF      0.00e >EF  Err=0.0D+00
 GapD=    0.253 DampG=1.000 DampE=1.000 DampFc=1.0000 IDamp=-1.
 RMSDP=5.76D-05 MaxDP=1.98D-03 DE=-4.11D-04 OVMax= 6.93D-03

 Cycle   7  Pass 1  IDiag  1:
 E= -845.362597442260     Delta-E=       -0.000227438929 Rises=F Damp=F
 DIIS: error= 1.38D-03 at cycle   7 NSaved=   7.
 NSaved= 7 IEnMin= 7 EnMin= -845.362597442260     IErMin= 7 ErrMin= 1.38D-03
 ErrMax= 1.38D-03  0.00D+00 EMaxC= 1.00D+00 BMatC= 2.22D-05 BMatP= 4.76D-05
 IDIUse=1 WtCom= 1.00D+00 WtEn= 0.00D+00
 Coeff-Com: -0.104D-01-0.149D-01 0.631D-01-0.429D-03-0.678D+00-0.239D+00
 Coeff-Com:  0.188D+01
 Coeff:     -0.104D-01-0.149D-01 0.631D-01-0.429D-03-0.678D+00-0.239D+00
 Coeff:      0.188D+01
 Gap=     0.253 Goal=   None    Shift=    0.500
 GapD=    0.253 DampG=1.000 DampE=1.000 DampFc=1.0000 IDamp=-1.
 RMSDP=4.00D-05 MaxDP=2.08D-03 DE=-2.27D-04 OVMax= 5.74D-03

 Cycle   8  Pass 1  IDiag  1:
 E= -845.362722733080     Delta-E=       -0.000125290820 Rises=F Damp=F
 DIIS: error= 9.63D-04 at cycle   8 NSaved=   8.
 NSaved= 8 IEnMin= 8 EnMin= -845.362722733080     IErMin= 8 ErrMin= 9.63D-04
 ErrMax= 9.63D-04  0.00D+00 EMaxC= 1.00D+00 BMatC= 1.08D-05 BMatP= 2.22D-05
 IDIUse=1 WtCom= 1.00D+00 WtEn= 0.00D+00
 Coeff-Com:  0.231D-02-0.183D-01 0.268D-01 0.156D+00-0.327D+00-0.596D+00
 Coeff-Com:  0.584D-01 0.170D+01
 Coeff:      0.231D-02-0.183D-01 0.268D-01 0.156D+00-0.327D+00-0.596D+00
 Coeff:      0.584D-01 0.170D+01
 Gap=     0.254 Goal=   None    Shift=    0.500
 RMSDP=2.50D-05 MaxDP=1.91D-03 DE=-1.25D-04 OVMax= 4.30D-03

 Cycle   9  Pass 1  IDiag  1:
 E= -845.362784911500     Delta-E=       -0.000062178420 Rises=F Damp=F
 DIIS: error= 6.55D-04 at cycle   9 NSaved=   9.
 NSaved= 9 IEnMin= 9 EnMin= -845.362784911500     IErMin= 9 ErrMin= 6.55D-04
 ErrMax= 6.55D-04  0.00D+00 EMaxC= 1.00D+00 BMatC= 5.26D-06 BMatP= 1.08D-05
 IDIUse=1 WtCom= 1.00D+00 WtEn= 0.00D+00
 Coeff-Com:  0.256D-02 0.178D-01-0.455D-01 0.971D-01 0.124D+00-0.258D+00
 Coeff-Com: -0.912D+00 0.214D+00 0.176D+01
 Coeff:      0.256D-02 0.178D-01-0.455D-01 0.971D-01 0.124D+00-0.258D+00
 Coeff:     -0.912D+00 0.214D+00 0.176D+01
 Gap=     0.254 Goal=   None    Shift=    0.500
 RMSDP=1.68D-05 MaxDP=1.50D-03 DE=-6.22D-05 OVMax= 3.22D-03

 Cycle  10  Pass 1  IDiag  1:
 E= -845.362814867203     Delta-E=       -0.000029955704 Rises=F Damp=F
 DIIS: error= 4.41D-04 at cycle  10 NSaved=  10.
 NSaved=10 IEnMin=10 EnMin= -845.362814867203     IErMin=10 ErrMin= 4.41D-04
 ErrMax= 4.41D-04  0.00D+00 EMaxC= 1.00D+00 BMatC= 2.53D-06 BMatP= 5.26D-06
 IDIUse=1 WtCom= 1.00D+00 WtEn= 0.00D+00
 Coeff-Com: -0.293D-02 0.258D-01-0.419D-01-0.134D-01 0.132D+00 0.119D+00
 Coeff-Com: -0.329D+00-0.659D+00-0.242D+00 0.201D+01
 Coeff:     -0.293D-02 0.258D-01-0.419D-01-0.134D-01 0.132D+00 0.119D+00
 Coeff:     -0.329D+00-0.659D+00-0.242D+00 0.201D+01
 Gap=     0.254 Goal=   None    Shift=    0.500
 RMSDP=1.05D-05 MaxDP=9.20D-04 DE=-3.00D-05 OVMax= 2.29D-03

 Cycle  11  Pass 1  IDiag  1:
 E= -845.362828472542     Delta-E=       -0.000013605339 Rises=F Damp=F
 DIIS: error= 2.89D-04 at cycle  11 NSaved=  11.
 NSaved=11 IEnMin=11 EnMin= -845.362828472542     IErMin=11 ErrMin= 2.89D-04
 ErrMax= 2.89D-04  0.00D+00 EMaxC= 1.00D+00 BMatC= 1.21D-06 BMatP= 2.53D-06
 IDIUse=1 WtCom= 1.00D+00 WtEn= 0.00D+00
 Coeff-Com: -0.300D-02 0.905D-02-0.793D-02-0.290D-01-0.163D-01 0.162D+00
 Coeff-Com:  0.209D+00-0.445D+00-0.688D+00-0.481D+00 0.229D+01
 Coeff:     -0.300D-02 0.905D-02-0.793D-02-0.290D-01-0.163D-01 0.162D+00
 Coeff:      0.209D+00-0.445D+00-0.688D+00-0.481D+00 0.229D+01
 Gap=     0.254 Goal=   None    Shift=    0.500
 RMSDP=7.02D-06 MaxDP=6.57D-04 DE=-1.36D-05 OVMax= 1.59D-03

 Cycle  12  Pass 1  IDiag  1:
 E= -845.362834445827     Delta-E=       -0.000005973285 Rises=F Damp=F
 DIIS: error= 1.95D-04 at cycle  12 NSaved=  12.
 NSaved=12 IEnMin=12 EnMin= -845.362834445827     IErMin=12 ErrMin= 1.95D-04
 ErrMax= 1.95D-04  0.00D+00 EMaxC= 1.00D+00 BMatC= 6.73D-07 BMatP= 1.21D-06
 IDIUse=1 WtCom= 1.00D+00 WtEn= 0.00D+00
 Coeff-Com: -0.104D-02-0.208D-03 0.375D-02-0.173D-02-0.628D-01 0.639D-01
 Coeff-Com:  0.212D+00-0.233D-01-0.235D+00-0.156D+01 0.119D+01 0.141D+01
 Coeff:     -0.104D-02-0.208D-03 0.375D-02-0.173D-02-0.628D-01 0.639D-01
 Coeff:      0.212D+00-0.233D-01-0.235D+00-0.156D+01 0.119D+01 0.141D+01
 Gap=     0.254 Goal=   None    Shift=    0.500
 RMSDP=4.09D-06 MaxDP=2.96D-04 DE=-5.97D-06 OVMax= 1.09D-03

 Cycle  13  Pass 1  IDiag  1:
 E= -845.362837142042     Delta-E=       -0.000002696215 Rises=F Damp=F
 DIIS: error= 1.27D-04 at cycle  13 NSaved=  13.
 NSaved=13 IEnMin=13 EnMin= -845.362837142042     IErMin=13 ErrMin= 1.27D-04
 ErrMax= 1.27D-04  0.00D+00 EMaxC= 1.00D+00 BMatC= 3.20D-07 BMatP= 6.73D-07
 IDIUse=1 WtCom= 1.00D+00 WtEn= 0.00D+00
 Coeff-Com:  0.402D-03-0.114D-02 0.668D-03 0.156D-01-0.225D-01-0.374D-01
 Coeff-Com: -0.703D-02 0.204D+00 0.242D+00-0.878D+00 0.592D-03-0.952D+00
 Coeff-Com:  0.243D+01
 Coeff:      0.402D-03-0.114D-02 0.668D-03 0.156D-01-0.225D-01-0.374D-01
 Coeff:     -0.703D-02 0.204D+00 0.242D+00-0.878D+00 0.592D-03-0.952D+00
 Coeff:      0.243D+01
 Gap=     0.254 Goal=   None    Shift=    0.500
 RMSDP=2.64D-06 MaxDP=1.28D-04 DE=-2.70D-06 OVMax= 7.44D-04

 Cycle  14  Pass 1  IDiag  1:
 E= -845.362838307222     Delta-E=       -0.000001165180 Rises=F Damp=F
 DIIS: error= 8.40D-05 at cycle  14 NSaved=  14.
 NSaved=14 IEnMin=14 EnMin= -845.362838307222     IErMin=14 ErrMin= 8.40D-05
 ErrMax= 8.40D-05  0.00D+00 EMaxC= 1.00D+00 BMatC= 1.67D-07 BMatP= 3.20D-07
 IDIUse=1 WtCom= 1.00D+00 WtEn= 0.00D+00
 Coeff-Com:  0.454D-03 0.271D-03-0.227D-02 0.946D-02 0.106D-01-0.393D-01
 Coeff-Com: -0.751D-01 0.150D+00 0.219D+00-0.112D+00-0.281D+00-0.159D+01
 Coeff-Com:  0.123D+01 0.148D+01
 Coeff:      0.454D-03 0.271D-03-0.227D-02 0.946D-02 0.106D-01-0.393D-01
 Coeff:     -0.751D-01 0.150D+00 0.219D+00-0.112D+00-0.281D+00-0.159D+01
 Coeff:      0.123D+01 0.148D+01
 Gap=     0.254 Goal=   None    Shift=    0.500
 RMSDP=1.66D-06 MaxDP=5.59D-05 DE=-1.17D-06 OVMax= 5.03D-04

 Cycle  15  Pass 1  IDiag  1:
 E= -845.362838829130     Delta-E=       -0.000000521908 Rises=F Damp=F
 DIIS: error= 5.47D-05 at cycle  15 NSaved=  15.
 NSaved=15 IEnMin=15 EnMin= -845.362838829130     IErMin=15 ErrMin= 5.47D-05
 ErrMax= 5.47D-05  0.00D+00 EMaxC= 1.00D+00 BMatC= 7.72D-08 BMatP= 1.67D-07
 IDIUse=1 WtCom= 1.00D+00 WtEn= 0.00D+00
 Coeff-Com: -0.171D-03 0.919D-03-0.129D-02-0.382D-02 0.889D-02 0.129D-01
 Coeff-Com: -0.535D-02-0.417D-01-0.677D-01 0.212D+00 0.984D-01-0.169D+00
 Coeff-Com: -0.476D+00-0.162D+01 0.305D+01
 Coeff:     -0.171D-03 0.919D-03-0.129D-02-0.382D-02 0.889D-02 0.129D-01
 Coeff:     -0.535D-02-0.417D-01-0.677D-01 0.212D+00 0.984D-01-0.169D+00
 Coeff:     -0.476D+00-0.162D+01 0.305D+01
 Gap=     0.254 Goal=   None    Shift=    0.500
 RMSDP=1.04D-06 MaxDP=3.56D-05 DE=-5.22D-07 OVMax= 3.32D-04

 Cycle  16  Pass 1  IDiag  1:
 E= -845.362839052729     Delta-E=       -0.000000223598 Rises=F Damp=F
 DIIS: error= 3.59D-05 at cycle  16 NSaved=  16.
 NSaved=16 IEnMin=16 EnMin= -845.362839052729     IErMin=16 ErrMin= 3.59D-05
 ErrMax= 3.59D-05  0.00D+00 EMaxC= 1.00D+00 BMatC= 3.61D-08 BMatP= 7.72D-08
 IDIUse=1 WtCom= 1.00D+00 WtEn= 0.00D+00
 Coeff-Com: -0.143D-03 0.252D-03-0.266D-04-0.321D-02 0.127D-02 0.150D-01
 Coeff-Com:  0.118D-01-0.392D-01-0.765D-01 0.915D-01 0.144D+00 0.198D+00
 Coeff-Com: -0.550D+00-0.131D+01 0.102D+01 0.150D+01
 Coeff:     -0.143D-03 0.252D-03-0.266D-04-0.321D-02 0.127D-02 0.150D-01
 Coeff:      0.118D-01-0.392D-01-0.765D-01 0.915D-01 0.144D+00 0.198D+00
 Coeff:     -0.550D+00-0.131D+01 0.102D+01 0.150D+01
 Gap=     0.254 Goal=   None    Shift=    0.500
 RMSDP=6.57D-07 MaxDP=1.64D-05 DE=-2.24D-07 OVMax= 2.20D-04

 SCF Done:  E(RLC-wHPBE) =  -845.362839053     A.U. after   16 cycles
            NFock= 16  Conv=0.66D-06     -V/T= 2.0054
 KE= 8.408160411679D+02 PE=-4.918316815838D+03 EE= 1.744677730777D+03
 Leave Link  502 at Thu Jan 21 03:48:47 2021, MaxMem=  4026531840 cpu:            3575.7 elap:             448.2
 (Enter /opt/ohpc/pub/libs/gaussian/g16-A.03/sandybridge/g16/l508.exe)
 QCSCF skips out because SCF is already converged.
 Leave Link  508 at Thu Jan 21 03:48:47 2021, MaxMem=  4026531840 cpu:               0.0 elap:               0.0
 (Enter /opt/ohpc/pub/libs/gaussian/g16-A.03/sandybridge/g16/l601.exe)
 Copying SCF densities to generalized density rwf, IOpCl= 0 IROHF=0.

 **********************************************************************

            Population analysis using the SCF density.

 **********************************************************************

 Orbital symmetries:
       Occupied  (A) (A) (A) (A) (A) (A) (A) (A) (A) (A) (A) (A)
                 (A) (A) (A) (A) (A) (A) (A) (A) (A) (A) (A) (A)
                 (A) (A) (A) (A) (A) (A) (A) (A) (A) (A) (A) (A)
                 (A) (A) (A) (A) (A) (A) (A) (A) (A) (A) (A) (A)
                 (A) (A) (A) (A) (A) (A) (A) (A) (A) (A) (A) (A)
                 (A) (A) (A) (A) (A) (A) (A) (A) (A) (A) (A) (A)
                 (A) (A)
       Virtual   (A) (A) (A) (A) (A) (A) (A) (A) (A) (A) (A) (A)
                 (A) (A) (A) (A) (A) (A) (A) (A) (A) (A) (A) (A)
                 (A) (A) (A) (A) (A) (A) (A) (A) (A) (A) (A) (A)
                 (A) (A) (A) (A) (A) (A) (A) (A) (A) (A) (A) (A)
                 (A) (A) (A) (A) (A) (A) (A) (A) (A) (A) (A) (A)
                 (A) (A) (A) (A) (A) (A) (A) (A) (A) (A) (A) (A)
                 (A) (A) (A) (A) (A) (A) (A) (A) (A) (A) (A) (A)
                 (A) (A) (A) (A) (A) (A) (A) (A) (A) (A) (A) (A)
                 (A) (A) (A) (A) (A) (A) (A) (A) (A) (A) (A) (A)
                 (A) (A) (A) (A) (A) (A) (A) (A) (A) (A) (A) (A)
                 (A) (A) (A) (A) (A) (A) (A) (A) (A) (A) (A) (A)
                 (A) (A) (A) (A) (A) (A) (A) (A) (A) (A) (A) (A)
                 (A) (A) (A) (A) (A) (A) (A) (A) (A) (A) (A) (A)
                 (A) (A) (A) (A) (A) (A) (A) (A) (A) (A) (A) (A)
                 (A) (A) (A) (A) (A) (A) (A) (A) (A) (A) (A) (A)
                 (A) (A) (A) (A) (A) (A) (A) (A) (A) (A) (A) (A)
                 (A) (A) (A) (A) (A) (A) (A) (A) (A) (A) (A) (A)
                 (A) (A) (A) (A) (A) (A) (A) (A) (A) (A) (A) (A)
                 (A) (A) (A) (A) (A) (A) (A) (A) (A) (A) (A) (A)
                 (A) (A) (A) (A) (A) (A) (A) (A) (A) (A) (A) (A)
                 (A) (A) (A) (A) (A) (A) (A) (A) (A) (A) (A) (A)
                 (A) (A) (A) (A) (A) (A) (A) (A) (A) (A) (A) (A)
                 (A) (A) (A) (A) (A) (A) (A) (A) (A) (A) (A) (A)
                 (A) (A) (A) (A) (A) (A) (A) (A) (A) (A) (A) (A)
                 (A) (A) (A) (A) (A) (A) (A) (A) (A) (A) (A) (A)
                 (A) (A) (A) (A) (A) (A) (A) (A) (A) (A) (A) (A)
                 (A) (A) (A) (A) (A) (A) (A) (A) (A) (A) (A) (A)
                 (A) (A) (A) (A) (A) (A) (A) (A) (A) (A) (A) (A)
                 (A) (A) (A) (A) (A) (A) (A) (A) (A) (A) (A) (A)
                 (A) (A) (A) (A) (A) (A) (A) (A) (A) (A) (A) (A)
                 (A) (A) (A) (A) (A) (A) (A) (A) (A) (A) (A) (A)
                 (A) (A) (A) (A) (A) (A) (A) (A) (A) (A) (A) (A)
                 (A) (A) (A) (A) (A) (A) (A) (A) (A) (A) (A) (A)
                 (A) (A) (A) (A) (A) (A) (A) (A) (A) (A) (A) (A)
                 (A) (A) (A) (A) (A) (A) (A) (A) (A) (A) (A) (A)
                 (A) (A) (A) (A) (A) (A) (A) (A) (A) (A) (A) (A)
                 (A) (A) (A) (A) (A) (A) (A) (A) (A) (A) (A) (A)
                 (A) (A) (A) (A) (A) (A) (A)
 The electronic state is 1-A.
 Alpha  occ. eigenvalues --  -14.29671 -14.29669 -10.22352 -10.22319 -10.18665
 Alpha  occ. eigenvalues --  -10.16656 -10.16655 -10.16250 -10.16250 -10.14377
 Alpha  occ. eigenvalues --  -10.12601 -10.12513 -10.12512 -10.11185 -10.11183
 Alpha  occ. eigenvalues --  -10.09932 -10.08532 -10.08530 -10.07968 -10.07957
 Alpha  occ. eigenvalues --  -10.07905  -1.16841  -1.14364  -1.08787  -1.01965
 Alpha  occ. eigenvalues --   -0.98108  -0.93555  -0.91529  -0.91336  -0.90813
 Alpha  occ. eigenvalues --   -0.89900  -0.88879  -0.87131  -0.87077  -0.80339
 Alpha  occ. eigenvalues --   -0.78071  -0.74269  -0.74255  -0.73144  -0.72960
 Alpha  occ. eigenvalues --   -0.72480  -0.69101  -0.68686  -0.67965  -0.66750
 Alpha  occ. eigenvalues --   -0.66725  -0.64046  -0.62995  -0.61505  -0.61305
 Alpha  occ. eigenvalues --   -0.61071  -0.60149  -0.59687  -0.59520  -0.59315
 Alpha  occ. eigenvalues --   -0.58728  -0.58720  -0.58259  -0.57657  -0.57327
 Alpha  occ. eigenvalues --   -0.55807  -0.55772  -0.54742  -0.52892  -0.52212
 Alpha  occ. eigenvalues --   -0.51210  -0.49570  -0.48461  -0.47894  -0.46567
 Alpha  occ. eigenvalues --   -0.43929  -0.41936  -0.40308  -0.38220
 Alpha virt. eigenvalues --   -0.12837  -0.07436  -0.05307  -0.05088  -0.04195
 Alpha virt. eigenvalues --   -0.03817  -0.01307  -0.00857  -0.00129   0.00811
 Alpha virt. eigenvalues --    0.01014   0.01919   0.02990   0.03476   0.03784
 Alpha virt. eigenvalues --    0.04148   0.04474   0.04837   0.04965   0.05320
 Alpha virt. eigenvalues --    0.05819   0.06196   0.06781   0.07008   0.07237
 Alpha virt. eigenvalues --    0.07703   0.08921   0.09443   0.09639   0.09824
 Alpha virt. eigenvalues --    0.10002   0.10479   0.11790   0.11937   0.12104
 Alpha virt. eigenvalues --    0.12407   0.12495   0.13034   0.13377   0.13439
 Alpha virt. eigenvalues --    0.14568   0.15208   0.15738   0.17587   0.18132
 Alpha virt. eigenvalues --    0.18407   0.18586   0.19361   0.19911   0.20562
 Alpha virt. eigenvalues --    0.20632   0.21035   0.21432   0.22076   0.22375
 Alpha virt. eigenvalues --    0.22640   0.22819   0.23137   0.23668   0.24057
 Alpha virt. eigenvalues --    0.24287   0.24643   0.24794   0.25778   0.26175
 Alpha virt. eigenvalues --    0.26305   0.26381   0.27193   0.28416   0.28449
 Alpha virt. eigenvalues --    0.29621   0.30062   0.30466   0.30485   0.30552
 Alpha virt. eigenvalues --    0.31374   0.31878   0.32125   0.33298   0.33622
 Alpha virt. eigenvalues --    0.33926   0.34726   0.34732   0.35342   0.36346
 Alpha virt. eigenvalues --    0.36670   0.36728   0.37094   0.37455   0.37582
 Alpha virt. eigenvalues --    0.37929   0.38510   0.38523   0.38699   0.39098
 Alpha virt. eigenvalues --    0.39666   0.40110   0.40597   0.40647   0.41353
 Alpha virt. eigenvalues --    0.41847   0.42025   0.42235   0.42835   0.43082
 Alpha virt. eigenvalues --    0.43217   0.43596   0.44710   0.44818   0.45776
 Alpha virt. eigenvalues --    0.46208   0.46888   0.47133   0.48172   0.48325
 Alpha virt. eigenvalues --    0.48491   0.48800   0.49516   0.50369   0.50486
 Alpha virt. eigenvalues --    0.50798   0.51425   0.52686   0.53342   0.54220
 Alpha virt. eigenvalues --    0.54592   0.55079   0.56605   0.57507   0.58073
 Alpha virt. eigenvalues --    0.58551   0.58745   0.59835   0.60744   0.61392
 Alpha virt. eigenvalues --    0.63192   0.63639   0.64537   0.64727   0.65365
 Alpha virt. eigenvalues --    0.66786   0.66929   0.67300   0.67324   0.68191
 Alpha virt. eigenvalues --    0.70123   0.70238   0.73029   0.73211   0.75076
 Alpha virt. eigenvalues --    0.75458   0.78581   0.79888   0.81506   0.81539
 Alpha virt. eigenvalues --    0.84853   0.86650   1.05173   1.05529   1.09962
 Alpha virt. eigenvalues --    1.12559   1.13828   1.14032   1.15731   1.16724
 Alpha virt. eigenvalues --    1.17220   1.17347   1.17910   1.18644   1.19216
 Alpha virt. eigenvalues --    1.20080   1.20858   1.21540   1.21777   1.22298
 Alpha virt. eigenvalues --    1.22946   1.23326   1.23844   1.24216   1.24858
 Alpha virt. eigenvalues --    1.24940   1.25593   1.25653   1.26373   1.26495
 Alpha virt. eigenvalues --    1.26827   1.27121   1.27841   1.27988   1.28181
 Alpha virt. eigenvalues --    1.28368   1.28500   1.29089   1.29919   1.30482
 Alpha virt. eigenvalues --    1.32309   1.33779   1.35155   1.36005   1.36204
 Alpha virt. eigenvalues --    1.36657   1.37424   1.37431   1.37863   1.38122
 Alpha virt. eigenvalues --    1.38465   1.38781   1.40356   1.40537   1.40649
 Alpha virt. eigenvalues --    1.40930   1.41086   1.41619   1.42232   1.42833
 Alpha virt. eigenvalues --    1.43159   1.43428   1.43847   1.44458   1.44547
 Alpha virt. eigenvalues --    1.45059   1.45520   1.45598   1.46209   1.46578
 Alpha virt. eigenvalues --    1.47034   1.47122   1.47361   1.48315   1.49140
 Alpha virt. eigenvalues --    1.49785   1.49963   1.50866   1.51302   1.52709
 Alpha virt. eigenvalues --    1.53204   1.54118   1.54747   1.55199   1.55797
 Alpha virt. eigenvalues --    1.56171   1.57354   1.57977   1.59093   1.59886
 Alpha virt. eigenvalues --    1.60930   1.61846   1.63002   1.63103   1.64243
 Alpha virt. eigenvalues --    1.65782   1.65871   1.66379   1.67603   1.67677
 Alpha virt. eigenvalues --    1.68245   1.68867   1.69632   1.69943   1.70325
 Alpha virt. eigenvalues --    1.70335   1.72343   1.72559   1.72728   1.73102
 Alpha virt. eigenvalues --    1.73954   1.74137   1.74167   1.75431   1.76472
 Alpha virt. eigenvalues --    1.76572   1.78175   1.79881   1.79924   1.80267
 Alpha virt. eigenvalues --    1.81188   1.83057   1.83274   1.83312   1.84796
 Alpha virt. eigenvalues --    1.85396   1.85591   1.87179   1.87586   1.88623
 Alpha virt. eigenvalues --    1.89605   1.90681   1.91232   1.91376   1.92797
 Alpha virt. eigenvalues --    1.93242   1.94263   1.95083   1.96060   1.96212
 Alpha virt. eigenvalues --    1.96523   1.97330   1.99774   2.00544   2.01361
 Alpha virt. eigenvalues --    2.01925   2.03741   2.05556   2.05564   2.07249
 Alpha virt. eigenvalues --    2.07634   2.10592   2.11734   2.11974   2.17005
 Alpha virt. eigenvalues --    2.17964   2.18177   2.18740   2.19924   2.20400
 Alpha virt. eigenvalues --    2.20485   2.21983   2.22143   2.22385   2.23078
 Alpha virt. eigenvalues --    2.24051   2.24167   2.24640   2.25076   2.25288
 Alpha virt. eigenvalues --    2.26322   2.27027   2.27272   2.27968   2.28256
 Alpha virt. eigenvalues --    2.28548   2.29138   2.29500   2.31420   2.33766
 Alpha virt. eigenvalues --    2.33823   2.35292   2.36350   2.37506   2.40242
 Alpha virt. eigenvalues --    2.40520   2.41833   2.42180   2.43620   2.44008
 Alpha virt. eigenvalues --    2.44275   2.44993   2.45609   2.47112   2.47390
 Alpha virt. eigenvalues --    2.47553   2.48011   2.48595   2.48693   2.50413
 Alpha virt. eigenvalues --    2.53625   2.54273   2.54816   2.55598   2.56919
 Alpha virt. eigenvalues --    2.57257   2.57469   2.58754   2.59263   2.60954
 Alpha virt. eigenvalues --    2.61025   2.62024   2.62449   2.63482   2.63805
 Alpha virt. eigenvalues --    2.64449   2.64963   2.65433   2.66071   2.68104
 Alpha virt. eigenvalues --    2.69121   2.71624   2.73964   2.74208   2.75034
 Alpha virt. eigenvalues --    2.75103   2.75683   2.77025   2.82734   2.90570
 Alpha virt. eigenvalues --    2.92344   2.92738   2.96212   2.97194   2.98019
 Alpha virt. eigenvalues --    2.98417   2.99227   2.99480   3.01216   3.01797
 Alpha virt. eigenvalues --    3.03417   3.03879   3.04180   3.06883   3.07879
 Alpha virt. eigenvalues --    3.08808   3.11708   3.12330   3.14393   3.15330
 Alpha virt. eigenvalues --    3.17398   3.18411   3.18735   3.18945   3.19672
 Alpha virt. eigenvalues --    3.21132   3.22003   3.24315   3.25861   3.26853
 Alpha virt. eigenvalues --    3.27725   3.28683   3.30379   3.33550   3.33674
 Alpha virt. eigenvalues --    3.34286   3.34769   3.46916   3.52103   3.55600
 Alpha virt. eigenvalues --    3.60714   3.68307   3.69027   3.74882   3.86096
 Alpha virt. eigenvalues --   21.07533  21.23240  21.38916  21.46181  21.57390
 Alpha virt. eigenvalues --   21.60243  21.60652  21.64843  21.69508  21.77683
 Alpha virt. eigenvalues --   21.80750  21.84308  21.84629  21.85840  21.88162
 Alpha virt. eigenvalues --   21.95819  21.99449  22.02423  22.03832  31.52809
 Alpha virt. eigenvalues --   31.67889
          Condensed to atoms (all electrons):
               1          2          3          4          5          6
     1  C    4.957069   0.471560   0.398346  -0.001267   0.002955  -0.106786
     2  C    0.471560   4.950692  -0.023603   0.471560  -0.072730  -0.023620
     3  C    0.398346  -0.023603   5.197539  -0.106799   0.380456  -0.049320
     4  C   -0.001267   0.471560  -0.106799   4.957053   0.002952   0.398379
     5  C    0.002955  -0.072730   0.380456   0.002952   5.537768   0.380508
     6  C   -0.106786  -0.023620  -0.049320   0.398379   0.380508   5.197478
     7  H   -0.055634   0.416772   0.018295  -0.055634  -0.004374   0.018294
     8  H   -0.016780   0.009419   0.394126  -0.001068  -0.064158   0.011786
     9  H    0.012282  -0.050954  -0.000016   0.412282   0.015065  -0.051485
    10  H   -0.001069   0.009420   0.011788  -0.016782  -0.064154   0.394125
    11  C    0.014315   0.009892  -0.056400   0.014315   0.085377  -0.056429
    12  C   -0.000581  -0.000379   0.028197   0.004150  -0.128761  -0.025044
    13  C    0.004149  -0.000380  -0.025061  -0.000579  -0.128703   0.028199
    14  C    0.000483  -0.000046  -0.001479  -0.000772   0.047156   0.001360
    15  C   -0.000772  -0.000046   0.001365   0.000483   0.047122  -0.001480
    16  C   -0.000023   0.000018   0.001215  -0.000023  -0.012164   0.001217
    17  H    0.000027  -0.000044  -0.000261   0.001401  -0.015033   0.002154
    18  H    0.001401  -0.000044   0.002154   0.000027  -0.015029  -0.000261
    19  H   -0.000001  -0.000000  -0.000013  -0.000003  -0.000768   0.000018
    20  H   -0.000003  -0.000000   0.000018  -0.000001  -0.000768  -0.000013
    21  H    0.412284  -0.050956  -0.051487   0.012283   0.015065  -0.000016
    22  C   -0.000005   0.000001   0.000187  -0.000005  -0.004819   0.000187
    23  C    0.000000   0.000000   0.000017  -0.000000  -0.000092  -0.000004
    24  C   -0.000000   0.000000  -0.000004   0.000000  -0.000093   0.000017
    25  N    0.000000   0.000000   0.000000  -0.000000  -0.000000   0.000000
    26  N   -0.000000   0.000000   0.000000   0.000000  -0.000000   0.000000
    27  C    0.000000   0.000000   0.000000  -0.000000  -0.000004  -0.000000
    28  H   -0.000000  -0.000000  -0.000000   0.000000   0.000000  -0.000000
    29  H   -0.000000   0.000000   0.000003   0.000000  -0.000028   0.000000
    30  H    0.000000   0.000000   0.000000  -0.000000   0.000000   0.000000
    31  C    0.000000   0.000000   0.000000  -0.000000  -0.000000  -0.000000
    32  H   -0.000000  -0.000000  -0.000000   0.000000   0.000000   0.000000
    33  H    0.000000  -0.000000  -0.000000  -0.000000   0.000000  -0.000000
    34  H    0.000000   0.000000   0.000000  -0.000000  -0.000000   0.000000
    35  C   -0.000000   0.000000  -0.000000   0.000000  -0.000004   0.000000
    36  H    0.000000  -0.000000  -0.000000  -0.000000   0.000000  -0.000000
    37  H    0.000000   0.000000   0.000000  -0.000000  -0.000028   0.000003
    38  H   -0.000000   0.000000   0.000000   0.000000   0.000000   0.000000
    39  C   -0.000000   0.000000  -0.000000   0.000000  -0.000000   0.000000
    40  H    0.000000  -0.000000   0.000000  -0.000000   0.000000  -0.000000
    41  H   -0.000000  -0.000000  -0.000000   0.000000   0.000000  -0.000000
    42  H   -0.000000   0.000000   0.000000   0.000000  -0.000000   0.000000
               7          8          9         10         11         12
     1  C   -0.055634  -0.016780   0.012282  -0.001069   0.014315  -0.000581
     2  C    0.416772   0.009419  -0.050954   0.009420   0.009892  -0.000379
     3  C    0.018295   0.394126  -0.000016   0.011788  -0.056400   0.028197
     4  C   -0.055634  -0.001068   0.412282  -0.016782   0.014315   0.004150
     5  C   -0.004374  -0.064158   0.015065  -0.064154   0.085377  -0.128761
     6  C    0.018294   0.011786  -0.051485   0.394125  -0.056429  -0.025044
     7  H    0.546062  -0.000201  -0.006900  -0.000201  -0.000249  -0.000008
     8  H   -0.000201   0.544109   0.000034  -0.000170  -0.014857  -0.000069
     9  H   -0.006900   0.000034   0.553054  -0.006113  -0.001731   0.000030
    10  H   -0.000201  -0.000170  -0.006113   0.544111  -0.014861   0.004227
    11  C   -0.000249  -0.014857  -0.001731  -0.014861   5.328082   0.425722
    12  C   -0.000008  -0.000069   0.000030   0.004227   0.425722   5.364051
    13  C   -0.000008   0.004227   0.000015  -0.000070   0.425681  -0.096621
    14  C    0.000000  -0.000219  -0.000005   0.001287  -0.015571   0.180578
    15  C    0.000000   0.001288  -0.000001  -0.000219  -0.015589  -0.056458
    16  C   -0.000000   0.000223  -0.000000   0.000223  -0.049011   0.017072
    17  H   -0.000003  -0.000019   0.000009   0.000616  -0.046670   0.393150
    18  H   -0.000003   0.000617   0.000000  -0.000019  -0.046684   0.009132
    19  H    0.000000  -0.000001  -0.000000  -0.000042   0.010966  -0.004760
    20  H    0.000000  -0.000042   0.000000  -0.000001   0.010974   0.002864
    21  H   -0.006900  -0.006113  -0.000194   0.000034  -0.001731   0.000015
    22  C   -0.000000   0.000033  -0.000000   0.000033  -0.017088   0.034483
    23  C   -0.000000   0.000000   0.000000   0.000001  -0.001952  -0.008933
    24  C   -0.000000   0.000001  -0.000000   0.000000  -0.001954   0.013982
    25  N   -0.000000  -0.000000  -0.000000   0.000000  -0.000025  -0.000015
    26  N   -0.000000   0.000000  -0.000000  -0.000000  -0.000025   0.000187
    27  C   -0.000000  -0.000001  -0.000000  -0.000000  -0.000063  -0.000016
    28  H    0.000000   0.000000   0.000000  -0.000000   0.000005   0.000005
    29  H    0.000000   0.000004  -0.000000  -0.000000  -0.000110   0.000182
    30  H   -0.000000   0.000000   0.000000   0.000000   0.000000  -0.000004
    31  C   -0.000000  -0.000000   0.000000   0.000000  -0.000001  -0.000005
    32  H    0.000000   0.000000   0.000000  -0.000000   0.000000   0.000000
    33  H    0.000000  -0.000000  -0.000000   0.000000  -0.000000  -0.000000
    34  H    0.000000  -0.000000  -0.000000  -0.000000   0.000000  -0.000000
    35  C   -0.000000  -0.000000  -0.000000  -0.000001  -0.000063   0.000252
    36  H    0.000000  -0.000000   0.000000   0.000000   0.000005  -0.000096
    37  H    0.000000  -0.000000  -0.000000   0.000004  -0.000110  -0.000012
    38  H   -0.000000   0.000000   0.000000   0.000000   0.000000   0.000039
    39  C   -0.000000   0.000000  -0.000000  -0.000000  -0.000001   0.000018
    40  H    0.000000  -0.000000   0.000000   0.000000   0.000000  -0.000002
    41  H    0.000000   0.000000   0.000000  -0.000000  -0.000000   0.000001
    42  H    0.000000  -0.000000  -0.000000  -0.000000   0.000000   0.000000
              13         14         15         16         17         18
     1  C    0.004149   0.000483  -0.000772  -0.000023   0.000027   0.001401
     2  C   -0.000380  -0.000046  -0.000046   0.000018  -0.000044  -0.000044
     3  C   -0.025061  -0.001479   0.001365   0.001215  -0.000261   0.002154
     4  C   -0.000579  -0.000772   0.000483  -0.000023   0.001401   0.000027
     5  C   -0.128703   0.047156   0.047122  -0.012164  -0.015033  -0.015029
     6  C    0.028199   0.001360  -0.001480   0.001217   0.002154  -0.000261
     7  H   -0.000008   0.000000   0.000000  -0.000000  -0.000003  -0.000003
     8  H    0.004227  -0.000219   0.001288   0.000223  -0.000019   0.000617
     9  H    0.000015  -0.000005  -0.000001  -0.000000   0.000009   0.000000
    10  H   -0.000070   0.001287  -0.000219   0.000223   0.000616  -0.000019
    11  C    0.425681  -0.015571  -0.015589  -0.049011  -0.046670  -0.046684
    12  C   -0.096621   0.180578  -0.056458   0.017072   0.393150   0.009132
    13  C    5.363964  -0.056456   0.180695   0.017005   0.009131   0.393158
    14  C   -0.056456   5.392450  -0.128253   0.375705  -0.024835   0.001970
    15  C    0.180695  -0.128253   5.392173   0.375980   0.001970  -0.024840
    16  C    0.017005   0.375705   0.375980   5.702225   0.011517   0.011520
    17  H    0.009131  -0.024835   0.001970   0.011517   0.515725  -0.000162
    18  H    0.393158   0.001970  -0.024840   0.011520  -0.000162   0.515738
    19  H    0.002867   0.406879   0.001452  -0.098812  -0.005430   0.000051
    20  H   -0.004758   0.001462   0.406879  -0.098792   0.000051  -0.005433
    21  H    0.000030  -0.000001  -0.000005  -0.000000   0.000000   0.000009
    22  C    0.034511  -0.068064  -0.068059   0.109158  -0.000168  -0.000169
    23  C    0.013973   0.046038  -0.063570  -0.218350   0.000082   0.000181
    24  C   -0.008928  -0.063575   0.045998  -0.218423   0.000181   0.000081
    25  N    0.000186   0.000138   0.000733  -0.013332   0.000000   0.000002
    26  N   -0.000015   0.000728   0.000141  -0.013321   0.000002   0.000000
    27  C    0.000250   0.000000  -0.003603  -0.014634  -0.000000   0.000005
    28  H   -0.000096  -0.000034   0.000129  -0.000176   0.000000  -0.000003
    29  H   -0.000009  -0.000802   0.006715  -0.020381   0.000000  -0.000019
    30  H    0.000039   0.000032  -0.000130   0.001035  -0.000000   0.000000
    31  C    0.000018   0.000066  -0.000017  -0.002730   0.000000   0.000000
    32  H   -0.000002  -0.000002   0.000003   0.000002   0.000000  -0.000000
    33  H    0.000001   0.000001  -0.000018   0.000115  -0.000000   0.000000
    34  H    0.000001   0.000011   0.000011  -0.000278  -0.000000  -0.000000
    35  C   -0.000016  -0.003627   0.000002  -0.014605   0.000005  -0.000000
    36  H    0.000005   0.000128  -0.000034  -0.000175  -0.000003   0.000000
    37  H    0.000182   0.006736  -0.000804  -0.020405  -0.000019   0.000000
    38  H   -0.000004  -0.000130   0.000032   0.001036   0.000000  -0.000000
    39  C   -0.000005  -0.000019   0.000066  -0.002732   0.000000   0.000000
    40  H    0.000000   0.000003  -0.000002   0.000002  -0.000000   0.000000
    41  H   -0.000000  -0.000018   0.000001   0.000115   0.000000  -0.000000
    42  H   -0.000000   0.000011   0.000011  -0.000276  -0.000000  -0.000000
              19         20         21         22         23         24
     1  C   -0.000001  -0.000003   0.412284  -0.000005   0.000000  -0.000000
     2  C   -0.000000  -0.000000  -0.050956   0.000001   0.000000   0.000000
     3  C   -0.000013   0.000018  -0.051487   0.000187   0.000017  -0.000004
     4  C   -0.000003  -0.000001   0.012283  -0.000005  -0.000000   0.000000
     5  C   -0.000768  -0.000768   0.015065  -0.004819  -0.000092  -0.000093
     6  C    0.000018  -0.000013  -0.000016   0.000187  -0.000004   0.000017
     7  H    0.000000   0.000000  -0.006900  -0.000000  -0.000000  -0.000000
     8  H   -0.000001  -0.000042  -0.006113   0.000033   0.000000   0.000001
     9  H   -0.000000   0.000000  -0.000194  -0.000000   0.000000  -0.000000
    10  H   -0.000042  -0.000001   0.000034   0.000033   0.000001   0.000000
    11  C    0.010966   0.010974  -0.001731  -0.017088  -0.001952  -0.001954
    12  C   -0.004760   0.002864   0.000015   0.034483  -0.008933   0.013982
    13  C    0.002867  -0.004758   0.000030   0.034511   0.013973  -0.008928
    14  C    0.406879   0.001462  -0.000001  -0.068064   0.046038  -0.063575
    15  C    0.001452   0.406879  -0.000005  -0.068059  -0.063570   0.045998
    16  C   -0.098812  -0.098792  -0.000000   0.109158  -0.218350  -0.218423
    17  H   -0.005430   0.000051   0.000000  -0.000168   0.000082   0.000181
    18  H    0.000051  -0.005433   0.000009  -0.000169   0.000181   0.000081
    19  H    0.548397  -0.000240   0.000000  -0.001517   0.005210  -0.001092
    20  H   -0.000240   0.548436  -0.000000  -0.001557  -0.001085   0.005201
    21  H    0.000000  -0.000000   0.553054  -0.000000  -0.000000   0.000000
    22  C   -0.001517  -0.001557  -0.000000   6.716769  -0.000790   0.000090
    23  C    0.005210  -0.001085  -0.000000  -0.000790   6.041190  -0.207404
    24  C   -0.001092   0.005201   0.000000   0.000090  -0.207404   6.040609
    25  N    0.000028  -0.000093  -0.000000  -0.142623   0.550774  -0.085817
    26  N   -0.000091   0.000028  -0.000000  -0.142614  -0.085808   0.550644
    27  C   -0.000002  -0.001662  -0.000000   0.000003  -0.047467  -0.001905
    28  H    0.000000   0.000205   0.000000   0.005566  -0.001547  -0.001457
    29  H   -0.000019   0.000559  -0.000000   0.012507  -0.020032   0.018447
    30  H    0.000000   0.000244   0.000000  -0.003287   0.006819  -0.001126
    31  C    0.000004   0.000021  -0.000000  -0.012361  -0.058926  -0.006747
    32  H    0.000000   0.000011   0.000000   0.001044   0.008602  -0.001241
    33  H   -0.000000  -0.000001   0.000000  -0.002278  -0.003105   0.003110
    34  H   -0.000001   0.000000  -0.000000   0.007228  -0.013156   0.000010
    35  C   -0.001670  -0.000002  -0.000000  -0.000092  -0.001934  -0.047392
    36  H    0.000206   0.000000   0.000000   0.005555  -0.001451  -0.001474
    37  H    0.000557  -0.000019  -0.000000   0.012599   0.018462  -0.020054
    38  H    0.000243   0.000000   0.000000  -0.003292  -0.001133   0.006736
    39  C    0.000020   0.000004   0.000000  -0.012403  -0.006683  -0.059006
    40  H    0.000011   0.000000   0.000000   0.001037  -0.001229   0.008718
    41  H   -0.000001  -0.000000  -0.000000  -0.002279   0.003128  -0.003239
    42  H    0.000000  -0.000001  -0.000000   0.007145  -0.000087  -0.013197
              25         26         27         28         29         30
     1  C    0.000000  -0.000000   0.000000  -0.000000  -0.000000   0.000000
     2  C    0.000000   0.000000   0.000000  -0.000000   0.000000   0.000000
     3  C    0.000000   0.000000   0.000000  -0.000000   0.000003   0.000000
     4  C   -0.000000   0.000000  -0.000000   0.000000   0.000000  -0.000000
     5  C   -0.000000  -0.000000  -0.000004   0.000000  -0.000028   0.000000
     6  C    0.000000   0.000000  -0.000000  -0.000000   0.000000   0.000000
     7  H   -0.000000  -0.000000  -0.000000   0.000000   0.000000  -0.000000
     8  H   -0.000000   0.000000  -0.000001   0.000000   0.000004   0.000000
     9  H   -0.000000  -0.000000  -0.000000   0.000000  -0.000000   0.000000
    10  H    0.000000  -0.000000  -0.000000  -0.000000  -0.000000   0.000000
    11  C   -0.000025  -0.000025  -0.000063   0.000005  -0.000110   0.000000
    12  C   -0.000015   0.000187  -0.000016   0.000005   0.000182  -0.000004
    13  C    0.000186  -0.000015   0.000250  -0.000096  -0.000009   0.000039
    14  C    0.000138   0.000728   0.000000  -0.000034  -0.000802   0.000032
    15  C    0.000733   0.000141  -0.003603   0.000129   0.006715  -0.000130
    16  C   -0.013332  -0.013321  -0.014634  -0.000176  -0.020381   0.001035
    17  H    0.000000   0.000002  -0.000000   0.000000   0.000000  -0.000000
    18  H    0.000002   0.000000   0.000005  -0.000003  -0.000019   0.000000
    19  H    0.000028  -0.000091  -0.000002   0.000000  -0.000019   0.000000
    20  H   -0.000093   0.000028  -0.001662   0.000205   0.000559   0.000244
    21  H   -0.000000  -0.000000  -0.000000   0.000000  -0.000000   0.000000
    22  C   -0.142623  -0.142614   0.000003   0.005566   0.012507  -0.003287
    23  C    0.550774  -0.085808  -0.047467  -0.001547  -0.020032   0.006819
    24  C   -0.085817   0.550644  -0.001905  -0.001457   0.018447  -0.001126
    25  N    6.417155  -0.000937   0.227883  -0.035669  -0.024743  -0.041494
    26  N   -0.000937   6.417378  -0.000653   0.000002   0.000085  -0.000005
    27  C    0.227883  -0.000653   4.934450   0.407668   0.390216   0.408728
    28  H   -0.035669   0.000002   0.407668   0.509050  -0.017028  -0.030935
    29  H   -0.024743   0.000085   0.390216  -0.017028   0.517542  -0.021501
    30  H   -0.041494  -0.000005   0.408728  -0.030935  -0.021501   0.513674
    31  C    0.242210   0.000384  -0.060257  -0.009711   0.008406   0.001150
    32  H   -0.038552  -0.000014  -0.001640   0.005779   0.000450  -0.003067
    33  H   -0.038931  -0.000083  -0.006308  -0.000991  -0.000269   0.004961
    34  H   -0.026776  -0.001865   0.009509  -0.000085  -0.000506   0.000140
    35  C   -0.000654   0.227833   0.000013  -0.000002   0.000007  -0.000000
    36  H    0.000002  -0.035638  -0.000002  -0.000000  -0.000000   0.000000
    37  H    0.000086  -0.024799   0.000007  -0.000000  -0.000001   0.000000
    38  H   -0.000005  -0.041525  -0.000000   0.000000   0.000000  -0.000000
    39  C    0.000381   0.242070  -0.000151   0.000004   0.000029  -0.000004
    40  H   -0.000014  -0.038437   0.000000  -0.000000  -0.000001   0.000000
    41  H   -0.000084  -0.038980   0.000007   0.000001   0.000000  -0.000000
    42  H   -0.001843  -0.026656  -0.000007   0.000002   0.000005  -0.000001
              31         32         33         34         35         36
     1  C    0.000000  -0.000000   0.000000   0.000000  -0.000000   0.000000
     2  C    0.000000  -0.000000  -0.000000   0.000000   0.000000  -0.000000
     3  C    0.000000  -0.000000  -0.000000   0.000000  -0.000000  -0.000000
     4  C   -0.000000   0.000000  -0.000000  -0.000000   0.000000  -0.000000
     5  C   -0.000000   0.000000   0.000000  -0.000000  -0.000004   0.000000
     6  C   -0.000000   0.000000  -0.000000   0.000000   0.000000  -0.000000
     7  H   -0.000000   0.000000   0.000000   0.000000  -0.000000   0.000000
     8  H   -0.000000   0.000000  -0.000000  -0.000000  -0.000000  -0.000000
     9  H    0.000000   0.000000  -0.000000  -0.000000  -0.000000   0.000000
    10  H    0.000000  -0.000000   0.000000  -0.000000  -0.000001   0.000000
    11  C   -0.000001   0.000000  -0.000000   0.000000  -0.000063   0.000005
    12  C   -0.000005   0.000000  -0.000000  -0.000000   0.000252  -0.000096
    13  C    0.000018  -0.000002   0.000001   0.000001  -0.000016   0.000005
    14  C    0.000066  -0.000002   0.000001   0.000011  -0.003627   0.000128
    15  C   -0.000017   0.000003  -0.000018   0.000011   0.000002  -0.000034
    16  C   -0.002730   0.000002   0.000115  -0.000278  -0.014605  -0.000175
    17  H    0.000000   0.000000  -0.000000  -0.000000   0.000005  -0.000003
    18  H    0.000000  -0.000000   0.000000  -0.000000  -0.000000   0.000000
    19  H    0.000004   0.000000  -0.000000  -0.000001  -0.001670   0.000206
    20  H    0.000021   0.000011  -0.000001   0.000000  -0.000002   0.000000
    21  H   -0.000000   0.000000   0.000000  -0.000000  -0.000000   0.000000
    22  C   -0.012361   0.001044  -0.002278   0.007228  -0.000092   0.005555
    23  C   -0.058926   0.008602  -0.003105  -0.013156  -0.001934  -0.001451
    24  C   -0.006747  -0.001241   0.003110   0.000010  -0.047392  -0.001474
    25  N    0.242210  -0.038552  -0.038931  -0.026776  -0.000654   0.000002
    26  N    0.000384  -0.000014  -0.000083  -0.001865   0.227833  -0.035638
    27  C   -0.060257  -0.001640  -0.006308   0.009509   0.000013  -0.000002
    28  H   -0.009711   0.005779  -0.000991  -0.000085  -0.000002  -0.000000
    29  H    0.008406   0.000450  -0.000269  -0.000506   0.000007  -0.000000
    30  H    0.001150  -0.003067   0.004961   0.000140  -0.000000   0.000000
    31  C    4.937332   0.400159   0.416829   0.394054  -0.000154   0.000004
    32  H    0.400159   0.511276  -0.029092  -0.020301   0.000000  -0.000000
    33  H    0.416829  -0.029092   0.504746  -0.022997   0.000007   0.000001
    34  H    0.394054  -0.020301  -0.022997   0.535384  -0.000004   0.000002
    35  C   -0.000154   0.000000   0.000007  -0.000004   4.934481   0.407613
    36  H    0.000004  -0.000000   0.000001   0.000002   0.407613   0.508960
    37  H    0.000029  -0.000001   0.000000   0.000006   0.390189  -0.016994
    38  H   -0.000004   0.000000  -0.000000  -0.000001   0.408824  -0.030913
    39  C   -0.003392   0.000179  -0.000097  -0.002424  -0.060076  -0.009780
    40  H    0.000179  -0.000006   0.000013   0.000281  -0.001651   0.005759
    41  H   -0.000099   0.000014  -0.000019  -0.000201  -0.006282  -0.000977
    42  H   -0.002518   0.000281  -0.000190   0.002355   0.009485  -0.000081
              37         38         39         40         41         42
     1  C    0.000000  -0.000000  -0.000000   0.000000  -0.000000  -0.000000
     2  C    0.000000   0.000000   0.000000  -0.000000  -0.000000   0.000000
     3  C    0.000000   0.000000  -0.000000   0.000000  -0.000000   0.000000
     4  C   -0.000000   0.000000   0.000000  -0.000000   0.000000   0.000000
     5  C   -0.000028   0.000000  -0.000000   0.000000   0.000000  -0.000000
     6  C    0.000003   0.000000   0.000000  -0.000000  -0.000000   0.000000
     7  H    0.000000  -0.000000  -0.000000   0.000000   0.000000   0.000000
     8  H   -0.000000   0.000000   0.000000  -0.000000   0.000000  -0.000000
     9  H   -0.000000   0.000000  -0.000000   0.000000   0.000000  -0.000000
    10  H    0.000004   0.000000  -0.000000   0.000000  -0.000000  -0.000000
    11  C   -0.000110   0.000000  -0.000001   0.000000  -0.000000   0.000000
    12  C   -0.000012   0.000039   0.000018  -0.000002   0.000001   0.000000
    13  C    0.000182  -0.000004  -0.000005   0.000000  -0.000000  -0.000000
    14  C    0.006736  -0.000130  -0.000019   0.000003  -0.000018   0.000011
    15  C   -0.000804   0.000032   0.000066  -0.000002   0.000001   0.000011
    16  C   -0.020405   0.001036  -0.002732   0.000002   0.000115  -0.000276
    17  H   -0.000019   0.000000   0.000000  -0.000000   0.000000  -0.000000
    18  H    0.000000  -0.000000   0.000000   0.000000  -0.000000  -0.000000
    19  H    0.000557   0.000243   0.000020   0.000011  -0.000001   0.000000
    20  H   -0.000019   0.000000   0.000004   0.000000  -0.000000  -0.000001
    21  H   -0.000000   0.000000   0.000000   0.000000  -0.000000  -0.000000
    22  C    0.012599  -0.003292  -0.012403   0.001037  -0.002279   0.007145
    23  C    0.018462  -0.001133  -0.006683  -0.001229   0.003128  -0.000087
    24  C   -0.020054   0.006736  -0.059006   0.008718  -0.003239  -0.013197
    25  N    0.000086  -0.000005   0.000381  -0.000014  -0.000084  -0.001843
    26  N   -0.024799  -0.041525   0.242070  -0.038437  -0.038980  -0.026656
    27  C    0.000007  -0.000000  -0.000151   0.000000   0.000007  -0.000007
    28  H   -0.000000   0.000000   0.000004  -0.000000   0.000001   0.000002
    29  H   -0.000001   0.000000   0.000029  -0.000001   0.000000   0.000005
    30  H    0.000000  -0.000000  -0.000004   0.000000  -0.000000  -0.000001
    31  C    0.000029  -0.000004  -0.003392   0.000179  -0.000099  -0.002518
    32  H   -0.000001   0.000000   0.000179  -0.000006   0.000014   0.000281
    33  H    0.000000  -0.000000  -0.000097   0.000013  -0.000019  -0.000190
    34  H    0.000006  -0.000001  -0.002424   0.000281  -0.000201   0.002355
    35  C    0.390189   0.408824  -0.060076  -0.001651  -0.006282   0.009485
    36  H   -0.016994  -0.030913  -0.009780   0.005759  -0.000977  -0.000081
    37  H    0.517658  -0.021553   0.008391   0.000457  -0.000273  -0.000505
    38  H   -0.021553   0.513627   0.001236  -0.003081   0.004925   0.000138
    39  C    0.008391   0.001236   4.937797   0.399906   0.416991   0.394280
    40  H    0.000457  -0.003081   0.399906   0.511154  -0.028991  -0.020277
    41  H   -0.000273   0.004925   0.416991  -0.028991   0.504626  -0.023112
    42  H   -0.000505   0.000138   0.394280  -0.020277  -0.023112   0.535084
 Mulliken charges:
               1
     1  C   -0.091953
     2  C   -0.116532
     3  C   -0.119264
     4  C   -0.091951
     5  C   -0.002712
     6  C   -0.119267
     7  H    0.130690
     8  H    0.137833
     9  H    0.124627
    10  H    0.137833
    11  C    0.015839
    12  C   -0.156571
    13  C   -0.156576
    14  C   -0.099316
    15  C   -0.099348
    16  C    0.173261
    17  H    0.156625
    18  H    0.156618
    19  H    0.137554
    20  H    0.137513
    21  H    0.124627
    22  C   -0.464665
    23  C    0.050260
    24  C    0.050304
    25  N    0.012027
    26  N    0.011983
    27  C   -0.240364
    28  H    0.169318
    29  H    0.150291
    30  H    0.164733
    31  C   -0.243920
    32  H    0.166117
    33  H    0.174598
    34  H    0.139605
    35  C   -0.240483
    36  H    0.169381
    37  H    0.150209
    38  H    0.164806
    39  C   -0.244597
    40  H    0.166170
    41  H    0.174746
    42  H    0.139953
 Sum of Mulliken charges =   1.00000
 Mulliken charges with hydrogens summed into heavy atoms:
               1
     1  C    0.032674
     2  C    0.014158
     3  C    0.018569
     4  C    0.032676
     5  C   -0.002712
     6  C    0.018566
    11  C    0.015839
    12  C    0.000054
    13  C    0.000041
    14  C    0.038238
    15  C    0.038165
    16  C    0.173261
    22  C   -0.464665
    23  C    0.050260
    24  C    0.050304
    25  N    0.012027
    26  N    0.011983
    27  C    0.243978
    31  C    0.236400
    35  C    0.243912
    39  C    0.236272
 Electronic spatial extent (au):  <R**2>=           9905.0174
 Charge=              1.0000 electrons
 Dipole moment (field-independent basis, Debye):
    X=             11.6475    Y=              0.0004    Z=              0.0017  Tot=             11.6475
 Quadrupole moment (field-independent basis, Debye-Ang):
   XX=            -23.6075   YY=            -84.5566   ZZ=           -126.0919
   XY=              0.0018   XZ=              0.0060   YZ=             -0.3117
 Traceless Quadrupole moment (field-independent basis, Debye-Ang):
   XX=             54.4778   YY=             -6.4712   ZZ=            -48.0066
   XY=              0.0018   XZ=              0.0060   YZ=             -0.3117
 Octapole moment (field-independent basis, Debye-Ang**2):
  XXX=            192.8632  YYY=              0.0207  ZZZ=              0.0149  XYY=             91.4665
  XXY=              0.0079  XXZ=              0.0354  XZZ=             36.5764  YZZ=             -0.0062
  YYZ=             -0.0021  XYZ=             -6.2439
 Hexadecapole moment (field-independent basis, Debye-Ang**3):
 XXXX=          -7970.9552 YYYY=          -1726.5774 ZZZZ=           -224.8943 XXXY=              0.0711
 XXXZ=              0.0007 YYYX=              0.0952 YYYZ=             -0.8030 ZZZX=              0.0826
 ZZZY=              0.8166 XXYY=          -1637.6464 XXZZ=          -1988.6103 YYZZ=           -357.0331
 XXYZ=             58.7707 YYXZ=             -0.0392 ZZXY=             -0.0562
 N-N= 1.487460204840D+03 E-N=-4.918316927251D+03  KE= 8.408160411679D+02
 No NMR shielding tensors so no spin-rotation constants.
 Leave Link  601 at Thu Jan 21 03:48:47 2021, MaxMem=  4026531840 cpu:               2.3 elap:               0.3
 (Enter /opt/ohpc/pub/libs/gaussian/g16-A.03/sandybridge/g16/l9999.exe)

 Test job not archived.
 1\1\GINC-CASCADEB025\SP\RLC-wHPBE\TZVP\C19H21N2(1+)\RDU230\21-Jan-2021
 \0\\#P LC-wHPBE/TZVP iop(3/107=0197900000, 3/108=0197900000) scf=(conv
 er=6,fermi,ndamp=35,noincfock,novaracc,vshift=500,xqc)\\H21 C19 N2\\1,
 1\C,0,5.924302,-1.175178,0.28256\C,0,6.625626,0.000025,-0.000251\C,0,4
 .530324,-1.177472,0.278212\C,0,5.924206,1.175202,-0.282951\C,0,3.81093
 6,-0.000036,-0.000021\C,0,4.530233,1.177435,-0.278371\H,0,7.716547,0.0
 00056,-0.000331\H,0,3.994064,-2.094974,0.527939\H,0,6.466302,2.09321,-
 0.514746\H,0,3.99388,2.094904,-0.52801\C,0,2.333716,-0.000062,0.000109
 \C,0,1.604784,1.119278,0.452707\C,0,1.604752,-1.119433,-0.452341\C,0,0
 .21685,1.12577,0.449243\C,0,0.216813,-1.125977,-0.44867\C,0,-0.504919,
 -0.000106,0.000309\H,0,2.141671,1.985727,0.840835\H,0,2.141597,-1.9858
 91,-0.840507\H,0,-0.315693,1.995203,0.838189\H,0,-0.315745,-1.995465,-
 0.837475\H,0,6.466484,-2.093156,0.514265\C,0,-1.942874,-0.000086,0.000
 402\C,0,-3.143323,-0.702637,-0.003392\C,0,-3.143127,0.702801,0.003915\
 N,0,-3.78708,-1.855019,0.001668\N,0,-3.786774,1.855252,-0.001097\C,0,-
 3.068411,-3.12252,0.167733\H,0,-3.187886,-3.74858,-0.728596\H,0,-2.005
 788,-2.927607,0.341041\H,0,-3.471162,-3.663551,1.036238\C,0,-5.245121,
 -1.94416,-0.100275\H,0,-5.509149,-2.713998,-0.838669\H,0,-5.688951,-2.
 217262,0.869111\H,0,-5.659251,-0.989594,-0.439085\C,0,-3.068047,3.1226
 16,-0.16813\H,0,-3.188116,3.749602,0.727455\H,0,-2.005304,2.927538,-0.
 340531\H,0,-3.470192,3.662707,-1.037509\C,0,-5.24495,1.944232,0.099391
 \H,0,-5.509538,2.71844,0.832954\H,0,-5.688631,2.211256,-0.871774\H,0,-
 5.658779,0.991638,0.444142\\Version=EM64L-G16RevA.03\State=1-A\HF=-845
 .3628391\RMSD=6.566e-07\Dipole=-4.5824947,0.0001642,-0.0006538\Quadrup
 ole=40.502914,-4.8112138,-35.6917002,-0.0013328,0.004425,0.2317212\PG=
 C01 [X(C19H21N2)]\\@


 The earth never tires,
 The earth is rude, silent, incomprehensible at first,
 Nature is rude and incomprehensible at first,
 Be not discouraged, keep on,
 There are divine things well envelop'd,
 I swear to you there are divine things more beautiful than words can tell.
                                 -- Walt Whitman
 Job cpu time:       0 days  1 hours  0 minutes 28.0 seconds.
 Elapsed time:       0 days  0 hours  7 minutes 35.1 seconds.
 File lengths (MBytes):  RWF=    136 Int=      0 D2E=      0 Chk=     24 Scr=      8
 Normal termination of Gaussian 16 at Thu Jan 21 03:48:47 2021.
