 Entering Gaussian System, Link 0=g16
 Input=mol_bp_cp_half_tune_n1.gjf
 Output=mol_bp_cp_half_tune_n1.log
 Initial command:
 /opt/ohpc/pub/libs/gaussian/g16-A.03/sandybridge/g16/l1.exe "/mnt/gpfs2_4m/scratch/rdu230/ondemand/projects/init_structures/wtuning/mol_bp_cp_half/tuning_mol_bp_cp_half_ocycle0/Gau-234383.inp" -scrdir="/mnt/gpfs2_4m/scratch/rdu230/ondemand/projects/init_structures/wtuning/mol_bp_cp_half/tuning_mol_bp_cp_half_ocycle0/"
 Entering Link 1 = /opt/ohpc/pub/libs/gaussian/g16-A.03/sandybridge/g16/l1.exe PID=    234384.
  
 Copyright (c) 1988,1990,1992,1993,1995,1998,2003,2009,2016,
            Gaussian, Inc.  All Rights Reserved.
  
 This is part of the Gaussian(R) 16 program.  It is based on
 the Gaussian(R) 09 system (copyright 2009, Gaussian, Inc.),
 the Gaussian(R) 03 system (copyright 2003, Gaussian, Inc.),
 the Gaussian(R) 98 system (copyright 1998, Gaussian, Inc.),
 the Gaussian(R) 94 system (copyright 1995, Gaussian, Inc.),
 the Gaussian 92(TM) system (copyright 1992, Gaussian, Inc.),
 the Gaussian 90(TM) system (copyright 1990, Gaussian, Inc.),
 the Gaussian 88(TM) system (copyright 1988, Gaussian, Inc.),
 the Gaussian 86(TM) system (copyright 1986, Carnegie Mellon
 University), and the Gaussian 82(TM) system (copyright 1983,
 Carnegie Mellon University). Gaussian is a federally registered
 trademark of Gaussian, Inc.
  
 This software contains proprietary and confidential information,
 including trade secrets, belonging to Gaussian, Inc.
  
 This software is provided under written license and may be
 used, copied, transmitted, or stored only in accord with that
 written license.
  
 The following legend is applicable only to US Government
 contracts under FAR:
  
                    RESTRICTED RIGHTS LEGEND
  
 Use, reproduction and disclosure by the US Government is
 subject to restrictions as set forth in subparagraphs (a)
 and (c) of the Commercial Computer Software - Restricted
 Rights clause in FAR 52.227-19.
  
 Gaussian, Inc.
 340 Quinnipiac St., Bldg. 40, Wallingford CT 06492
  
  
 ---------------------------------------------------------------
 Warning -- This program may not be used in any manner that
 competes with the business of Gaussian, Inc. or will provide
 assistance to any competitor of Gaussian, Inc.  The licensee
 of this program is prohibited from giving any competitor of
 Gaussian, Inc. access to this program.  By using this program,
 the user acknowledges that Gaussian, Inc. is engaged in the
 business of creating and licensing software in the field of
 computational chemistry and represents and warrants to the
 licensee that it is not a competitor of Gaussian, Inc. and that
 it will not use this program in any manner prohibited above.
 ---------------------------------------------------------------
  

 Cite this work as:
 Gaussian 16, Revision A.03,
 M. J. Frisch, G. W. Trucks, H. B. Schlegel, G. E. Scuseria, 
 M. A. Robb, J. R. Cheeseman, G. Scalmani, V. Barone, 
 G. A. Petersson, H. Nakatsuji, X. Li, M. Caricato, A. V. Marenich, 
 J. Bloino, B. G. Janesko, R. Gomperts, B. Mennucci, H. P. Hratchian, 
 J. V. Ortiz, A. F. Izmaylov, J. L. Sonnenberg, D. Williams-Young, 
 F. Ding, F. Lipparini, F. Egidi, J. Goings, B. Peng, A. Petrone, 
 T. Henderson, D. Ranasinghe, V. G. Zakrzewski, J. Gao, N. Rega, 
 G. Zheng, W. Liang, M. Hada, M. Ehara, K. Toyota, R. Fukuda, 
 J. Hasegawa, M. Ishida, T. Nakajima, Y. Honda, O. Kitao, H. Nakai, 
 T. Vreven, K. Throssell, J. A. Montgomery, Jr., J. E. Peralta, 
 F. Ogliaro, M. J. Bearpark, J. J. Heyd, E. N. Brothers, K. N. Kudin, 
 V. N. Staroverov, T. A. Keith, R. Kobayashi, J. Normand, 
 K. Raghavachari, A. P. Rendell, J. C. Burant, S. S. Iyengar, 
 J. Tomasi, M. Cossi, J. M. Millam, M. Klene, C. Adamo, R. Cammi, 
 J. W. Ochterski, R. L. Martin, K. Morokuma, O. Farkas, 
 J. B. Foresman, and D. J. Fox, Gaussian, Inc., Wallingford CT, 2016.
 
 ******************************************
 Gaussian 16:  EM64L-G16RevA.03 25-Dec-2016
                21-Jan-2021 
 ******************************************
 %mem=30GB
 %nproc=8
 Will use up to    8 processors via shared memory.
 ----------------------------------------------------------------------
 #P LC-wHPBE/TZVP iop(3/107=0328100000, 3/108=0328100000) scf=(conver=6
 ,fermi,ndamp=35,noincfock,novaracc,vshift=500,xqc)
 ----------------------------------------------------------------------
 1/38=1,172=1/1;
 2/12=2,17=6,18=5,40=1/2;
 3/5=19,7=101,11=2,25=1,30=1,74=-71,107=328100000,108=328100000/1,2,3;
 4//1;
 5/5=100002,6=6,8=3,10=500,13=1,18=-1,22=13,38=1,93=35/2,8;
 6/7=2,8=2,9=2,10=2,28=1/1;
 99/5=1,9=1/99;
 Leave Link    1 at Thu Jan 21 00:40:08 2021, MaxMem=  4026531840 cpu:               1.3 elap:               0.2
 (Enter /opt/ohpc/pub/libs/gaussian/g16-A.03/sandybridge/g16/l101.exe)
 ----------
 H21 C19 N2
 ----------
 Symbolic Z-matrix:
 Charge =  1 Multiplicity = 1
 C                     5.9243   -1.17518   0.28256 
 C                     6.62563   0.00003  -0.00025 
 C                     4.53032  -1.17747   0.27821 
 C                     5.92421   1.1752   -0.28295 
 C                     3.81094  -0.00004  -0.00002 
 C                     4.53023   1.17744  -0.27837 
 H                     7.71655   0.00006  -0.00033 
 H                     3.99406  -2.09497   0.52794 
 H                     6.4663    2.09321  -0.51475 
 H                     3.99388   2.0949   -0.52801 
 C                     2.33372  -0.00006   0.00011 
 C                     1.60478   1.11928   0.45271 
 C                     1.60475  -1.11943  -0.45234 
 C                     0.21685   1.12577   0.44924 
 C                     0.21681  -1.12598  -0.44867 
 C                    -0.50492  -0.00011   0.00031 
 H                     2.14167   1.98573   0.84084 
 H                     2.1416   -1.98589  -0.84051 
 H                    -0.31569   1.9952    0.83819 
 H                    -0.31575  -1.99547  -0.83748 
 H                     6.46648  -2.09316   0.51427 
 C                    -1.94287  -0.00009   0.0004 
 C                    -3.14332  -0.70264  -0.00339 
 C                    -3.14313   0.7028    0.00392 
 N                    -3.78708  -1.85502   0.00167 
 N                    -3.78677   1.85525  -0.0011 
 C                    -3.06841  -3.12252   0.16773 
 H                    -3.18789  -3.74858  -0.7286 
 H                    -2.00579  -2.92761   0.34104 
 H                    -3.47116  -3.66355   1.03624 
 C                    -5.24512  -1.94416  -0.10028 
 H                    -5.50915  -2.714    -0.83867 
 H                    -5.68895  -2.21726   0.86911 
 H                    -5.65925  -0.98959  -0.43909 
 C                    -3.06805   3.12262  -0.16813 
 H                    -3.18812   3.7496    0.72746 
 H                    -2.0053    2.92754  -0.34053 
 H                    -3.47019   3.66271  -1.03751 
 C                    -5.24495   1.94423   0.09939 
 H                    -5.50954   2.71844   0.83295 
 H                    -5.68863   2.21126  -0.87177 
 H                    -5.65878   0.99164   0.44414 
 
 ITRead=  0  0  0  0  0  0  0  0  0  0  0  0  0  0  0  0  0  0  0  0
 ITRead=  0  0  0  0  0  0  0  0  0  0  0  0  0  0  0  0  0  0  0  0
 ITRead=  0  0
 MicOpt= -1 -1 -1 -1 -1 -1 -1 -1 -1 -1 -1 -1 -1 -1 -1 -1 -1 -1 -1 -1
 MicOpt= -1 -1 -1 -1 -1 -1 -1 -1 -1 -1 -1 -1 -1 -1 -1 -1 -1 -1 -1 -1
 MicOpt= -1 -1
 NAtoms=     42 NQM=       42 NQMF=       0 NMMI=      0 NMMIF=      0
                NMic=       0 NMicF=      0.
                    Isotopes and Nuclear Properties:
 (Nuclear quadrupole moments (NQMom) in fm**2, nuclear magnetic moments (NMagM)
  in nuclear magnetons)

  Atom         1           2           3           4           5           6           7           8           9          10
 IAtWgt=          12          12          12          12          12          12           1           1           1           1
 AtmWgt=  12.0000000  12.0000000  12.0000000  12.0000000  12.0000000  12.0000000   1.0078250   1.0078250   1.0078250   1.0078250
 NucSpn=           0           0           0           0           0           0           1           1           1           1
 AtZEff=  -0.0000000  -0.0000000  -0.0000000  -0.0000000  -0.0000000  -0.0000000  -0.0000000  -0.0000000  -0.0000000  -0.0000000
 NQMom=    0.0000000   0.0000000   0.0000000   0.0000000   0.0000000   0.0000000   0.0000000   0.0000000   0.0000000   0.0000000
 NMagM=    0.0000000   0.0000000   0.0000000   0.0000000   0.0000000   0.0000000   2.7928460   2.7928460   2.7928460   2.7928460
 AtZNuc=   6.0000000   6.0000000   6.0000000   6.0000000   6.0000000   6.0000000   1.0000000   1.0000000   1.0000000   1.0000000

  Atom        11          12          13          14          15          16          17          18          19          20
 IAtWgt=          12          12          12          12          12          12           1           1           1           1
 AtmWgt=  12.0000000  12.0000000  12.0000000  12.0000000  12.0000000  12.0000000   1.0078250   1.0078250   1.0078250   1.0078250
 NucSpn=           0           0           0           0           0           0           1           1           1           1
 AtZEff=  -0.0000000  -0.0000000  -0.0000000  -0.0000000  -0.0000000  -0.0000000  -0.0000000  -0.0000000  -0.0000000  -0.0000000
 NQMom=    0.0000000   0.0000000   0.0000000   0.0000000   0.0000000   0.0000000   0.0000000   0.0000000   0.0000000   0.0000000
 NMagM=    0.0000000   0.0000000   0.0000000   0.0000000   0.0000000   0.0000000   2.7928460   2.7928460   2.7928460   2.7928460
 AtZNuc=   6.0000000   6.0000000   6.0000000   6.0000000   6.0000000   6.0000000   1.0000000   1.0000000   1.0000000   1.0000000

  Atom        21          22          23          24          25          26          27          28          29          30
 IAtWgt=           1          12          12          12          14          14          12           1           1           1
 AtmWgt=   1.0078250  12.0000000  12.0000000  12.0000000  14.0030740  14.0030740  12.0000000   1.0078250   1.0078250   1.0078250
 NucSpn=           1           0           0           0           2           2           0           1           1           1
 AtZEff=  -0.0000000  -0.0000000  -0.0000000  -0.0000000  -0.0000000  -0.0000000  -0.0000000  -0.0000000  -0.0000000  -0.0000000
 NQMom=    0.0000000   0.0000000   0.0000000   0.0000000   2.0440000   2.0440000   0.0000000   0.0000000   0.0000000   0.0000000
 NMagM=    2.7928460   0.0000000   0.0000000   0.0000000   0.4037610   0.4037610   0.0000000   2.7928460   2.7928460   2.7928460
 AtZNuc=   1.0000000   6.0000000   6.0000000   6.0000000   7.0000000   7.0000000   6.0000000   1.0000000   1.0000000   1.0000000

  Atom        31          32          33          34          35          36          37          38          39          40
 IAtWgt=          12           1           1           1          12           1           1           1          12           1
 AtmWgt=  12.0000000   1.0078250   1.0078250   1.0078250  12.0000000   1.0078250   1.0078250   1.0078250  12.0000000   1.0078250
 NucSpn=           0           1           1           1           0           1           1           1           0           1
 AtZEff=  -0.0000000  -0.0000000  -0.0000000  -0.0000000  -0.0000000  -0.0000000  -0.0000000  -0.0000000  -0.0000000  -0.0000000
 NQMom=    0.0000000   0.0000000   0.0000000   0.0000000   0.0000000   0.0000000   0.0000000   0.0000000   0.0000000   0.0000000
 NMagM=    0.0000000   2.7928460   2.7928460   2.7928460   0.0000000   2.7928460   2.7928460   2.7928460   0.0000000   2.7928460
 AtZNuc=   6.0000000   1.0000000   1.0000000   1.0000000   6.0000000   1.0000000   1.0000000   1.0000000   6.0000000   1.0000000

  Atom        41          42
 IAtWgt=           1           1
 AtmWgt=   1.0078250   1.0078250
 NucSpn=           1           1
 AtZEff=  -0.0000000  -0.0000000
 NQMom=    0.0000000   0.0000000
 NMagM=    2.7928460   2.7928460
 AtZNuc=   1.0000000   1.0000000
 Leave Link  101 at Thu Jan 21 00:40:08 2021, MaxMem=  4026531840 cpu:               0.7 elap:               0.1
 (Enter /opt/ohpc/pub/libs/gaussian/g16-A.03/sandybridge/g16/l202.exe)
                          Input orientation:                          
 ---------------------------------------------------------------------
 Center     Atomic      Atomic             Coordinates (Angstroms)
 Number     Number       Type             X           Y           Z
 ---------------------------------------------------------------------
      1          6           0        5.924302   -1.175178    0.282560
      2          6           0        6.625626    0.000025   -0.000251
      3          6           0        4.530324   -1.177472    0.278212
      4          6           0        5.924206    1.175202   -0.282951
      5          6           0        3.810936   -0.000036   -0.000021
      6          6           0        4.530233    1.177435   -0.278371
      7          1           0        7.716547    0.000056   -0.000331
      8          1           0        3.994064   -2.094974    0.527939
      9          1           0        6.466302    2.093210   -0.514746
     10          1           0        3.993880    2.094904   -0.528010
     11          6           0        2.333716   -0.000062    0.000109
     12          6           0        1.604784    1.119278    0.452707
     13          6           0        1.604752   -1.119433   -0.452341
     14          6           0        0.216850    1.125770    0.449243
     15          6           0        0.216813   -1.125977   -0.448670
     16          6           0       -0.504919   -0.000106    0.000309
     17          1           0        2.141671    1.985727    0.840835
     18          1           0        2.141597   -1.985891   -0.840507
     19          1           0       -0.315693    1.995203    0.838189
     20          1           0       -0.315745   -1.995465   -0.837475
     21          1           0        6.466484   -2.093156    0.514265
     22          6           0       -1.942874   -0.000086    0.000402
     23          6           0       -3.143323   -0.702637   -0.003392
     24          6           0       -3.143127    0.702801    0.003915
     25          7           0       -3.787080   -1.855019    0.001668
     26          7           0       -3.786774    1.855252   -0.001097
     27          6           0       -3.068411   -3.122520    0.167733
     28          1           0       -3.187886   -3.748580   -0.728596
     29          1           0       -2.005788   -2.927607    0.341041
     30          1           0       -3.471162   -3.663551    1.036238
     31          6           0       -5.245121   -1.944160   -0.100275
     32          1           0       -5.509149   -2.713998   -0.838669
     33          1           0       -5.688951   -2.217262    0.869111
     34          1           0       -5.659251   -0.989594   -0.439085
     35          6           0       -3.068047    3.122616   -0.168130
     36          1           0       -3.188116    3.749602    0.727455
     37          1           0       -2.005304    2.927538   -0.340531
     38          1           0       -3.470192    3.662707   -1.037509
     39          6           0       -5.244950    1.944232    0.099391
     40          1           0       -5.509538    2.718440    0.832954
     41          1           0       -5.688631    2.211256   -0.871774
     42          1           0       -5.658779    0.991638    0.444142
 ---------------------------------------------------------------------
                    Distance matrix (angstroms):
                    1          2          3          4          5
     1  C    0.000000
     2  C    1.397476   0.000000
     3  C    1.393987   2.419573   0.000000
     4  C    2.417455   1.397480   2.791574   0.000000
     5  C    2.434569   2.814690   1.407582   2.434573   0.000000
     6  C    2.791569   2.419570   2.419788   1.393982   1.407588
     7  H    2.161792   1.090921   3.408251   2.161788   3.905611
     8  H    2.152221   3.404868   1.091672   3.882917   2.168189
     9  H    3.407612   2.161368   3.882545   1.091025   3.420174
    10  H    3.882910   3.404869   3.412655   2.152223   2.168182
    11  C    3.788533   4.291910   2.507733   3.788534   1.477220
    12  C    4.894049   5.163986   3.723479   4.381977   2.514942
    13  C    4.381974   5.163986   3.015965   4.894050   2.514934
    14  C    6.156066   6.522404   4.892876   5.754343   3.792985
    15  C    5.754350   6.522411   4.374630   6.156072   3.792987
    16  C    6.541815   7.130545   5.178522   6.541807   4.315855
    17  H    4.960977   4.975569   4.003503   4.028327   2.727039
    18  H    4.028324   4.975581   2.758820   4.960999   2.727037
    19  H    7.021223   7.270875   5.819220   6.392628   4.659683
    20  H    6.392616   7.270870   5.039668   7.021226   4.659674
    21  H    1.091023   2.161356   2.154742   3.407607   3.420172
    22  C    7.959454   8.568500   6.585265   7.959431   5.753810
    23  C    9.084431   9.794187   7.693480   9.264152   6.989662
    24  C    9.264055   9.794001   7.905221   9.084161   6.989491
    25  N    9.739200  10.576655   8.349536  10.177049   7.821177
    26  N   10.176884  10.576386   8.857175   9.738842   7.820952
    27  C    9.201859  10.185915   7.844501   9.977008   7.556683
    28  H    9.522437  10.530315   8.197257  10.366892   7.972823
    29  H    8.121623   9.120790   6.766659   8.950263   6.520834
    30  H    9.748578  10.790794   8.413024  10.650199   8.217307
    31  C   11.202406  12.029318   9.812767  11.598175   9.262928
    32  H   11.590898  12.462810  10.217600  12.089512   9.743352
    33  H   11.674657  12.542765  10.289019  12.153250   9.793842
    34  H   11.607494  12.332482  10.216519  11.785041   9.531865
    35  C    9.976798  10.185581   8.742152   9.201425   7.556429
    36  H   10.367620  10.530832   9.167998   9.522755   7.973439
    37  H    8.949814   9.120256   7.742634   8.121030   6.520375
    38  H   10.649142  10.789656   9.442813   9.747397   8.216258
    39  C   11.598123  12.029150  10.263186  11.202127   9.262782
    40  H   12.091149  12.463796  10.783538  11.591261   9.744496
    41  H   12.151569  12.541532  10.827418  11.673821   9.792423
    42  H   11.785116  12.332372  10.418752  11.607235   9.531852
                    6          7          8          9         10
     6  C    0.000000
     7  H    3.408244   0.000000
     8  H    3.412664   4.304079   0.000000
     9  H    2.154734   2.491792   4.973936   0.000000
    10  H    1.091670   4.304077   4.320892   2.472458   0.000000
    11  C    2.507735   5.382831   2.724705   4.661022   2.724690
    12  C    3.015976   6.229892   4.005713   5.051620   2.760694
    13  C    3.723481   6.229896   2.760696   5.827490   4.005699
    14  C    4.374627   7.597026   4.964547   6.396942   4.019975
    15  C    4.892883   7.597037   4.019993   7.030195   4.964535
    16  C    5.178515   8.221466   4.990763   7.296929   4.990729
    17  H    2.758838   5.977432   4.492370   4.533386   2.305718
    18  H    4.003525   5.977453   2.305684   5.953844   4.492382
    19  H    5.039687   8.318690   5.949774   6.916321   4.522042
    20  H    5.819226   8.318692   4.522025   7.925754   5.949769
    21  H    3.882539   2.491787   2.472458   4.310977   4.973927
    22  C    6.585240   9.659421   6.317759   8.681101   6.317693
    23  C    7.905299  10.882581   7.291310  10.021134   7.683822
    24  C    7.693206  10.882389   7.683856   9.723342   7.290937
    25  N    8.857307  11.652242   7.802611  10.999411   8.742184
    26  N    8.349187  11.651959   8.742174  10.268692   7.802157
    27  C    8.742312  11.229160   7.145919  10.889461   8.808038
    28  H    9.167207  11.553757   7.476209  11.286079   9.260902
    29  H    7.743036  10.159308   6.060234   9.885205   7.872540
    30  H    9.443816  11.817839   7.645155  11.588746   9.556858
    31  C   10.263217  13.107052   9.261746  12.394740  10.092380
    32  H   10.781761  13.527303   9.620908  12.908354  10.655027
    33  H   10.829238  13.615425   9.689795  12.970945  10.691302
    34  H   10.418610  13.419534   9.764399  12.511532  10.134346
    35  C    7.844090  11.228802   8.808017   9.596022   7.145384
    36  H    8.197600  11.554239   9.261889   9.873930   7.476315
    37  H    6.766090  10.158754   7.872248   8.514374   6.059590
    38  H    8.411877  11.816678   9.555974  10.073257   7.643950
    39  C    9.812486  13.106875  10.092483  11.728290   9.261334
    40  H   10.217962  13.528241  10.657412  12.067641   9.620602
    41  H   10.288153  13.614243  10.689125  12.160748   9.689310
    42  H   10.216287  13.419394  10.134672  12.212719   9.764021
                   11         12         13         14         15
    11  C    0.000000
    12  C    1.410358   0.000000
    13  C    1.410351   2.414734   0.000000
    14  C    2.439332   1.387954   2.789276   0.000000
    15  C    2.439337   2.789286   1.387959   2.424172   0.000000
    16  C    2.838635   2.430747   2.430740   1.410705   1.410697
    17  H    2.164962   1.090699   3.406260   2.144250   3.879511
    18  H    2.164962   3.406266   1.090699   3.879503   2.144244
    19  H    3.420940   2.145710   3.880017   1.091235   3.417797
    20  H    3.420939   3.880029   2.145709   3.417808   1.091236
    21  H    4.661027   5.827491   5.051624   7.030195   6.396958
    22  C    4.276590   3.747457   3.747474   2.476574   2.476599
    23  C    5.521918   5.106067   4.787430   3.852105   3.415846
    24  C    5.521761   4.787225   5.105983   3.415650   3.852072
    25  N    6.395703   6.174308   5.460683   5.011675   4.094565
    26  N    6.395513   5.460448   6.174214   4.094381   5.011662
    27  C    6.241860   6.317659   5.122041   5.377746   3.893435
    28  H    6.713456   6.932619   5.473400   6.061256   4.306783
    29  H    5.245765   5.424572   4.115209   4.624034   2.968075
    30  H    6.941997   6.998656   5.869694   6.073186   4.716502
    31  C    7.824856   7.524071   6.908320   6.289640   5.533853
    32  H    8.341434   8.183502   7.300649   7.013530   5.954876
    33  H    8.368651   8.031467   7.493301   6.799312   6.148618
    34  H    8.065952   7.616353   7.265175   6.308126   5.877654
    35  C    6.241672   5.121928   6.317500   3.893468   5.377690
    36  H    6.714137   5.474119   6.933326   4.307632   6.062020
    37  H    5.245376   4.114823   5.424295   2.967841   4.623903
    38  H    6.941028   5.869000   6.997595   4.716011   6.072251
    39  C    7.824725   6.908273   7.523887   5.533854   6.289468
    40  H    8.342692   7.301745   8.185009   5.956119   7.015212
    41  H    8.367088   7.492701   8.028876   6.148014   6.796353
    42  H    8.066016   7.264689   7.617033   5.877162   6.309040
                   16         17         18         19         20
    16  C    0.000000
    17  H    3.413862   0.000000
    18  H    3.413848   4.312848   0.000000
    19  H    2.172351   2.457384   4.970453   0.000000
    20  H    2.172355   4.970464   2.457363   4.328196   0.000000
    21  H    7.296949   5.953817   4.533383   7.925751   6.916312
    22  C    1.437955   4.618797   4.618815   2.707542   2.707605
    23  C    2.730337   5.989256   5.502534   3.997761   3.219052
    24  C    2.730244   5.502311   5.989192   3.218804   3.997833
    25  N    3.770051   7.113763   5.989624   5.251143   3.574081
    26  N    3.770004   5.989352   7.113689   3.573848   5.251247
    27  C    4.043389   7.327497   5.427030   5.849620   3.139724
    28  H    4.666977   7.984333   5.614533   6.610246   3.366669
    29  H    3.307411   6.449191   4.414033   5.228540   2.261423
    30  H    4.826238   7.965954   6.151405   6.482107   4.031125
    31  C    5.124351   8.419881   7.423832   6.379542   4.984460
    32  H    5.754252   9.134725   7.685314   7.208357   5.242875
    33  H    5.704804   8.887326   8.018342   6.827717   5.642072
    34  H    5.266810   8.446604   7.874451   6.252524   5.451931
    35  C    4.043438   5.426941   7.327300   3.139935   5.849610
    36  H    4.667826   5.615224   7.985000   3.367639   6.611000
    37  H    3.307329   4.413619   6.448918   2.261286   5.228530
    38  H    4.825568   6.150890   7.964775   4.031089   6.481162
    39  C    5.124272   7.423856   8.419641   4.984576   6.379341
    40  H    5.755867   7.686217   9.136250   5.243961   7.210182
    41  H    5.702764   8.018574   8.884227   5.642616   6.823898
    42  H    5.267145   7.873538   8.447595   5.450778   6.254066
                   21         22         23         24         25
    21  H    0.000000
    22  C    8.681146   0.000000
    23  C    9.723677   1.390924   0.000000
    24  C   10.021101   1.390924   1.405457   0.000000
    25  N   10.269130   2.615698   1.320012   2.637636   0.000000
    26  N   10.999310   2.615769   2.637580   1.320019   3.710272
    27  C    9.596557   3.323316   2.427082   3.829556   1.466500
    28  H    9.873803   4.016553   3.131402   4.511471   2.116103
    29  H    8.515028   2.947944   2.522521   3.819300   2.106803
    30  H   10.074493   4.102389   3.155205   4.498703   2.107351
    31  C   11.728664   3.833327   2.443015   3.381662   1.464316
    32  H   12.067794   4.559350   3.215648   4.240581   2.099889
    33  H   12.161247   4.438876   3.087972   3.969452   2.121507
    34  H   12.213115   3.870883   2.569449   3.064528   2.109087
    35  C   10.889317   3.323505   3.829539   2.427085   5.032166
    36  H   11.286920   4.017386   4.512048   3.131857   5.683071
    37  H    9.884798   2.948070   3.819283   2.522447   5.115142
    38  H   11.587730   4.101952   4.498052   3.154771   5.623665
    39  C   12.394769   3.833259   3.381319   2.442934   4.070533
    40  H   12.910388   4.561208   4.242902   3.217143   4.957260
    41  H   12.969036   4.436375   3.965281   3.085751   4.573116
    42  H   12.511709   3.871482   3.065677   2.570162   3.435476
                   26         27         28         29         30
    26  N    0.000000
    27  C    5.032173   0.000000
    28  H    5.682504   1.099832   0.000000
    29  H    5.115145   1.094164   1.793175   0.000000
    30  H    5.624310   1.099647   1.789445   1.781076   0.000000
    31  C    4.070890   2.489664   2.807656   3.413972   2.719356
    32  H    4.954407   2.671505   2.543765   3.702821   2.927511
    33  H    4.578309   2.859834   3.339600   3.788026   2.652974
    34  H    3.433825   3.410286   3.715302   4.208596   3.756908
    35  C    1.466520   6.254161   6.895058   6.163834   6.903989
    36  H    2.116067   6.895918   7.638247   6.792079   7.424978
    37  H    2.106810   6.163743   6.791145   5.894681   6.891058
    38  H    2.107432   6.903140   7.423092   6.890364   7.614098
    39  C    1.464340   5.514886   6.109434   5.855372   5.955773
    40  H    2.099679   6.365409   7.046336   6.663039   6.702694
    41  H    2.121763   6.032851   6.464818   6.437559   6.562853
    42  H    2.109140   4.869569   5.472686   5.358680   5.177551
                   31         32         33         34         35
    31  C    0.000000
    32  H    1.098903   0.000000
    33  H    1.100581   1.787621   0.000000
    34  H    1.094300   1.776448   1.794276   0.000000
    35  C    5.515113   6.361970   6.038154   4.868062   0.000000
    36  H    6.110264   7.044009   6.471299   5.470585   1.099818
    37  H    5.855560   6.659730   6.442162   5.357701   1.094166
    38  H    5.955312   6.697705   6.567505   5.176292   1.099654
    39  C    3.893515   4.759082   4.255307   3.011468   2.489792
    40  H    4.762423   5.683811   4.939094   3.923011   2.669533
    41  H    4.249635   4.928634   4.758409   3.230097   2.862368
    42  H    3.014368   3.924249   3.237059   2.169187   3.409961
                   36         37         38         39         40
    36  H    0.000000
    37  H    1.793161   0.000000
    38  H    1.789474   1.781053   0.000000
    39  C    2.807916   3.414049   2.719460   0.000000
    40  H    2.542327   3.701411   2.923902   1.098872   0.000000
    41  H    3.343145   3.789746   2.656247   1.100598   1.787570
    42  H    3.713598   4.208480   3.757634   1.094323   1.776314
                   41         42
    41  H    0.000000
    42  H    1.794434   0.000000
 Stoichiometry    C19H21N2(1+)
 Framework group  C1[X(C19H21N2)]
 Deg. of freedom   120
 Full point group                 C1      NOp   1
 Largest Abelian subgroup         C1      NOp   1
 Largest concise Abelian subgroup C1      NOp   1
                         Standard orientation:                         
 ---------------------------------------------------------------------
 Center     Atomic      Atomic             Coordinates (Angstroms)
 Number     Number       Type             X           Y           Z
 ---------------------------------------------------------------------
      1          6           0       -5.924302   -1.175178   -0.282560
      2          6           0       -6.625626    0.000025    0.000251
      3          6           0       -4.530324   -1.177472   -0.278212
      4          6           0       -5.924206    1.175202    0.282951
      5          6           0       -3.810936   -0.000036    0.000021
      6          6           0       -4.530233    1.177435    0.278371
      7          1           0       -7.716547    0.000056    0.000331
      8          1           0       -3.994064   -2.094974   -0.527939
      9          1           0       -6.466302    2.093210    0.514746
     10          1           0       -3.993880    2.094904    0.528010
     11          6           0       -2.333716   -0.000062   -0.000109
     12          6           0       -1.604784    1.119278   -0.452707
     13          6           0       -1.604752   -1.119433    0.452341
     14          6           0       -0.216850    1.125770   -0.449243
     15          6           0       -0.216813   -1.125977    0.448670
     16          6           0        0.504919   -0.000106   -0.000309
     17          1           0       -2.141671    1.985727   -0.840835
     18          1           0       -2.141597   -1.985891    0.840507
     19          1           0        0.315693    1.995203   -0.838189
     20          1           0        0.315745   -1.995465    0.837475
     21          1           0       -6.466484   -2.093156   -0.514265
     22          6           0        1.942874   -0.000086   -0.000402
     23          6           0        3.143323   -0.702637    0.003392
     24          6           0        3.143127    0.702801   -0.003915
     25          7           0        3.787080   -1.855019   -0.001668
     26          7           0        3.786774    1.855252    0.001097
     27          6           0        3.068411   -3.122520   -0.167733
     28          1           0        3.187886   -3.748580    0.728596
     29          1           0        2.005788   -2.927607   -0.341041
     30          1           0        3.471162   -3.663551   -1.036238
     31          6           0        5.245121   -1.944160    0.100275
     32          1           0        5.509149   -2.713998    0.838669
     33          1           0        5.688951   -2.217262   -0.869111
     34          1           0        5.659251   -0.989594    0.439085
     35          6           0        3.068047    3.122616    0.168130
     36          1           0        3.188116    3.749602   -0.727455
     37          1           0        2.005304    2.927538    0.340531
     38          1           0        3.470192    3.662707    1.037509
     39          6           0        5.244950    1.944232   -0.099391
     40          1           0        5.509538    2.718440   -0.832954
     41          1           0        5.688631    2.211256    0.871774
     42          1           0        5.658779    0.991638   -0.444142
 ---------------------------------------------------------------------
 Rotational constants (GHZ):           0.7037808           0.1205812           0.1040104
 Leave Link  202 at Thu Jan 21 00:40:08 2021, MaxMem=  4026531840 cpu:               0.1 elap:               0.0
 (Enter /opt/ohpc/pub/libs/gaussian/g16-A.03/sandybridge/g16/l301.exe)
 Standard basis: TZVP (5D, 7F)
 Ernie: Thresh=  0.10000D-02 Tol=  0.10000D-05 Strict=F.
 There are   546 symmetry adapted cartesian basis functions of A   symmetry.
 There are   525 symmetry adapted basis functions of A   symmetry.
   525 basis functions,   903 primitive gaussians,   546 cartesian basis functions
    74 alpha electrons       74 beta electrons
       nuclear repulsion energy      1487.4602048397 Hartrees.
 IExCor=33909 DFT=T Ex+Corr=LC-wHPBE ExCW=0 ScaHFX=  1.000000
 ScaDFX=  1.000000  1.000000  1.000000  1.000000 ScalE2=  1.000000  1.000000
 IRadAn=      5 IRanWt=     -1 IRanGd=            0 ICorTp=0 IEmpDi=  4
 HFx  wShort=  0.000000 wLong=  0.328100 cFull=  0.000000 cShort=  0.000000 cLong=  1.000000
 DFx  wShort=  0.000000 wLong=  0.328100 cFull=  0.000000 cShort=  1.000000 cLong=  0.000000
 NAtoms=   42 NActive=   42 NUniq=   42 SFac= 1.00D+00 NAtFMM=   60 NAOKFM=F Big=F
 Integral buffers will be    131072 words long.
 Raffenetti 2 integral format.
 Two-electron integral symmetry is turned on.
 Leave Link  301 at Thu Jan 21 00:40:08 2021, MaxMem=  4026531840 cpu:               0.4 elap:               0.1
 (Enter /opt/ohpc/pub/libs/gaussian/g16-A.03/sandybridge/g16/l302.exe)
 NPDir=0 NMtPBC=     1 NCelOv=     1 NCel=       1 NClECP=     1 NCelD=      1
         NCelK=      1 NCelE2=     1 NClLst=     1 CellRange=     0.0.
 One-electron integrals computed using PRISM.
 One-electron integral symmetry used in STVInt
 NBasis=   525 RedAO= T EigKep=  8.06D-06  NBF=   525
 NBsUse=   525 1.00D-06 EigRej= -1.00D+00 NBFU=   525
 Precomputing XC quadrature grid using
 IXCGrd= 4 IRadAn=           5 IRanWt=          -1 IRanGd=           0 AccXCQ= 0.00D+00.
 Generated NRdTot=       0 NPtTot=           0 NUsed=           0 NTot=          32
 NSgBfM=   523   523   523   523   523 MxSgAt=    42 MxSgA2=    42.
 Leave Link  302 at Thu Jan 21 00:40:09 2021, MaxMem=  4026531840 cpu:               7.1 elap:               0.9
 (Enter /opt/ohpc/pub/libs/gaussian/g16-A.03/sandybridge/g16/l303.exe)
 DipDrv:  MaxL=1.
 Leave Link  303 at Thu Jan 21 00:40:09 2021, MaxMem=  4026531840 cpu:               0.6 elap:               0.1
 (Enter /opt/ohpc/pub/libs/gaussian/g16-A.03/sandybridge/g16/l401.exe)
 ExpMin= 9.52D-02 ExpMax= 1.97D+04 ExpMxC= 6.73D+02 IAcc=3 IRadAn=         5 AccDes= 0.00D+00
 Harris functional with IExCor=33909 and IRadAn=       5 diagonalized for initial guess.
 HarFok:  IExCor=33909 AccDes= 0.00D+00 IRadAn=         5 IDoV= 1 UseB2=F ITyADJ=14
 ICtDFT=  3500011 ScaDFX=  1.000000  1.000000  1.000000  1.000000
 FoFCou: FMM=F IPFlag=           0 FMFlag=      100000 FMFlg1=           0
         NFxFlg=           0 DoJE=T BraDBF=F KetDBF=T FulRan=T
         wScrn=  0.000000 ICntrl=       500 IOpCl=  0 I1Cent=   200000004 NGrid=           0
         NMat0=    1 NMatS0=      1 NMatT0=    0 NMatD0=    1 NMtDS0=    0 NMtDT0=    0
 Petite list used in FoFCou.
 Harris En= -820.878191400257    
 JPrj=0 DoOrth=F DoCkMO=F.
 Leave Link  401 at Thu Jan 21 00:40:14 2021, MaxMem=  4026531840 cpu:              39.2 elap:               5.0
 (Enter /opt/ohpc/pub/libs/gaussian/g16-A.03/sandybridge/g16/l502.exe)
 Integral symmetry usage will be decided dynamically.
 Closed shell SCF:
 Using DIIS extrapolation, IDIIS=    10.
 NGot=  4026531840 LenX=  4025925692 LenY=  4025627030
 Requested convergence on RMS density matrix=1.00D-06 within  32 cycles.
 Requested convergence on MAX density matrix=1.00D-04.
 Requested convergence on             energy=1.00D-04.
 Virtual orbitals will be shifted by   0.500 hartree.
 No special actions if energy rises.
 Dynamic level shift is on during FON iterations.

 Cycle   1  Pass 1  IDiag  1:
 FoFJK:  IHMeth= 1 ICntrl=       0 DoSepK=T KAlg= 0 I1Cent=           0 FoldK=F
 IRaf=         1 NMat=       1 IRICut=       1 DoRegI=T DoRafI=F ISym2E= 0 IDoP0=0 IntGTp=1.
 FoFCou: FMM=F IPFlag=           0 FMFlag=      100000 FMFlg1=           0
         NFxFlg=           0 DoJE=T BraDBF=F KetDBF=F FulRan=T
         wScrn=  0.000000 ICntrl=       500 IOpCl=  0 I1Cent=           0 NGrid=           0
         NMat0=    1 NMatS0=      1 NMatT0=    0 NMatD0=    1 NMtDS0=    0 NMtDT0=    0
 Symmetry not used in FoFCou.
 E= -845.258461925017    
 DIIS: error= 2.45D-02 at cycle   1 NSaved=   1.
 NSaved= 1 IEnMin= 1 EnMin= -845.258461925017     IErMin= 1 ErrMin= 2.45D-02
 ErrMax= 2.45D-02  0.00D+00 EMaxC= 1.00D+00 BMatC= 2.46D-01 BMatP= 2.46D-01
 IDIUse=1 WtCom= 1.00D+00 WtEn= 0.00D+00
 Coeff-Com:  0.100D+01
 Coeff:      0.100D+01
 Gap=     0.401 Goal=   None    Shift=    0.500
 T= 1374. Gap= 0.708 NK=0 IS=   75 IE=  525 IFin=   74
          NO(<0.9)=   0  NV(>0.1)=   0     74.00e < EF      0.00e >EF  Err=0.0D+00
 GapD=    0.401 DampG=2.000 DampE=0.500 DampFc=1.0000 IDamp=-1.
 RMSDP=2.44D-03 MaxDP=1.10D-01              OVMax= 5.85D-02

 Cycle   2  Pass 1  IDiag  1:
 E= -845.478826707731     Delta-E=       -0.220364782714 Rises=F Damp=F
 DIIS: error= 6.46D-03 at cycle   2 NSaved=   2.
 NSaved= 2 IEnMin= 2 EnMin= -845.478826707731     IErMin= 2 ErrMin= 6.46D-03
 ErrMax= 6.46D-03  0.00D+00 EMaxC= 1.00D+00 BMatC= 1.94D-02 BMatP= 2.46D-01
 IDIUse=1 WtCom= 1.00D+00 WtEn= 0.00D+00
 Coeff-Com:  0.154D+00 0.846D+00
 Coeff:      0.154D+00 0.846D+00
 Gap=     0.286 Goal=   None    Shift=    0.500
 T= 1205. Gap= 0.776 NK=0 IS=   75 IE=  525 IFin=   74
          NO(<0.9)=   0  NV(>0.1)=   0     74.00e < EF      0.00e >EF  Err=0.0D+00
 GapD=    0.286 DampG=1.000 DampE=1.000 DampFc=1.0000 IDamp=-1.
 RMSDP=6.65D-04 MaxDP=3.09D-02 DE=-2.20D-01 OVMax= 2.13D-02

 Cycle   3  Pass 1  IDiag  1:
 E= -845.493613734810     Delta-E=       -0.014787027078 Rises=F Damp=F
 DIIS: error= 6.01D-03 at cycle   3 NSaved=   3.
 NSaved= 3 IEnMin= 3 EnMin= -845.493613734810     IErMin= 3 ErrMin= 6.01D-03
 ErrMax= 6.01D-03  0.00D+00 EMaxC= 1.00D+00 BMatC= 1.35D-03 BMatP= 1.94D-02
 IDIUse=1 WtCom= 1.00D+00 WtEn= 0.00D+00
 Coeff-Com:  0.297D-01-0.739D-02 0.978D+00
 Coeff:      0.297D-01-0.739D-02 0.978D+00
 Gap=     0.286 Goal=   None    Shift=    0.500
 T=  962. Gap= 0.786 NK=0 IS=   75 IE=  525 IFin=   74
          NO(<0.9)=   0  NV(>0.1)=   0     74.00e < EF      0.00e >EF  Err=0.0D+00
 GapD=    0.286 DampG=1.000 DampE=1.000 DampFc=1.0000 IDamp=-1.
 RMSDP=3.05D-04 MaxDP=2.15D-02 DE=-1.48D-02 OVMax= 1.61D-02

 Cycle   4  Pass 1  IDiag  1:
 E= -845.496081636695     Delta-E=       -0.002467901886 Rises=F Damp=F
 DIIS: error= 4.23D-03 at cycle   4 NSaved=   4.
 NSaved= 4 IEnMin= 4 EnMin= -845.496081636695     IErMin= 4 ErrMin= 4.23D-03
 ErrMax= 4.23D-03  0.00D+00 EMaxC= 1.00D+00 BMatC= 4.10D-04 BMatP= 1.35D-03
 IDIUse=1 WtCom= 1.00D+00 WtEn= 0.00D+00
 Coeff-Com: -0.997D-03-0.871D-01 0.241D-01 0.106D+01
 Coeff:     -0.997D-03-0.871D-01 0.241D-01 0.106D+01
 Gap=     0.289 Goal=   None    Shift=    0.500
 T=  485. Gap= 0.789 NK=0 IS=   75 IE=  525 IFin=   74
          NO(<0.9)=   0  NV(>0.1)=   0     74.00e < EF      0.00e >EF  Err=0.0D+00
 GapD=    0.289 DampG=1.000 DampE=1.000 DampFc=1.0000 IDamp=-1.
 RMSDP=1.45D-04 MaxDP=5.49D-03 DE=-2.47D-03 OVMax= 1.19D-02

 Cycle   5  Pass 1  IDiag  1:
 E= -845.497159646796     Delta-E=       -0.001078010101 Rises=F Damp=F
 DIIS: error= 3.17D-03 at cycle   5 NSaved=   5.
 NSaved= 5 IEnMin= 5 EnMin= -845.497159646796     IErMin= 5 ErrMin= 3.17D-03
 ErrMax= 3.17D-03  0.00D+00 EMaxC= 1.00D+00 BMatC= 1.37D-04 BMatP= 4.10D-04
 IDIUse=1 WtCom= 1.00D+00 WtEn= 0.00D+00
 Coeff-Com: -0.773D-02-0.351D-02-0.219D+00-0.377D+00 0.161D+01
 Coeff:     -0.773D-02-0.351D-02-0.219D+00-0.377D+00 0.161D+01
 Gap=     0.292 Goal=   None    Shift=    0.500
 T=  354. Gap= 0.792 NK=0 IS=   75 IE=  525 IFin=   74
          NO(<0.9)=   0  NV(>0.1)=   0     74.00e < EF      0.00e >EF  Err=0.0D+00
 GapD=    0.292 DampG=1.000 DampE=1.000 DampFc=1.0000 IDamp=-1.
 RMSDP=9.93D-05 MaxDP=4.13D-03 DE=-1.08D-03 OVMax= 1.05D-02

 Cycle   6  Pass 1  IDiag  1:
 E= -845.497745645107     Delta-E=       -0.000585998311 Rises=F Damp=F
 DIIS: error= 2.25D-03 at cycle   6 NSaved=   6.
 NSaved= 6 IEnMin= 6 EnMin= -845.497745645107     IErMin= 6 ErrMin= 2.25D-03
 ErrMax= 2.25D-03  0.00D+00 EMaxC= 1.00D+00 BMatC= 5.91D-05 BMatP= 1.37D-04
 IDIUse=1 WtCom= 1.00D+00 WtEn= 0.00D+00
 Coeff-Com: -0.349D-02 0.299D-01-0.531D-01-0.343D+00-0.355D+00 0.172D+01
 Coeff:     -0.349D-02 0.299D-01-0.531D-01-0.343D+00-0.355D+00 0.172D+01
 Gap=     0.293 Goal=   None    Shift=    0.500
 T=  156. Gap= 0.794 NK=0 IS=   75 IE=  525 IFin=   74
          NO(<0.9)=   0  NV(>0.1)=   0     74.00e < EF      0.00e >EF  Err=0.0D+00
 GapD=    0.293 DampG=1.000 DampE=1.000 DampFc=1.0000 IDamp=-1.
 RMSDP=6.42D-05 MaxDP=1.86D-03 DE=-5.86D-04 OVMax= 8.14D-03

 Cycle   7  Pass 1  IDiag  1:
 E= -845.498043840869     Delta-E=       -0.000298195762 Rises=F Damp=F
 DIIS: error= 1.53D-03 at cycle   7 NSaved=   7.
 NSaved= 7 IEnMin= 7 EnMin= -845.498043840869     IErMin= 7 ErrMin= 1.53D-03
 ErrMax= 1.53D-03  0.00D+00 EMaxC= 1.00D+00 BMatC= 2.67D-05 BMatP= 5.91D-05
 IDIUse=1 WtCom= 1.00D+00 WtEn= 0.00D+00
 Coeff-Com:  0.376D-03 0.122D-01 0.385D-01 0.100D+00-0.806D+00-0.261D+00
 Coeff-Com:  0.192D+01
 Coeff:      0.376D-03 0.122D-01 0.385D-01 0.100D+00-0.806D+00-0.261D+00
 Coeff:      0.192D+01
 Gap=     0.294 Goal=   None    Shift=    0.500
 GapD=    0.294 DampG=1.000 DampE=1.000 DampFc=1.0000 IDamp=-1.
 RMSDP=4.69D-05 MaxDP=2.48D-03 DE=-2.98D-04 OVMax= 6.16D-03

 Cycle   8  Pass 1  IDiag  1:
 E= -845.498192493265     Delta-E=       -0.000148652396 Rises=F Damp=F
 DIIS: error= 1.02D-03 at cycle   8 NSaved=   8.
 NSaved= 8 IEnMin= 8 EnMin= -845.498192493265     IErMin= 8 ErrMin= 1.02D-03
 ErrMax= 1.02D-03  0.00D+00 EMaxC= 1.00D+00 BMatC= 1.22D-05 BMatP= 2.67D-05
 IDIUse=1 WtCom= 1.00D+00 WtEn= 0.00D+00
 Coeff-Com:  0.161D-03-0.326D-02-0.120D-01 0.177D+00-0.113D+00-0.700D+00
 Coeff-Com: -0.236D+00 0.189D+01
 Coeff:      0.161D-03-0.326D-02-0.120D-01 0.177D+00-0.113D+00-0.700D+00
 Coeff:     -0.236D+00 0.189D+01
 Gap=     0.295 Goal=   None    Shift=    0.500
 GapD=    0.295 DampG=1.000 DampE=1.000 DampFc=1.0000 IDamp=-1.
 RMSDP=2.90D-05 MaxDP=1.70D-03 DE=-1.49D-04 OVMax= 4.24D-03

 Cycle   9  Pass 1  IDiag  1:
 E= -845.498259977548     Delta-E=       -0.000067484283 Rises=F Damp=F
 DIIS: error= 6.66D-04 at cycle   9 NSaved=   9.
 NSaved= 9 IEnMin= 9 EnMin= -845.498259977548     IErMin= 9 ErrMin= 6.66D-04
 ErrMax= 6.66D-04  0.00D+00 EMaxC= 1.00D+00 BMatC= 5.51D-06 BMatP= 1.22D-05
 IDIUse=1 WtCom= 1.00D+00 WtEn= 0.00D+00
 Coeff-Com: -0.617D-03-0.358D-02-0.349D-01 0.531D-01 0.259D+00-0.261D+00
 Coeff-Com: -0.846D+00-0.183D-01 0.185D+01
 Coeff:     -0.617D-03-0.358D-02-0.349D-01 0.531D-01 0.259D+00-0.261D+00
 Coeff:     -0.846D+00-0.183D-01 0.185D+01
 Gap=     0.295 Goal=   None    Shift=    0.500
 RMSDP=2.01D-05 MaxDP=1.57D-03 DE=-6.75D-05 OVMax= 3.04D-03

 Cycle  10  Pass 1  IDiag  1:
 E= -845.498289640141     Delta-E=       -0.000029662593 Rises=F Damp=F
 DIIS: error= 4.29D-04 at cycle  10 NSaved=  10.
 NSaved=10 IEnMin=10 EnMin= -845.498289640141     IErMin=10 ErrMin= 4.29D-04
 ErrMax= 4.29D-04  0.00D+00 EMaxC= 1.00D+00 BMatC= 2.54D-06 BMatP= 5.51D-06
 IDIUse=1 WtCom= 1.00D+00 WtEn= 0.00D+00
 Coeff-Com: -0.893D-03 0.335D-02-0.101D-01-0.410D-01 0.413D-01 0.211D+00
 Coeff-Com:  0.620D-01-0.110D+01-0.312D+00 0.214D+01
 Coeff:     -0.893D-03 0.335D-02-0.101D-01-0.410D-01 0.413D-01 0.211D+00
 Coeff:      0.620D-01-0.110D+01-0.312D+00 0.214D+01
 Gap=     0.295 Goal=   None    Shift=    0.500
 RMSDP=1.18D-05 MaxDP=8.11D-04 DE=-2.97D-05 OVMax= 2.11D-03

 Cycle  11  Pass 1  IDiag  1:
 E= -845.498302097940     Delta-E=       -0.000012457800 Rises=F Damp=F
 DIIS: error= 2.71D-04 at cycle  11 NSaved=  11.
 NSaved=11 IEnMin=11 EnMin= -845.498302097940     IErMin=11 ErrMin= 2.71D-04
 ErrMax= 2.71D-04  0.00D+00 EMaxC= 1.00D+00 BMatC= 1.19D-06 BMatP= 2.54D-06
 IDIUse=1 WtCom= 1.00D+00 WtEn= 0.00D+00
 Coeff-Com: -0.493D-03 0.281D-02 0.148D-02-0.204D-01-0.607D-01 0.149D+00
 Coeff-Com:  0.288D+00-0.501D+00-0.538D+00-0.492D+00 0.217D+01
 Coeff:     -0.493D-03 0.281D-02 0.148D-02-0.204D-01-0.607D-01 0.149D+00
 Coeff:      0.288D+00-0.501D+00-0.538D+00-0.492D+00 0.217D+01
 Gap=     0.295 Goal=   None    Shift=    0.500
 RMSDP=7.39D-06 MaxDP=5.86D-04 DE=-1.25D-05 OVMax= 1.44D-03

 Cycle  12  Pass 1  IDiag  1:
 E= -845.498307240772     Delta-E=       -0.000005142832 Rises=F Damp=F
 DIIS: error= 1.72D-04 at cycle  12 NSaved=  12.
 NSaved=12 IEnMin=12 EnMin= -845.498307240772     IErMin=12 ErrMin= 1.72D-04
 ErrMax= 1.72D-04  0.00D+00 EMaxC= 1.00D+00 BMatC= 5.37D-07 BMatP= 1.19D-06
 IDIUse=1 WtCom= 1.00D+00 WtEn= 0.00D+00
 Coeff-Com: -0.623D-04 0.107D-03-0.590D-03 0.146D-01-0.213D-01-0.561D-01
 Coeff-Com:  0.591D-01 0.262D+00 0.544D-01-0.150D+01 0.208D+00 0.198D+01
 Coeff:     -0.623D-04 0.107D-03-0.590D-03 0.146D-01-0.213D-01-0.561D-01
 Coeff:      0.591D-01 0.262D+00 0.544D-01-0.150D+01 0.208D+00 0.198D+01
 Gap=     0.295 Goal=   None    Shift=    0.500
 RMSDP=4.11D-06 MaxDP=3.04D-04 DE=-5.14D-06 OVMax= 9.54D-04

 Cycle  13  Pass 1  IDiag  1:
 E= -845.498309314942     Delta-E=       -0.000002074170 Rises=F Damp=F
 DIIS: error= 1.07D-04 at cycle  13 NSaved=  13.
 NSaved=13 IEnMin=13 EnMin= -845.498309314942     IErMin=13 ErrMin= 1.07D-04
 ErrMax= 1.07D-04  0.00D+00 EMaxC= 1.00D+00 BMatC= 2.27D-07 BMatP= 5.37D-07
 IDIUse=1 WtCom= 1.00D+00 WtEn= 0.00D+00
 Coeff-Com:  0.307D-04-0.610D-03-0.246D-02 0.961D-02 0.256D-01-0.751D-01
 Coeff-Com: -0.728D-01 0.254D+00 0.182D+00-0.466D+00-0.593D+00-0.355D+00
 Coeff-Com:  0.209D+01
 Coeff:      0.307D-04-0.610D-03-0.246D-02 0.961D-02 0.256D-01-0.751D-01
 Coeff:     -0.728D-01 0.254D+00 0.182D+00-0.466D+00-0.593D+00-0.355D+00
 Coeff:      0.209D+01
 Gap=     0.295 Goal=   None    Shift=    0.500
 RMSDP=2.50D-06 MaxDP=1.53D-04 DE=-2.07D-06 OVMax= 6.22D-04

 Cycle  14  Pass 1  IDiag  1:
 E= -845.498310125957     Delta-E=       -0.000000811015 Rises=F Damp=F
 DIIS: error= 6.67D-05 at cycle  14 NSaved=  14.
 NSaved=14 IEnMin=14 EnMin= -845.498310125957     IErMin=14 ErrMin= 6.67D-05
 ErrMax= 6.67D-05  0.00D+00 EMaxC= 1.00D+00 BMatC= 9.64D-08 BMatP= 2.27D-07
 IDIUse=1 WtCom= 1.00D+00 WtEn= 0.00D+00
 Coeff-Com: -0.121D-04-0.219D-03-0.137D-02-0.208D-02 0.219D-01-0.147D-01
 Coeff-Com: -0.443D-01 0.278D-01 0.261D-01 0.283D+00-0.257D+00-0.111D+01
 Coeff-Com:  0.205D+00 0.186D+01
 Coeff:     -0.121D-04-0.219D-03-0.137D-02-0.208D-02 0.219D-01-0.147D-01
 Coeff:     -0.443D-01 0.278D-01 0.261D-01 0.283D+00-0.257D+00-0.111D+01
 Coeff:      0.205D+00 0.186D+01
 Gap=     0.295 Goal=   None    Shift=    0.500
 RMSDP=1.44D-06 MaxDP=5.96D-05 DE=-8.11D-07 OVMax= 3.92D-04

 Cycle  15  Pass 1  IDiag  1:
 E= -845.498310441141     Delta-E=       -0.000000315184 Rises=F Damp=F
 DIIS: error= 4.11D-05 at cycle  15 NSaved=  15.
 NSaved=15 IEnMin=15 EnMin= -845.498310441141     IErMin=15 ErrMin= 4.11D-05
 ErrMax= 4.11D-05  0.00D+00 EMaxC= 1.00D+00 BMatC= 3.80D-08 BMatP= 9.64D-08
 IDIUse=1 WtCom= 1.00D+00 WtEn= 0.00D+00
 Coeff-Com: -0.409D-04 0.199D-03 0.607D-03-0.343D-02-0.517D-02 0.220D-01
 Coeff-Com:  0.223D-01-0.732D-01-0.805D-01 0.177D+00 0.230D+00-0.201D+00
 Coeff-Com: -0.880D+00-0.413D+00 0.220D+01
 Coeff:     -0.409D-04 0.199D-03 0.607D-03-0.343D-02-0.517D-02 0.220D-01
 Coeff:      0.223D-01-0.732D-01-0.805D-01 0.177D+00 0.230D+00-0.201D+00
 Coeff:     -0.880D+00-0.413D+00 0.220D+01
 Gap=     0.295 Goal=   None    Shift=    0.500
 RMSDP=8.58D-07 MaxDP=2.47D-05 DE=-3.15D-07 OVMax= 2.42D-04

 SCF Done:  E(RLC-wHPBE) =  -845.498310441     A.U. after   15 cycles
            NFock= 15  Conv=0.86D-06     -V/T= 2.0060
 KE= 8.404424914812D+02 PE=-4.917902162503D+03 EE= 1.744501155741D+03
 Leave Link  502 at Thu Jan 21 00:47:14 2021, MaxMem=  4026531840 cpu:            3351.8 elap:             420.1
 (Enter /opt/ohpc/pub/libs/gaussian/g16-A.03/sandybridge/g16/l508.exe)
 QCSCF skips out because SCF is already converged.
 Leave Link  508 at Thu Jan 21 00:47:14 2021, MaxMem=  4026531840 cpu:               0.1 elap:               0.0
 (Enter /opt/ohpc/pub/libs/gaussian/g16-A.03/sandybridge/g16/l601.exe)
 Copying SCF densities to generalized density rwf, IOpCl= 0 IROHF=0.

 **********************************************************************

            Population analysis using the SCF density.

 **********************************************************************

 Orbital symmetries:
       Occupied  (A) (A) (A) (A) (A) (A) (A) (A) (A) (A) (A) (A)
                 (A) (A) (A) (A) (A) (A) (A) (A) (A) (A) (A) (A)
                 (A) (A) (A) (A) (A) (A) (A) (A) (A) (A) (A) (A)
                 (A) (A) (A) (A) (A) (A) (A) (A) (A) (A) (A) (A)
                 (A) (A) (A) (A) (A) (A) (A) (A) (A) (A) (A) (A)
                 (A) (A) (A) (A) (A) (A) (A) (A) (A) (A) (A) (A)
                 (A) (A)
       Virtual   (A) (A) (A) (A) (A) (A) (A) (A) (A) (A) (A) (A)
                 (A) (A) (A) (A) (A) (A) (A) (A) (A) (A) (A) (A)
                 (A) (A) (A) (A) (A) (A) (A) (A) (A) (A) (A) (A)
                 (A) (A) (A) (A) (A) (A) (A) (A) (A) (A) (A) (A)
                 (A) (A) (A) (A) (A) (A) (A) (A) (A) (A) (A) (A)
                 (A) (A) (A) (A) (A) (A) (A) (A) (A) (A) (A) (A)
                 (A) (A) (A) (A) (A) (A) (A) (A) (A) (A) (A) (A)
                 (A) (A) (A) (A) (A) (A) (A) (A) (A) (A) (A) (A)
                 (A) (A) (A) (A) (A) (A) (A) (A) (A) (A) (A) (A)
                 (A) (A) (A) (A) (A) (A) (A) (A) (A) (A) (A) (A)
                 (A) (A) (A) (A) (A) (A) (A) (A) (A) (A) (A) (A)
                 (A) (A) (A) (A) (A) (A) (A) (A) (A) (A) (A) (A)
                 (A) (A) (A) (A) (A) (A) (A) (A) (A) (A) (A) (A)
                 (A) (A) (A) (A) (A) (A) (A) (A) (A) (A) (A) (A)
                 (A) (A) (A) (A) (A) (A) (A) (A) (A) (A) (A) (A)
                 (A) (A) (A) (A) (A) (A) (A) (A) (A) (A) (A) (A)
                 (A) (A) (A) (A) (A) (A) (A) (A) (A) (A) (A) (A)
                 (A) (A) (A) (A) (A) (A) (A) (A) (A) (A) (A) (A)
                 (A) (A) (A) (A) (A) (A) (A) (A) (A) (A) (A) (A)
                 (A) (A) (A) (A) (A) (A) (A) (A) (A) (A) (A) (A)
                 (A) (A) (A) (A) (A) (A) (A) (A) (A) (A) (A) (A)
                 (A) (A) (A) (A) (A) (A) (A) (A) (A) (A) (A) (A)
                 (A) (A) (A) (A) (A) (A) (A) (A) (A) (A) (A) (A)
                 (A) (A) (A) (A) (A) (A) (A) (A) (A) (A) (A) (A)
                 (A) (A) (A) (A) (A) (A) (A) (A) (A) (A) (A) (A)
                 (A) (A) (A) (A) (A) (A) (A) (A) (A) (A) (A) (A)
                 (A) (A) (A) (A) (A) (A) (A) (A) (A) (A) (A) (A)
                 (A) (A) (A) (A) (A) (A) (A) (A) (A) (A) (A) (A)
                 (A) (A) (A) (A) (A) (A) (A) (A) (A) (A) (A) (A)
                 (A) (A) (A) (A) (A) (A) (A) (A) (A) (A) (A) (A)
                 (A) (A) (A) (A) (A) (A) (A) (A) (A) (A) (A) (A)
                 (A) (A) (A) (A) (A) (A) (A) (A) (A) (A) (A) (A)
                 (A) (A) (A) (A) (A) (A) (A) (A) (A) (A) (A) (A)
                 (A) (A) (A) (A) (A) (A) (A) (A) (A) (A) (A) (A)
                 (A) (A) (A) (A) (A) (A) (A) (A) (A) (A) (A) (A)
                 (A) (A) (A) (A) (A) (A) (A) (A) (A) (A) (A) (A)
                 (A) (A) (A) (A) (A) (A) (A) (A) (A) (A) (A) (A)
                 (A) (A) (A) (A) (A) (A) (A)
 The electronic state is 1-A.
 Alpha  occ. eigenvalues --  -14.36715 -14.36714 -10.30437 -10.30400 -10.26478
 Alpha  occ. eigenvalues --  -10.23956 -10.23954 -10.23550 -10.23550 -10.21818
 Alpha  occ. eigenvalues --  -10.20058 -10.19984 -10.19983 -10.18525 -10.18523
 Alpha  occ. eigenvalues --  -10.17221 -10.15803 -10.15800 -10.15205 -10.15190
 Alpha  occ. eigenvalues --  -10.15142  -1.24642  -1.21793  -1.16155  -1.09634
 Alpha  occ. eigenvalues --   -1.05618  -1.00751  -0.98360  -0.98203  -0.97777
 Alpha  occ. eigenvalues --   -0.96460  -0.95397  -0.94037  -0.93791  -0.86620
 Alpha  occ. eigenvalues --   -0.84266  -0.79928  -0.79843  -0.78932  -0.78596
 Alpha  occ. eigenvalues --   -0.78196  -0.74379  -0.74333  -0.72960  -0.72097
 Alpha  occ. eigenvalues --   -0.72049  -0.69100  -0.68163  -0.66304  -0.66189
 Alpha  occ. eigenvalues --   -0.65884  -0.64937  -0.64391  -0.64191  -0.64084
 Alpha  occ. eigenvalues --   -0.63531  -0.63469  -0.62900  -0.62291  -0.61841
 Alpha  occ. eigenvalues --   -0.60494  -0.60272  -0.59373  -0.57241  -0.56806
 Alpha  occ. eigenvalues --   -0.55469  -0.53642  -0.52584  -0.51925  -0.49978
 Alpha  occ. eigenvalues --   -0.46901  -0.44817  -0.43112  -0.40646
 Alpha virt. eigenvalues --   -0.11182  -0.05337  -0.02840  -0.02779  -0.02128
 Alpha virt. eigenvalues --   -0.01612   0.00679   0.01595   0.02124   0.02986
 Alpha virt. eigenvalues --    0.03547   0.04202   0.05589   0.05986   0.06074
 Alpha virt. eigenvalues --    0.06231   0.06583   0.07198   0.07263   0.07529
 Alpha virt. eigenvalues --    0.07943   0.08522   0.09034   0.09236   0.09580
 Alpha virt. eigenvalues --    0.10100   0.11309   0.11784   0.11893   0.12359
 Alpha virt. eigenvalues --    0.12517   0.12739   0.13969   0.14496   0.14690
 Alpha virt. eigenvalues --    0.15021   0.15290   0.15890   0.16388   0.16462
 Alpha virt. eigenvalues --    0.17012   0.17689   0.18186   0.20095   0.20537
 Alpha virt. eigenvalues --    0.20966   0.20986   0.22012   0.22593   0.23187
 Alpha virt. eigenvalues --    0.23237   0.23873   0.23994   0.24916   0.25239
 Alpha virt. eigenvalues --    0.25321   0.25763   0.25956   0.26494   0.26749
 Alpha virt. eigenvalues --    0.27162   0.27213   0.27811   0.28510   0.29276
 Alpha virt. eigenvalues --    0.29441   0.29557   0.30209   0.31188   0.31393
 Alpha virt. eigenvalues --    0.32438   0.33136   0.33410   0.33423   0.33705
 Alpha virt. eigenvalues --    0.34151   0.35202   0.35273   0.36257   0.36630
 Alpha virt. eigenvalues --    0.36813   0.37750   0.37878   0.38761   0.39643
 Alpha virt. eigenvalues --    0.39774   0.39981   0.40236   0.40898   0.41032
 Alpha virt. eigenvalues --    0.41223   0.41802   0.41958   0.42070   0.42510
 Alpha virt. eigenvalues --    0.43036   0.43533   0.43721   0.43724   0.44492
 Alpha virt. eigenvalues --    0.45302   0.45329   0.45378   0.46034   0.46448
 Alpha virt. eigenvalues --    0.46453   0.46955   0.47983   0.48357   0.49304
 Alpha virt. eigenvalues --    0.49375   0.50217   0.50614   0.51411   0.51689
 Alpha virt. eigenvalues --    0.51772   0.52257   0.53132   0.53697   0.54131
 Alpha virt. eigenvalues --    0.54365   0.54949   0.56134   0.56475   0.57364
 Alpha virt. eigenvalues --    0.57815   0.58559   0.60117   0.60953   0.61476
 Alpha virt. eigenvalues --    0.62173   0.62391   0.63115   0.64346   0.64822
 Alpha virt. eigenvalues --    0.66526   0.67175   0.68326   0.68344   0.69280
 Alpha virt. eigenvalues --    0.70829   0.70863   0.71305   0.71806   0.71843
 Alpha virt. eigenvalues --    0.73590   0.74481   0.76510   0.76657   0.78797
 Alpha virt. eigenvalues --    0.79075   0.82097   0.83273   0.84987   0.85111
 Alpha virt. eigenvalues --    0.88422   0.90209   1.10126   1.10485   1.14549
 Alpha virt. eigenvalues --    1.17407   1.18773   1.18830   1.20688   1.21724
 Alpha virt. eigenvalues --    1.22236   1.22306   1.22886   1.23634   1.24100
 Alpha virt. eigenvalues --    1.25028   1.25998   1.26374   1.26485   1.27294
 Alpha virt. eigenvalues --    1.27854   1.28346   1.28934   1.29304   1.29931
 Alpha virt. eigenvalues --    1.29989   1.30644   1.30788   1.31307   1.31440
 Alpha virt. eigenvalues --    1.31642   1.32172   1.32747   1.33053   1.33129
 Alpha virt. eigenvalues --    1.33309   1.33460   1.34121   1.34911   1.35515
 Alpha virt. eigenvalues --    1.37331   1.38809   1.40036   1.40984   1.41389
 Alpha virt. eigenvalues --    1.41827   1.42325   1.42576   1.42926   1.43307
 Alpha virt. eigenvalues --    1.43401   1.43845   1.45464   1.45680   1.45924
 Alpha virt. eigenvalues --    1.46253   1.46313   1.46810   1.47510   1.48196
 Alpha virt. eigenvalues --    1.48419   1.48623   1.49010   1.49631   1.49891
 Alpha virt. eigenvalues --    1.50262   1.50637   1.50815   1.51474   1.51737
 Alpha virt. eigenvalues --    1.52220   1.52364   1.52709   1.53469   1.54309
 Alpha virt. eigenvalues --    1.54817   1.55277   1.55937   1.56638   1.58009
 Alpha virt. eigenvalues --    1.58277   1.59323   1.59745   1.60480   1.61236
 Alpha virt. eigenvalues --    1.61273   1.62478   1.63008   1.64162   1.65067
 Alpha virt. eigenvalues --    1.66090   1.66876   1.67908   1.68232   1.69626
 Alpha virt. eigenvalues --    1.71207   1.71224   1.71615   1.73293   1.73390
 Alpha virt. eigenvalues --    1.73723   1.74267   1.75170   1.75476   1.75752
 Alpha virt. eigenvalues --    1.75993   1.77878   1.78083   1.78276   1.78573
 Alpha virt. eigenvalues --    1.79441   1.79627   1.79671   1.80870   1.81928
 Alpha virt. eigenvalues --    1.82109   1.83683   1.85431   1.85491   1.85805
 Alpha virt. eigenvalues --    1.86502   1.88664   1.88760   1.88864   1.90292
 Alpha virt. eigenvalues --    1.90939   1.91178   1.92706   1.93122   1.94196
 Alpha virt. eigenvalues --    1.95095   1.96170   1.96886   1.96912   1.98350
 Alpha virt. eigenvalues --    1.98837   1.99830   2.00801   2.01562   2.01803
 Alpha virt. eigenvalues --    2.02004   2.03066   2.05305   2.06056   2.06852
 Alpha virt. eigenvalues --    2.07511   2.09454   2.11257   2.11271   2.13010
 Alpha virt. eigenvalues --    2.13160   2.16152   2.17452   2.17630   2.22842
 Alpha virt. eigenvalues --    2.23699   2.23893   2.24484   2.25495   2.26181
 Alpha virt. eigenvalues --    2.26257   2.27817   2.28157   2.28217   2.28925
 Alpha virt. eigenvalues --    2.29873   2.29940   2.30514   2.30981   2.31091
 Alpha virt. eigenvalues --    2.32105   2.32678   2.33052   2.33887   2.34212
 Alpha virt. eigenvalues --    2.34536   2.35047   2.35464   2.37483   2.39506
 Alpha virt. eigenvalues --    2.39609   2.41236   2.42111   2.43211   2.46136
 Alpha virt. eigenvalues --    2.46614   2.47863   2.48228   2.49686   2.50018
 Alpha virt. eigenvalues --    2.50034   2.50773   2.51512   2.53041   2.53377
 Alpha virt. eigenvalues --    2.53448   2.53884   2.54418   2.54545   2.56209
 Alpha virt. eigenvalues --    2.59452   2.60211   2.60714   2.61601   2.62891
 Alpha virt. eigenvalues --    2.63257   2.63559   2.64911   2.65157   2.66788
 Alpha virt. eigenvalues --    2.66906   2.68009   2.68238   2.69536   2.69786
 Alpha virt. eigenvalues --    2.70069   2.70934   2.71399   2.71975   2.74086
 Alpha virt. eigenvalues --    2.75092   2.77592   2.79986   2.80118   2.81013
 Alpha virt. eigenvalues --    2.81122   2.81643   2.82842   2.88765   2.96185
 Alpha virt. eigenvalues --    2.97854   2.98315   3.01952   3.03000   3.03714
 Alpha virt. eigenvalues --    3.04234   3.04925   3.05165   3.06939   3.07452
 Alpha virt. eigenvalues --    3.09150   3.09676   3.09826   3.12678   3.13802
 Alpha virt. eigenvalues --    3.14727   3.17703   3.18175   3.20373   3.21217
 Alpha virt. eigenvalues --    3.23047   3.24333   3.24662   3.24850   3.25621
 Alpha virt. eigenvalues --    3.27002   3.27897   3.30381   3.31765   3.32850
 Alpha virt. eigenvalues --    3.33794   3.34551   3.36168   3.39528   3.39644
 Alpha virt. eigenvalues --    3.40071   3.40699   3.52982   3.58145   3.61769
 Alpha virt. eigenvalues --    3.66885   3.74442   3.75212   3.81173   3.92049
 Alpha virt. eigenvalues --   21.14743  21.30384  21.45516  21.53287  21.64532
 Alpha virt. eigenvalues --   21.67406  21.67914  21.72058  21.76666  21.84850
 Alpha virt. eigenvalues --   21.87978  21.91542  21.91838  21.93056  21.95372
 Alpha virt. eigenvalues --   22.02876  22.06705  22.09335  22.10361  31.60322
 Alpha virt. eigenvalues --   31.75400
          Condensed to atoms (all electrons):
               1          2          3          4          5          6
     1  C    4.910412   0.514531   0.447073  -0.026673  -0.033841  -0.085710
     2  C    0.514531   4.895763  -0.048357   0.514530  -0.043937  -0.048373
     3  C    0.447073  -0.048357   5.125190  -0.085723   0.440631  -0.059306
     4  C   -0.026673   0.514530  -0.085723   4.910397  -0.033845   0.447104
     5  C   -0.033841  -0.043937   0.440631  -0.033845   5.406962   0.440674
     6  C   -0.085710  -0.048373  -0.059306   0.447104   0.440674   5.125139
     7  H   -0.041743   0.408015   0.013562  -0.041744  -0.003152   0.013562
     8  H   -0.005327   0.005494   0.384647  -0.000309  -0.047987   0.007811
     9  H    0.008140  -0.036770   0.000606   0.403966   0.010869  -0.038626
    10  H   -0.000309   0.005494   0.007813  -0.005330  -0.047985   0.384647
    11  C    0.014436   0.007095  -0.052367   0.014438   0.099074  -0.052397
    12  C   -0.000538  -0.000231   0.024471   0.003665  -0.122219  -0.020295
    13  C    0.003664  -0.000232  -0.020311  -0.000536  -0.122150   0.024476
    14  C    0.000399  -0.000039  -0.000828  -0.000701   0.044145   0.001641
    15  C   -0.000701  -0.000039   0.001645   0.000398   0.044101  -0.000830
    16  C   -0.000022   0.000018   0.001045  -0.000022  -0.011529   0.001047
    17  H    0.000012  -0.000010  -0.000086   0.001187  -0.012164   0.000183
    18  H    0.001187  -0.000010   0.000182   0.000012  -0.012159  -0.000086
    19  H   -0.000000  -0.000000  -0.000012  -0.000000  -0.000595   0.000022
    20  H   -0.000000  -0.000000   0.000023  -0.000000  -0.000595  -0.000012
    21  H    0.403969  -0.036772  -0.038628   0.008141   0.010869   0.000606
    22  C   -0.000004   0.000001   0.000188  -0.000004  -0.004657   0.000188
    23  C    0.000000   0.000000   0.000018  -0.000000  -0.000092  -0.000005
    24  C   -0.000000   0.000000  -0.000005   0.000000  -0.000092   0.000018
    25  N    0.000000   0.000000   0.000000  -0.000000  -0.000001   0.000000
    26  N   -0.000000   0.000000   0.000000   0.000000  -0.000001   0.000000
    27  C    0.000000   0.000000   0.000000  -0.000000  -0.000005  -0.000000
    28  H   -0.000000  -0.000000  -0.000000   0.000000   0.000000   0.000000
    29  H   -0.000000   0.000000   0.000002   0.000000  -0.000024   0.000000
    30  H    0.000000  -0.000000   0.000000  -0.000000   0.000000   0.000000
    31  C    0.000000   0.000000   0.000000  -0.000000  -0.000000  -0.000000
    32  H   -0.000000  -0.000000  -0.000000   0.000000   0.000000   0.000000
    33  H    0.000000  -0.000000  -0.000000  -0.000000   0.000000  -0.000000
    34  H    0.000000   0.000000   0.000000  -0.000000  -0.000000   0.000000
    35  C   -0.000000   0.000000  -0.000000   0.000000  -0.000005   0.000000
    36  H    0.000000  -0.000000   0.000000  -0.000000   0.000000  -0.000000
    37  H    0.000000   0.000000   0.000000  -0.000000  -0.000024   0.000002
    38  H   -0.000000  -0.000000   0.000000   0.000000   0.000000   0.000000
    39  C   -0.000000   0.000000  -0.000000   0.000000  -0.000000   0.000000
    40  H    0.000000  -0.000000   0.000000  -0.000000   0.000000  -0.000000
    41  H   -0.000000  -0.000000  -0.000000   0.000000   0.000000  -0.000000
    42  H   -0.000000   0.000000   0.000000   0.000000  -0.000000   0.000000
               7          8          9         10         11         12
     1  C   -0.041743  -0.005327   0.008140  -0.000309   0.014436  -0.000538
     2  C    0.408015   0.005494  -0.036770   0.005494   0.007095  -0.000231
     3  C    0.013562   0.384647   0.000606   0.007813  -0.052367   0.024471
     4  C   -0.041744  -0.000309   0.403966  -0.005330   0.014438   0.003665
     5  C   -0.003152  -0.047987   0.010869  -0.047985   0.099074  -0.122219
     6  C    0.013562   0.007811  -0.038626   0.384647  -0.052397  -0.020295
     7  H    0.513327  -0.000152  -0.004575  -0.000152  -0.000213  -0.000006
     8  H   -0.000152   0.509224   0.000024  -0.000149  -0.009424   0.000067
     9  H   -0.004575   0.000024   0.519253  -0.003835  -0.001343   0.000031
    10  H   -0.000152  -0.000149  -0.003835   0.509226  -0.009427   0.001769
    11  C   -0.000213  -0.009424  -0.001343  -0.009427   5.215819   0.463396
    12  C   -0.000006   0.000067   0.000031   0.001769   0.463396   5.307949
    13  C   -0.000006   0.001770   0.000008   0.000067   0.463385  -0.077033
    14  C    0.000000  -0.000148  -0.000005   0.001523  -0.025870   0.206741
    15  C    0.000000   0.001523  -0.000000  -0.000148  -0.025933  -0.057556
    16  C   -0.000000   0.000164  -0.000000   0.000164  -0.033445   0.005105
    17  H   -0.000002  -0.000003   0.000006  -0.000828  -0.029704   0.384510
    18  H   -0.000002  -0.000828  -0.000000  -0.000003  -0.029715   0.006343
    19  H    0.000000  -0.000001  -0.000000  -0.000033   0.006693   0.007419
    20  H    0.000000  -0.000033   0.000000  -0.000001   0.006699   0.002710
    21  H   -0.004575  -0.003835  -0.000149   0.000024  -0.001343   0.000008
    22  C   -0.000000   0.000032  -0.000000   0.000032  -0.015669   0.028849
    23  C   -0.000000  -0.000000   0.000000   0.000001  -0.001753  -0.008311
    24  C   -0.000000   0.000001  -0.000000  -0.000000  -0.001757   0.013764
    25  N   -0.000000  -0.000000  -0.000000   0.000000  -0.000021  -0.000008
    26  N   -0.000000   0.000000  -0.000000  -0.000000  -0.000021   0.000200
    27  C   -0.000000  -0.000001  -0.000000  -0.000000  -0.000046  -0.000019
    28  H    0.000000   0.000000   0.000000  -0.000000   0.000004   0.000004
    29  H    0.000000   0.000002  -0.000000  -0.000000  -0.000137   0.000175
    30  H   -0.000000   0.000000   0.000000   0.000000   0.000000  -0.000004
    31  C   -0.000000  -0.000000   0.000000   0.000000  -0.000001  -0.000005
    32  H    0.000000   0.000000   0.000000  -0.000000   0.000000   0.000000
    33  H    0.000000  -0.000000  -0.000000   0.000000  -0.000000  -0.000000
    34  H    0.000000  -0.000000  -0.000000   0.000000   0.000000  -0.000001
    35  C   -0.000000  -0.000000  -0.000000  -0.000001  -0.000047   0.000292
    36  H    0.000000  -0.000000   0.000000   0.000000   0.000004  -0.000093
    37  H    0.000000  -0.000000  -0.000000   0.000002  -0.000137  -0.000385
    38  H   -0.000000   0.000000   0.000000   0.000000   0.000000   0.000036
    39  C   -0.000000   0.000000  -0.000000  -0.000000  -0.000001   0.000016
    40  H    0.000000  -0.000000   0.000000   0.000000   0.000000  -0.000001
    41  H    0.000000   0.000000   0.000000  -0.000000  -0.000000   0.000001
    42  H    0.000000   0.000000  -0.000000  -0.000000   0.000000   0.000001
              13         14         15         16         17         18
     1  C    0.003664   0.000399  -0.000701  -0.000022   0.000012   0.001187
     2  C   -0.000232  -0.000039  -0.000039   0.000018  -0.000010  -0.000010
     3  C   -0.020311  -0.000828   0.001645   0.001045  -0.000086   0.000182
     4  C   -0.000536  -0.000701   0.000398  -0.000022   0.001187   0.000012
     5  C   -0.122150   0.044145   0.044101  -0.011529  -0.012164  -0.012159
     6  C    0.024476   0.001641  -0.000830   0.001047   0.000183  -0.000086
     7  H   -0.000006   0.000000   0.000000  -0.000000  -0.000002  -0.000002
     8  H    0.001770  -0.000148   0.001523   0.000164  -0.000003  -0.000828
     9  H    0.000008  -0.000005  -0.000000  -0.000000   0.000006  -0.000000
    10  H    0.000067   0.001523  -0.000148   0.000164  -0.000828  -0.000003
    11  C    0.463385  -0.025870  -0.025933  -0.033445  -0.029704  -0.029715
    12  C   -0.077033   0.206741  -0.057556   0.005105   0.384510   0.006343
    13  C    5.307805  -0.057562   0.206931   0.005014   0.006342   0.384514
    14  C   -0.057562   5.354086  -0.120093   0.393514  -0.015667   0.001764
    15  C    0.206931  -0.120093   5.353697   0.393742   0.001764  -0.015669
    16  C    0.005014   0.393514   0.393742   5.693493   0.007913   0.007914
    17  H    0.006342  -0.015667   0.001764   0.007913   0.482716  -0.000133
    18  H    0.384514   0.001764  -0.015669   0.007914  -0.000133   0.482728
    19  H    0.002714   0.393631  -0.000469  -0.082418  -0.003249   0.000035
    20  H    0.007430  -0.000457   0.393618  -0.082394   0.000035  -0.003251
    21  H    0.000031  -0.000000  -0.000005  -0.000000  -0.000000   0.000006
    22  C    0.028858  -0.052296  -0.052206   0.092761   0.000043   0.000042
    23  C    0.013749   0.042854  -0.058896  -0.228022   0.000076   0.000158
    24  C   -0.008309  -0.058927   0.042830  -0.228217   0.000158   0.000076
    25  N    0.000199   0.000062   0.000596  -0.010211   0.000000   0.000001
    26  N   -0.000008   0.000587   0.000065  -0.010186   0.000001   0.000000
    27  C    0.000290   0.000027  -0.003572  -0.015906  -0.000000   0.000000
    28  H   -0.000093  -0.000030   0.000197  -0.000053   0.000000  -0.000002
    29  H   -0.000380  -0.000680   0.004790  -0.021094   0.000000  -0.000009
    30  H    0.000036   0.000028  -0.000120   0.001024   0.000000   0.000000
    31  C    0.000016   0.000063  -0.000025  -0.002828   0.000000   0.000000
    32  H   -0.000001  -0.000002   0.000009  -0.000011   0.000000  -0.000000
    33  H    0.000001   0.000001  -0.000021   0.000136  -0.000000   0.000000
    34  H    0.000001   0.000013   0.000011  -0.000280  -0.000000  -0.000000
    35  C   -0.000019  -0.003599   0.000030  -0.015871   0.000001  -0.000000
    36  H    0.000004   0.000197  -0.000030  -0.000053  -0.000002   0.000000
    37  H    0.000175   0.004810  -0.000682  -0.021116  -0.000009   0.000000
    38  H   -0.000004  -0.000120   0.000028   0.001025   0.000000   0.000000
    39  C   -0.000005  -0.000027   0.000063  -0.002829   0.000000   0.000000
    40  H    0.000000   0.000009  -0.000002  -0.000010  -0.000000   0.000000
    41  H   -0.000000  -0.000021   0.000001   0.000137   0.000000  -0.000000
    42  H   -0.000001   0.000011   0.000013  -0.000278  -0.000000  -0.000000
              19         20         21         22         23         24
     1  C   -0.000000  -0.000000   0.403969  -0.000004   0.000000  -0.000000
     2  C   -0.000000  -0.000000  -0.036772   0.000001   0.000000   0.000000
     3  C   -0.000012   0.000023  -0.038628   0.000188   0.000018  -0.000005
     4  C   -0.000000  -0.000000   0.008141  -0.000004  -0.000000   0.000000
     5  C   -0.000595  -0.000595   0.010869  -0.004657  -0.000092  -0.000092
     6  C    0.000022  -0.000012   0.000606   0.000188  -0.000005   0.000018
     7  H    0.000000   0.000000  -0.004575  -0.000000  -0.000000  -0.000000
     8  H   -0.000001  -0.000033  -0.003835   0.000032  -0.000000   0.000001
     9  H   -0.000000   0.000000  -0.000149  -0.000000   0.000000  -0.000000
    10  H   -0.000033  -0.000001   0.000024   0.000032   0.000001  -0.000000
    11  C    0.006693   0.006699  -0.001343  -0.015669  -0.001753  -0.001757
    12  C    0.007419   0.002710   0.000008   0.028849  -0.008311   0.013764
    13  C    0.002714   0.007430   0.000031   0.028858   0.013749  -0.008309
    14  C    0.393631  -0.000457  -0.000000  -0.052296   0.042854  -0.058927
    15  C   -0.000469   0.393618  -0.000005  -0.052206  -0.058896   0.042830
    16  C   -0.082418  -0.082394  -0.000000   0.092761  -0.228022  -0.228217
    17  H   -0.003249   0.000035  -0.000000   0.000043   0.000076   0.000158
    18  H    0.000035  -0.003251   0.000006   0.000042   0.000158   0.000076
    19  H    0.512168  -0.000208   0.000000   0.002981   0.005153  -0.000227
    20  H   -0.000208   0.512207  -0.000000   0.002941  -0.000218   0.005144
    21  H    0.000000  -0.000000   0.519253  -0.000000  -0.000000   0.000000
    22  C    0.002981   0.002941  -0.000000   6.705174  -0.014156  -0.013186
    23  C    0.005153  -0.000218  -0.000000  -0.014156   6.060259  -0.219471
    24  C   -0.000227   0.005144   0.000000  -0.013186  -0.219471   6.059789
    25  N    0.000026   0.000133  -0.000000  -0.140640   0.562218  -0.093990
    26  N    0.000136   0.000026  -0.000000  -0.140668  -0.093980   0.562095
    27  C   -0.000004  -0.001536  -0.000000  -0.001859  -0.041587  -0.003684
    28  H    0.000000  -0.000044   0.000000   0.005630  -0.003095  -0.001972
    29  H   -0.000012  -0.000646  -0.000000   0.011001  -0.018659   0.020508
    30  H    0.000000   0.000266   0.000000  -0.003225   0.006185  -0.000817
    31  C    0.000003   0.000014  -0.000000  -0.014345  -0.053823  -0.006371
    32  H    0.000000   0.000006   0.000000   0.001085   0.007805  -0.001388
    33  H   -0.000000  -0.000000   0.000000  -0.002521  -0.004378   0.003344
    34  H   -0.000001   0.000002  -0.000000   0.008158  -0.011300  -0.003018
    35  C   -0.001543  -0.000004  -0.000000  -0.001997  -0.003693  -0.041487
    36  H   -0.000043   0.000000   0.000000   0.005625  -0.001967  -0.003021
    37  H   -0.000649  -0.000012  -0.000000   0.011100   0.020521  -0.018680
    38  H    0.000266   0.000000   0.000000  -0.003233  -0.000823   0.006100
    39  C    0.000014   0.000003   0.000000  -0.014408  -0.006281  -0.053957
    40  H    0.000006   0.000000   0.000000   0.001078  -0.001377   0.007930
    41  H   -0.000000  -0.000000  -0.000000  -0.002524   0.003362  -0.004513
    42  H    0.000002  -0.000001  -0.000000   0.008049  -0.003103  -0.011374
              25         26         27         28         29         30
     1  C    0.000000  -0.000000   0.000000  -0.000000  -0.000000   0.000000
     2  C    0.000000   0.000000   0.000000  -0.000000   0.000000  -0.000000
     3  C    0.000000   0.000000   0.000000  -0.000000   0.000002   0.000000
     4  C   -0.000000   0.000000  -0.000000   0.000000   0.000000  -0.000000
     5  C   -0.000001  -0.000001  -0.000005   0.000000  -0.000024   0.000000
     6  C    0.000000   0.000000  -0.000000   0.000000   0.000000   0.000000
     7  H   -0.000000  -0.000000  -0.000000   0.000000   0.000000  -0.000000
     8  H   -0.000000   0.000000  -0.000001   0.000000   0.000002   0.000000
     9  H   -0.000000  -0.000000  -0.000000   0.000000  -0.000000   0.000000
    10  H    0.000000  -0.000000  -0.000000  -0.000000  -0.000000   0.000000
    11  C   -0.000021  -0.000021  -0.000046   0.000004  -0.000137   0.000000
    12  C   -0.000008   0.000200  -0.000019   0.000004   0.000175  -0.000004
    13  C    0.000199  -0.000008   0.000290  -0.000093  -0.000380   0.000036
    14  C    0.000062   0.000587   0.000027  -0.000030  -0.000680   0.000028
    15  C    0.000596   0.000065  -0.003572   0.000197   0.004790  -0.000120
    16  C   -0.010211  -0.010186  -0.015906  -0.000053  -0.021094   0.001024
    17  H    0.000000   0.000001  -0.000000   0.000000   0.000000   0.000000
    18  H    0.000001   0.000000   0.000000  -0.000002  -0.000009   0.000000
    19  H    0.000026   0.000136  -0.000004   0.000000  -0.000012   0.000000
    20  H    0.000133   0.000026  -0.001536  -0.000044  -0.000646   0.000266
    21  H   -0.000000  -0.000000  -0.000000   0.000000  -0.000000   0.000000
    22  C   -0.140640  -0.140668  -0.001859   0.005630   0.011001  -0.003225
    23  C    0.562218  -0.093980  -0.041587  -0.003095  -0.018659   0.006185
    24  C   -0.093990   0.562095  -0.003684  -0.001972   0.020508  -0.000817
    25  N    6.470119  -0.000091   0.210383  -0.034176  -0.026763  -0.041331
    26  N   -0.000091   6.470396  -0.000617  -0.000000   0.000092  -0.000004
    27  C    0.210383  -0.000617   4.926470   0.414151   0.394125   0.414077
    28  H   -0.034176  -0.000000   0.414151   0.500917  -0.016853  -0.029509
    29  H   -0.026763   0.000092   0.394125  -0.016853   0.521846  -0.021774
    30  H   -0.041331  -0.000004   0.414077  -0.029509  -0.021774   0.507386
    31  C    0.222297  -0.000029  -0.055369  -0.010000   0.007901   0.001294
    32  H   -0.038178  -0.000002  -0.001496   0.004309   0.000409  -0.002574
    33  H   -0.037020  -0.000062  -0.006997  -0.000485  -0.000279   0.003714
    34  H   -0.027367  -0.001771   0.009006  -0.000171  -0.000470   0.000162
    35  C   -0.000617   0.210314  -0.000006  -0.000001   0.000010   0.000000
    36  H   -0.000000  -0.034147  -0.000001  -0.000000  -0.000000   0.000000
    37  H    0.000092  -0.026824   0.000010  -0.000000  -0.000004   0.000000
    38  H   -0.000004  -0.041359   0.000000   0.000000   0.000000  -0.000000
    39  C   -0.000035   0.222118  -0.000147   0.000002   0.000029  -0.000001
    40  H   -0.000002  -0.038068  -0.000001  -0.000000  -0.000000   0.000000
    41  H   -0.000062  -0.037049   0.000008   0.000000   0.000000  -0.000000
    42  H   -0.001744  -0.027204  -0.000038   0.000005   0.000010  -0.000005
              31         32         33         34         35         36
     1  C    0.000000  -0.000000   0.000000   0.000000  -0.000000   0.000000
     2  C    0.000000  -0.000000  -0.000000   0.000000   0.000000  -0.000000
     3  C    0.000000  -0.000000  -0.000000   0.000000  -0.000000   0.000000
     4  C   -0.000000   0.000000  -0.000000  -0.000000   0.000000  -0.000000
     5  C   -0.000000   0.000000   0.000000  -0.000000  -0.000005   0.000000
     6  C   -0.000000   0.000000  -0.000000   0.000000   0.000000  -0.000000
     7  H   -0.000000   0.000000   0.000000   0.000000  -0.000000   0.000000
     8  H   -0.000000   0.000000  -0.000000  -0.000000  -0.000000  -0.000000
     9  H    0.000000   0.000000  -0.000000  -0.000000  -0.000000   0.000000
    10  H    0.000000  -0.000000   0.000000   0.000000  -0.000001   0.000000
    11  C   -0.000001   0.000000  -0.000000   0.000000  -0.000047   0.000004
    12  C   -0.000005   0.000000  -0.000000  -0.000001   0.000292  -0.000093
    13  C    0.000016  -0.000001   0.000001   0.000001  -0.000019   0.000004
    14  C    0.000063  -0.000002   0.000001   0.000013  -0.003599   0.000197
    15  C   -0.000025   0.000009  -0.000021   0.000011   0.000030  -0.000030
    16  C   -0.002828  -0.000011   0.000136  -0.000280  -0.015871  -0.000053
    17  H    0.000000   0.000000  -0.000000  -0.000000   0.000001  -0.000002
    18  H    0.000000  -0.000000   0.000000  -0.000000  -0.000000   0.000000
    19  H    0.000003   0.000000  -0.000000  -0.000001  -0.001543  -0.000043
    20  H    0.000014   0.000006  -0.000000   0.000002  -0.000004   0.000000
    21  H   -0.000000   0.000000   0.000000  -0.000000  -0.000000   0.000000
    22  C   -0.014345   0.001085  -0.002521   0.008158  -0.001997   0.005625
    23  C   -0.053823   0.007805  -0.004378  -0.011300  -0.003693  -0.001967
    24  C   -0.006371  -0.001388   0.003344  -0.003018  -0.041487  -0.003021
    25  N    0.222297  -0.038178  -0.037020  -0.027367  -0.000617  -0.000000
    26  N   -0.000029  -0.000002  -0.000062  -0.001771   0.210314  -0.034147
    27  C   -0.055369  -0.001496  -0.006997   0.009006  -0.000006  -0.000001
    28  H   -0.010000   0.004309  -0.000485  -0.000171  -0.000001  -0.000000
    29  H    0.007901   0.000409  -0.000279  -0.000470   0.000010  -0.000000
    30  H    0.001294  -0.002574   0.003714   0.000162   0.000000   0.000000
    31  C    4.930946   0.406649   0.421720   0.397759  -0.000150   0.000002
    32  H    0.406649   0.504789  -0.027260  -0.020992  -0.000001  -0.000000
    33  H    0.421720  -0.027260   0.495593  -0.021808   0.000008   0.000000
    34  H    0.397759  -0.020992  -0.021808   0.538700  -0.000037   0.000005
    35  C   -0.000150  -0.000001   0.000008  -0.000037   4.926476   0.414097
    36  H    0.000002  -0.000000   0.000000   0.000005   0.414097   0.500837
    37  H    0.000029  -0.000000   0.000000   0.000010   0.394097  -0.016825
    38  H   -0.000001   0.000000  -0.000000  -0.000005   0.414162  -0.029486
    39  C   -0.003597   0.000123   0.000046  -0.003384  -0.055156  -0.010072
    40  H    0.000122  -0.000003   0.000006   0.000323  -0.001508   0.004287
    41  H    0.000046   0.000006  -0.000009  -0.000422  -0.006973  -0.000473
    42  H   -0.003462   0.000324  -0.000410   0.000811   0.008985  -0.000167
              37         38         39         40         41         42
     1  C    0.000000  -0.000000  -0.000000   0.000000  -0.000000  -0.000000
     2  C    0.000000  -0.000000   0.000000  -0.000000  -0.000000   0.000000
     3  C    0.000000   0.000000  -0.000000   0.000000  -0.000000   0.000000
     4  C   -0.000000   0.000000   0.000000  -0.000000   0.000000   0.000000
     5  C   -0.000024   0.000000  -0.000000   0.000000   0.000000  -0.000000
     6  C    0.000002   0.000000   0.000000  -0.000000  -0.000000   0.000000
     7  H    0.000000  -0.000000  -0.000000   0.000000   0.000000   0.000000
     8  H   -0.000000   0.000000   0.000000  -0.000000   0.000000   0.000000
     9  H   -0.000000   0.000000  -0.000000   0.000000   0.000000  -0.000000
    10  H    0.000002   0.000000  -0.000000   0.000000  -0.000000  -0.000000
    11  C   -0.000137   0.000000  -0.000001   0.000000  -0.000000   0.000000
    12  C   -0.000385   0.000036   0.000016  -0.000001   0.000001   0.000001
    13  C    0.000175  -0.000004  -0.000005   0.000000  -0.000000  -0.000001
    14  C    0.004810  -0.000120  -0.000027   0.000009  -0.000021   0.000011
    15  C   -0.000682   0.000028   0.000063  -0.000002   0.000001   0.000013
    16  C   -0.021116   0.001025  -0.002829  -0.000010   0.000137  -0.000278
    17  H   -0.000009   0.000000   0.000000  -0.000000   0.000000  -0.000000
    18  H    0.000000   0.000000   0.000000   0.000000  -0.000000  -0.000000
    19  H   -0.000649   0.000266   0.000014   0.000006  -0.000000   0.000002
    20  H   -0.000012   0.000000   0.000003   0.000000  -0.000000  -0.000001
    21  H   -0.000000   0.000000   0.000000   0.000000  -0.000000  -0.000000
    22  C    0.011100  -0.003233  -0.014408   0.001078  -0.002524   0.008049
    23  C    0.020521  -0.000823  -0.006281  -0.001377   0.003362  -0.003103
    24  C   -0.018680   0.006100  -0.053957   0.007930  -0.004513  -0.011374
    25  N    0.000092  -0.000004  -0.000035  -0.000002  -0.000062  -0.001744
    26  N   -0.026824  -0.041359   0.222118  -0.038068  -0.037049  -0.027204
    27  C    0.000010   0.000000  -0.000147  -0.000001   0.000008  -0.000038
    28  H   -0.000000   0.000000   0.000002  -0.000000   0.000000   0.000005
    29  H   -0.000004   0.000000   0.000029  -0.000000   0.000000   0.000010
    30  H    0.000000  -0.000000  -0.000001   0.000000  -0.000000  -0.000005
    31  C    0.000029  -0.000001  -0.003597   0.000122   0.000046  -0.003462
    32  H   -0.000000   0.000000   0.000123  -0.000003   0.000006   0.000324
    33  H    0.000000  -0.000000   0.000046   0.000006  -0.000009  -0.000410
    34  H    0.000010  -0.000005  -0.003384   0.000323  -0.000422   0.000811
    35  C    0.394097   0.414162  -0.055156  -0.001508  -0.006973   0.008985
    36  H   -0.016825  -0.029486  -0.010072   0.004287  -0.000473  -0.000167
    37  H    0.521979  -0.021827   0.007883   0.000416  -0.000282  -0.000469
    38  H   -0.021827   0.507344   0.001387  -0.002588   0.003683   0.000160
    39  C    0.007883   0.001387   4.931516   0.406385   0.421875   0.398016
    40  H    0.000416  -0.002588   0.406385   0.504678  -0.027144  -0.020969
    41  H   -0.000282   0.003683   0.421875  -0.027144   0.495429  -0.021916
    42  H   -0.000469   0.000160   0.398016  -0.020969  -0.021916   0.538299
 Mulliken charges:
               1
     1  C   -0.108955
     2  C   -0.136170
     3  C   -0.141475
     4  C   -0.108952
     5  C   -0.000270
     6  C   -0.141481
     7  H    0.147854
     8  H    0.157437
     9  H    0.142400
    10  H    0.157437
    11  C   -0.000273
    12  C   -0.170819
    13  C   -0.170831
    14  C   -0.109034
    15  C   -0.109058
    16  C    0.162581
    17  H    0.176908
    18  H    0.176901
    19  H    0.158194
    20  H    0.158153
    21  H    0.142400
    22  C   -0.436218
    23  C    0.052629
    24  C    0.052708
    25  N   -0.013867
    26  N   -0.013943
    27  C   -0.235658
    28  H    0.171266
    29  H    0.146886
    30  H    0.165191
    31  C   -0.238856
    32  H    0.166393
    33  H    0.176679
    34  H    0.136063
    35  C   -0.235757
    36  H    0.171323
    37  H    0.146798
    38  H    0.165259
    39  C   -0.239573
    40  H    0.166434
    41  H    0.176840
    42  H    0.136454
 Sum of Mulliken charges =   1.00000
 Mulliken charges with hydrogens summed into heavy atoms:
               1
     1  C    0.033445
     2  C    0.011684
     3  C    0.015962
     4  C    0.033448
     5  C   -0.000270
     6  C    0.015956
    11  C   -0.000273
    12  C    0.006089
    13  C    0.006070
    14  C    0.049160
    15  C    0.049095
    16  C    0.162581
    22  C   -0.436218
    23  C    0.052629
    24  C    0.052708
    25  N   -0.013867
    26  N   -0.013943
    27  C    0.247685
    31  C    0.240280
    35  C    0.247623
    39  C    0.240154
 Electronic spatial extent (au):  <R**2>=           9904.5075
 Charge=              1.0000 electrons
 Dipole moment (field-independent basis, Debye):
    X=             11.8406    Y=              0.0004    Z=              0.0017  Tot=             11.8406
 Quadrupole moment (field-independent basis, Debye-Ang):
   XX=            -23.7345   YY=            -83.9573   ZZ=           -125.8782
   XY=              0.0018   XZ=              0.0061   YZ=             -0.3703
 Traceless Quadrupole moment (field-independent basis, Debye-Ang):
   XX=             54.1222   YY=             -6.1007   ZZ=            -48.0215
   XY=              0.0018   XZ=              0.0061   YZ=             -0.3703
 Octapole moment (field-independent basis, Debye-Ang**2):
  XXX=            195.5809  YYY=              0.0209  ZZZ=              0.0154  XYY=             90.5327
  XXY=              0.0081  XXZ=              0.0361  XZZ=             37.5927  YZZ=             -0.0064
  YYZ=             -0.0021  XYZ=             -6.4680
 Hexadecapole moment (field-independent basis, Debye-Ang**3):
 XXXX=          -7930.2004 YYYY=          -1711.5372 ZZZZ=           -223.2788 XXXY=              0.0733
 XXXZ=              0.0025 YYYX=              0.0963 YYYZ=             -1.3407 ZZZX=              0.0856
 ZZZY=              0.7229 XXYY=          -1625.3680 XXZZ=          -1984.6799 YYZZ=           -354.3225
 XXYZ=             60.7946 YYXZ=             -0.0399 ZZXY=             -0.0579
 N-N= 1.487460204840D+03 E-N=-4.917902246670D+03  KE= 8.404424914812D+02
 No NMR shielding tensors so no spin-rotation constants.
 Leave Link  601 at Thu Jan 21 00:47:15 2021, MaxMem=  4026531840 cpu:               2.7 elap:               0.4
 (Enter /opt/ohpc/pub/libs/gaussian/g16-A.03/sandybridge/g16/l9999.exe)

 Test job not archived.
 1\1\GINC-CASCADEB025\SP\RLC-wHPBE\TZVP\C19H21N2(1+)\RDU230\21-Jan-2021
 \0\\#P LC-wHPBE/TZVP iop(3/107=0328100000, 3/108=0328100000) scf=(conv
 er=6,fermi,ndamp=35,noincfock,novaracc,vshift=500,xqc)\\H21 C19 N2\\1,
 1\C,0,5.924302,-1.175178,0.28256\C,0,6.625626,0.000025,-0.000251\C,0,4
 .530324,-1.177472,0.278212\C,0,5.924206,1.175202,-0.282951\C,0,3.81093
 6,-0.000036,-0.000021\C,0,4.530233,1.177435,-0.278371\H,0,7.716547,0.0
 00056,-0.000331\H,0,3.994064,-2.094974,0.527939\H,0,6.466302,2.09321,-
 0.514746\H,0,3.99388,2.094904,-0.52801\C,0,2.333716,-0.000062,0.000109
 \C,0,1.604784,1.119278,0.452707\C,0,1.604752,-1.119433,-0.452341\C,0,0
 .21685,1.12577,0.449243\C,0,0.216813,-1.125977,-0.44867\C,0,-0.504919,
 -0.000106,0.000309\H,0,2.141671,1.985727,0.840835\H,0,2.141597,-1.9858
 91,-0.840507\H,0,-0.315693,1.995203,0.838189\H,0,-0.315745,-1.995465,-
 0.837475\H,0,6.466484,-2.093156,0.514265\C,0,-1.942874,-0.000086,0.000
 402\C,0,-3.143323,-0.702637,-0.003392\C,0,-3.143127,0.702801,0.003915\
 N,0,-3.78708,-1.855019,0.001668\N,0,-3.786774,1.855252,-0.001097\C,0,-
 3.068411,-3.12252,0.167733\H,0,-3.187886,-3.74858,-0.728596\H,0,-2.005
 788,-2.927607,0.341041\H,0,-3.471162,-3.663551,1.036238\C,0,-5.245121,
 -1.94416,-0.100275\H,0,-5.509149,-2.713998,-0.838669\H,0,-5.688951,-2.
 217262,0.869111\H,0,-5.659251,-0.989594,-0.439085\C,0,-3.068047,3.1226
 16,-0.16813\H,0,-3.188116,3.749602,0.727455\H,0,-2.005304,2.927538,-0.
 340531\H,0,-3.470192,3.662707,-1.037509\C,0,-5.24495,1.944232,0.099391
 \H,0,-5.509538,2.71844,0.832954\H,0,-5.688631,2.211256,-0.871774\H,0,-
 5.658779,0.991638,0.444142\\Version=EM64L-G16RevA.03\State=1-A\HF=-845
 .4983104\RMSD=8.580e-07\Dipole=-4.6584613,0.0001611,-0.0006653\Quadrup
 ole=40.2385066,-4.5356853,-35.7028213,-0.0013335,0.0045348,0.2753095\P
 G=C01 [X(C19H21N2)]\\@


 IF THE FACTS DO NOT CONFORM TO THE THEORY, THEY MUST BE DISPOSED OF.
 Job cpu time:       0 days  0 hours 56 minutes 44.3 seconds.
 Elapsed time:       0 days  0 hours  7 minutes  7.1 seconds.
 File lengths (MBytes):  RWF=    136 Int=      0 D2E=      0 Chk=     24 Scr=      8
 Normal termination of Gaussian 16 at Thu Jan 21 00:47:15 2021.
