 Entering Gaussian System, Link 0=g16
 Input=mol_bp_cp_half_tune_c8.gjf
 Output=mol_bp_cp_half_tune_c8.log
 Initial command:
 /opt/ohpc/pub/libs/gaussian/g16-A.03/sandybridge/g16/l1.exe "/mnt/gpfs2_4m/scratch/rdu230/ondemand/projects/init_structures/wtuning/mol_bp_cp_half/tuning_mol_bp_cp_half_ocycle0/Gau-283387.inp" -scrdir="/mnt/gpfs2_4m/scratch/rdu230/ondemand/projects/init_structures/wtuning/mol_bp_cp_half/tuning_mol_bp_cp_half_ocycle0/"
 Entering Link 1 = /opt/ohpc/pub/libs/gaussian/g16-A.03/sandybridge/g16/l1.exe PID=    283388.
  
 Copyright (c) 1988,1990,1992,1993,1995,1998,2003,2009,2016,
            Gaussian, Inc.  All Rights Reserved.
  
 This is part of the Gaussian(R) 16 program.  It is based on
 the Gaussian(R) 09 system (copyright 2009, Gaussian, Inc.),
 the Gaussian(R) 03 system (copyright 2003, Gaussian, Inc.),
 the Gaussian(R) 98 system (copyright 1998, Gaussian, Inc.),
 the Gaussian(R) 94 system (copyright 1995, Gaussian, Inc.),
 the Gaussian 92(TM) system (copyright 1992, Gaussian, Inc.),
 the Gaussian 90(TM) system (copyright 1990, Gaussian, Inc.),
 the Gaussian 88(TM) system (copyright 1988, Gaussian, Inc.),
 the Gaussian 86(TM) system (copyright 1986, Carnegie Mellon
 University), and the Gaussian 82(TM) system (copyright 1983,
 Carnegie Mellon University). Gaussian is a federally registered
 trademark of Gaussian, Inc.
  
 This software contains proprietary and confidential information,
 including trade secrets, belonging to Gaussian, Inc.
  
 This software is provided under written license and may be
 used, copied, transmitted, or stored only in accord with that
 written license.
  
 The following legend is applicable only to US Government
 contracts under FAR:
  
                    RESTRICTED RIGHTS LEGEND
  
 Use, reproduction and disclosure by the US Government is
 subject to restrictions as set forth in subparagraphs (a)
 and (c) of the Commercial Computer Software - Restricted
 Rights clause in FAR 52.227-19.
  
 Gaussian, Inc.
 340 Quinnipiac St., Bldg. 40, Wallingford CT 06492
  
  
 ---------------------------------------------------------------
 Warning -- This program may not be used in any manner that
 competes with the business of Gaussian, Inc. or will provide
 assistance to any competitor of Gaussian, Inc.  The licensee
 of this program is prohibited from giving any competitor of
 Gaussian, Inc. access to this program.  By using this program,
 the user acknowledges that Gaussian, Inc. is engaged in the
 business of creating and licensing software in the field of
 computational chemistry and represents and warrants to the
 licensee that it is not a competitor of Gaussian, Inc. and that
 it will not use this program in any manner prohibited above.
 ---------------------------------------------------------------
  

 Cite this work as:
 Gaussian 16, Revision A.03,
 M. J. Frisch, G. W. Trucks, H. B. Schlegel, G. E. Scuseria, 
 M. A. Robb, J. R. Cheeseman, G. Scalmani, V. Barone, 
 G. A. Petersson, H. Nakatsuji, X. Li, M. Caricato, A. V. Marenich, 
 J. Bloino, B. G. Janesko, R. Gomperts, B. Mennucci, H. P. Hratchian, 
 J. V. Ortiz, A. F. Izmaylov, J. L. Sonnenberg, D. Williams-Young, 
 F. Ding, F. Lipparini, F. Egidi, J. Goings, B. Peng, A. Petrone, 
 T. Henderson, D. Ranasinghe, V. G. Zakrzewski, J. Gao, N. Rega, 
 G. Zheng, W. Liang, M. Hada, M. Ehara, K. Toyota, R. Fukuda, 
 J. Hasegawa, M. Ishida, T. Nakajima, Y. Honda, O. Kitao, H. Nakai, 
 T. Vreven, K. Throssell, J. A. Montgomery, Jr., J. E. Peralta, 
 F. Ogliaro, M. J. Bearpark, J. J. Heyd, E. N. Brothers, K. N. Kudin, 
 V. N. Staroverov, T. A. Keith, R. Kobayashi, J. Normand, 
 K. Raghavachari, A. P. Rendell, J. C. Burant, S. S. Iyengar, 
 J. Tomasi, M. Cossi, J. M. Millam, M. Klene, C. Adamo, R. Cammi, 
 J. W. Ochterski, R. L. Martin, K. Morokuma, O. Farkas, 
 J. B. Foresman, and D. J. Fox, Gaussian, Inc., Wallingford CT, 2016.
 
 ******************************************
 Gaussian 16:  EM64L-G16RevA.03 25-Dec-2016
                21-Jan-2021 
 ******************************************
 %mem=30GB
 %nproc=8
 Will use up to    8 processors via shared memory.
 ----------------------------------------------------------------------
 #P LC-wHPBE/TZVP iop(3/107=0211700000, 3/108=0211700000) scf=(conver=6
 ,fermi,ndamp=35,noincfock,novaracc,vshift=500,xqc)
 ----------------------------------------------------------------------
 1/38=1,172=1/1;
 2/12=2,17=6,18=5,40=1/2;
 3/5=19,7=101,11=2,25=1,30=1,74=-71,107=211700000,108=211700000/1,2,3;
 4//1;
 5/5=100002,6=6,8=3,10=500,13=1,18=-1,22=13,38=1,93=35/2,8;
 6/7=2,8=2,9=2,10=2,28=1/1;
 99/5=1,9=1/99;
 Leave Link    1 at Thu Jan 21 05:01:43 2021, MaxMem=  4026531840 cpu:               1.8 elap:               0.3
 (Enter /opt/ohpc/pub/libs/gaussian/g16-A.03/sandybridge/g16/l101.exe)
 ----------
 H21 C19 N2
 ----------
 Symbolic Z-matrix:
 Charge =  2 Multiplicity = 2
 C                     5.9243   -1.17518   0.28256 
 C                     6.62563   0.00003  -0.00025 
 C                     4.53032  -1.17747   0.27821 
 C                     5.92421   1.1752   -0.28295 
 C                     3.81094  -0.00004  -0.00002 
 C                     4.53023   1.17744  -0.27837 
 H                     7.71655   0.00006  -0.00033 
 H                     3.99406  -2.09497   0.52794 
 H                     6.4663    2.09321  -0.51475 
 H                     3.99388   2.0949   -0.52801 
 C                     2.33372  -0.00006   0.00011 
 C                     1.60478   1.11928   0.45271 
 C                     1.60475  -1.11943  -0.45234 
 C                     0.21685   1.12577   0.44924 
 C                     0.21681  -1.12598  -0.44867 
 C                    -0.50492  -0.00011   0.00031 
 H                     2.14167   1.98573   0.84084 
 H                     2.1416   -1.98589  -0.84051 
 H                    -0.31569   1.9952    0.83819 
 H                    -0.31575  -1.99547  -0.83748 
 H                     6.46648  -2.09316   0.51427 
 C                    -1.94287  -0.00009   0.0004 
 C                    -3.14332  -0.70264  -0.00339 
 C                    -3.14313   0.7028    0.00392 
 N                    -3.78708  -1.85502   0.00167 
 N                    -3.78677   1.85525  -0.0011 
 C                    -3.06841  -3.12252   0.16773 
 H                    -3.18789  -3.74858  -0.7286 
 H                    -2.00579  -2.92761   0.34104 
 H                    -3.47116  -3.66355   1.03624 
 C                    -5.24512  -1.94416  -0.10028 
 H                    -5.50915  -2.714    -0.83867 
 H                    -5.68895  -2.21726   0.86911 
 H                    -5.65925  -0.98959  -0.43909 
 C                    -3.06805   3.12262  -0.16813 
 H                    -3.18812   3.7496    0.72746 
 H                    -2.0053    2.92754  -0.34053 
 H                    -3.47019   3.66271  -1.03751 
 C                    -5.24495   1.94423   0.09939 
 H                    -5.50954   2.71844   0.83295 
 H                    -5.68863   2.21126  -0.87177 
 H                    -5.65878   0.99164   0.44414 
 
 ITRead=  0  0  0  0  0  0  0  0  0  0  0  0  0  0  0  0  0  0  0  0
 ITRead=  0  0  0  0  0  0  0  0  0  0  0  0  0  0  0  0  0  0  0  0
 ITRead=  0  0
 MicOpt= -1 -1 -1 -1 -1 -1 -1 -1 -1 -1 -1 -1 -1 -1 -1 -1 -1 -1 -1 -1
 MicOpt= -1 -1 -1 -1 -1 -1 -1 -1 -1 -1 -1 -1 -1 -1 -1 -1 -1 -1 -1 -1
 MicOpt= -1 -1
 NAtoms=     42 NQM=       42 NQMF=       0 NMMI=      0 NMMIF=      0
                NMic=       0 NMicF=      0.
                    Isotopes and Nuclear Properties:
 (Nuclear quadrupole moments (NQMom) in fm**2, nuclear magnetic moments (NMagM)
  in nuclear magnetons)

  Atom         1           2           3           4           5           6           7           8           9          10
 IAtWgt=          12          12          12          12          12          12           1           1           1           1
 AtmWgt=  12.0000000  12.0000000  12.0000000  12.0000000  12.0000000  12.0000000   1.0078250   1.0078250   1.0078250   1.0078250
 NucSpn=           0           0           0           0           0           0           1           1           1           1
 AtZEff=  -0.0000000  -0.0000000  -0.0000000  -0.0000000  -0.0000000  -0.0000000  -0.0000000  -0.0000000  -0.0000000  -0.0000000
 NQMom=    0.0000000   0.0000000   0.0000000   0.0000000   0.0000000   0.0000000   0.0000000   0.0000000   0.0000000   0.0000000
 NMagM=    0.0000000   0.0000000   0.0000000   0.0000000   0.0000000   0.0000000   2.7928460   2.7928460   2.7928460   2.7928460
 AtZNuc=   6.0000000   6.0000000   6.0000000   6.0000000   6.0000000   6.0000000   1.0000000   1.0000000   1.0000000   1.0000000

  Atom        11          12          13          14          15          16          17          18          19          20
 IAtWgt=          12          12          12          12          12          12           1           1           1           1
 AtmWgt=  12.0000000  12.0000000  12.0000000  12.0000000  12.0000000  12.0000000   1.0078250   1.0078250   1.0078250   1.0078250
 NucSpn=           0           0           0           0           0           0           1           1           1           1
 AtZEff=  -0.0000000  -0.0000000  -0.0000000  -0.0000000  -0.0000000  -0.0000000  -0.0000000  -0.0000000  -0.0000000  -0.0000000
 NQMom=    0.0000000   0.0000000   0.0000000   0.0000000   0.0000000   0.0000000   0.0000000   0.0000000   0.0000000   0.0000000
 NMagM=    0.0000000   0.0000000   0.0000000   0.0000000   0.0000000   0.0000000   2.7928460   2.7928460   2.7928460   2.7928460
 AtZNuc=   6.0000000   6.0000000   6.0000000   6.0000000   6.0000000   6.0000000   1.0000000   1.0000000   1.0000000   1.0000000

  Atom        21          22          23          24          25          26          27          28          29          30
 IAtWgt=           1          12          12          12          14          14          12           1           1           1
 AtmWgt=   1.0078250  12.0000000  12.0000000  12.0000000  14.0030740  14.0030740  12.0000000   1.0078250   1.0078250   1.0078250
 NucSpn=           1           0           0           0           2           2           0           1           1           1
 AtZEff=  -0.0000000  -0.0000000  -0.0000000  -0.0000000  -0.0000000  -0.0000000  -0.0000000  -0.0000000  -0.0000000  -0.0000000
 NQMom=    0.0000000   0.0000000   0.0000000   0.0000000   2.0440000   2.0440000   0.0000000   0.0000000   0.0000000   0.0000000
 NMagM=    2.7928460   0.0000000   0.0000000   0.0000000   0.4037610   0.4037610   0.0000000   2.7928460   2.7928460   2.7928460
 AtZNuc=   1.0000000   6.0000000   6.0000000   6.0000000   7.0000000   7.0000000   6.0000000   1.0000000   1.0000000   1.0000000

  Atom        31          32          33          34          35          36          37          38          39          40
 IAtWgt=          12           1           1           1          12           1           1           1          12           1
 AtmWgt=  12.0000000   1.0078250   1.0078250   1.0078250  12.0000000   1.0078250   1.0078250   1.0078250  12.0000000   1.0078250
 NucSpn=           0           1           1           1           0           1           1           1           0           1
 AtZEff=  -0.0000000  -0.0000000  -0.0000000  -0.0000000  -0.0000000  -0.0000000  -0.0000000  -0.0000000  -0.0000000  -0.0000000
 NQMom=    0.0000000   0.0000000   0.0000000   0.0000000   0.0000000   0.0000000   0.0000000   0.0000000   0.0000000   0.0000000
 NMagM=    0.0000000   2.7928460   2.7928460   2.7928460   0.0000000   2.7928460   2.7928460   2.7928460   0.0000000   2.7928460
 AtZNuc=   6.0000000   1.0000000   1.0000000   1.0000000   6.0000000   1.0000000   1.0000000   1.0000000   6.0000000   1.0000000

  Atom        41          42
 IAtWgt=           1           1
 AtmWgt=   1.0078250   1.0078250
 NucSpn=           1           1
 AtZEff=  -0.0000000  -0.0000000
 NQMom=    0.0000000   0.0000000
 NMagM=    2.7928460   2.7928460
 AtZNuc=   1.0000000   1.0000000
 Leave Link  101 at Thu Jan 21 05:01:43 2021, MaxMem=  4026531840 cpu:               0.8 elap:               0.1
 (Enter /opt/ohpc/pub/libs/gaussian/g16-A.03/sandybridge/g16/l202.exe)
                          Input orientation:                          
 ---------------------------------------------------------------------
 Center     Atomic      Atomic             Coordinates (Angstroms)
 Number     Number       Type             X           Y           Z
 ---------------------------------------------------------------------
      1          6           0        5.924302   -1.175178    0.282560
      2          6           0        6.625626    0.000025   -0.000251
      3          6           0        4.530324   -1.177472    0.278212
      4          6           0        5.924206    1.175202   -0.282951
      5          6           0        3.810936   -0.000036   -0.000021
      6          6           0        4.530233    1.177435   -0.278371
      7          1           0        7.716547    0.000056   -0.000331
      8          1           0        3.994064   -2.094974    0.527939
      9          1           0        6.466302    2.093210   -0.514746
     10          1           0        3.993880    2.094904   -0.528010
     11          6           0        2.333716   -0.000062    0.000109
     12          6           0        1.604784    1.119278    0.452707
     13          6           0        1.604752   -1.119433   -0.452341
     14          6           0        0.216850    1.125770    0.449243
     15          6           0        0.216813   -1.125977   -0.448670
     16          6           0       -0.504919   -0.000106    0.000309
     17          1           0        2.141671    1.985727    0.840835
     18          1           0        2.141597   -1.985891   -0.840507
     19          1           0       -0.315693    1.995203    0.838189
     20          1           0       -0.315745   -1.995465   -0.837475
     21          1           0        6.466484   -2.093156    0.514265
     22          6           0       -1.942874   -0.000086    0.000402
     23          6           0       -3.143323   -0.702637   -0.003392
     24          6           0       -3.143127    0.702801    0.003915
     25          7           0       -3.787080   -1.855019    0.001668
     26          7           0       -3.786774    1.855252   -0.001097
     27          6           0       -3.068411   -3.122520    0.167733
     28          1           0       -3.187886   -3.748580   -0.728596
     29          1           0       -2.005788   -2.927607    0.341041
     30          1           0       -3.471162   -3.663551    1.036238
     31          6           0       -5.245121   -1.944160   -0.100275
     32          1           0       -5.509149   -2.713998   -0.838669
     33          1           0       -5.688951   -2.217262    0.869111
     34          1           0       -5.659251   -0.989594   -0.439085
     35          6           0       -3.068047    3.122616   -0.168130
     36          1           0       -3.188116    3.749602    0.727455
     37          1           0       -2.005304    2.927538   -0.340531
     38          1           0       -3.470192    3.662707   -1.037509
     39          6           0       -5.244950    1.944232    0.099391
     40          1           0       -5.509538    2.718440    0.832954
     41          1           0       -5.688631    2.211256   -0.871774
     42          1           0       -5.658779    0.991638    0.444142
 ---------------------------------------------------------------------
                    Distance matrix (angstroms):
                    1          2          3          4          5
     1  C    0.000000
     2  C    1.397476   0.000000
     3  C    1.393987   2.419573   0.000000
     4  C    2.417455   1.397480   2.791574   0.000000
     5  C    2.434569   2.814690   1.407582   2.434573   0.000000
     6  C    2.791569   2.419570   2.419788   1.393982   1.407588
     7  H    2.161792   1.090921   3.408251   2.161788   3.905611
     8  H    2.152221   3.404868   1.091672   3.882917   2.168189
     9  H    3.407612   2.161368   3.882545   1.091025   3.420174
    10  H    3.882910   3.404869   3.412655   2.152223   2.168182
    11  C    3.788533   4.291910   2.507733   3.788534   1.477220
    12  C    4.894049   5.163986   3.723479   4.381977   2.514942
    13  C    4.381974   5.163986   3.015965   4.894050   2.514934
    14  C    6.156066   6.522404   4.892876   5.754343   3.792985
    15  C    5.754350   6.522411   4.374630   6.156072   3.792987
    16  C    6.541815   7.130545   5.178522   6.541807   4.315855
    17  H    4.960977   4.975569   4.003503   4.028327   2.727039
    18  H    4.028324   4.975581   2.758820   4.960999   2.727037
    19  H    7.021223   7.270875   5.819220   6.392628   4.659683
    20  H    6.392616   7.270870   5.039668   7.021226   4.659674
    21  H    1.091023   2.161356   2.154742   3.407607   3.420172
    22  C    7.959454   8.568500   6.585265   7.959431   5.753810
    23  C    9.084431   9.794187   7.693480   9.264152   6.989662
    24  C    9.264055   9.794001   7.905221   9.084161   6.989491
    25  N    9.739200  10.576655   8.349536  10.177049   7.821177
    26  N   10.176884  10.576386   8.857175   9.738842   7.820952
    27  C    9.201859  10.185915   7.844501   9.977008   7.556683
    28  H    9.522437  10.530315   8.197257  10.366892   7.972823
    29  H    8.121623   9.120790   6.766659   8.950263   6.520834
    30  H    9.748578  10.790794   8.413024  10.650199   8.217307
    31  C   11.202406  12.029318   9.812767  11.598175   9.262928
    32  H   11.590898  12.462810  10.217600  12.089512   9.743352
    33  H   11.674657  12.542765  10.289019  12.153250   9.793842
    34  H   11.607494  12.332482  10.216519  11.785041   9.531865
    35  C    9.976798  10.185581   8.742152   9.201425   7.556429
    36  H   10.367620  10.530832   9.167998   9.522755   7.973439
    37  H    8.949814   9.120256   7.742634   8.121030   6.520375
    38  H   10.649142  10.789656   9.442813   9.747397   8.216258
    39  C   11.598123  12.029150  10.263186  11.202127   9.262782
    40  H   12.091149  12.463796  10.783538  11.591261   9.744496
    41  H   12.151569  12.541532  10.827418  11.673821   9.792423
    42  H   11.785116  12.332372  10.418752  11.607235   9.531852
                    6          7          8          9         10
     6  C    0.000000
     7  H    3.408244   0.000000
     8  H    3.412664   4.304079   0.000000
     9  H    2.154734   2.491792   4.973936   0.000000
    10  H    1.091670   4.304077   4.320892   2.472458   0.000000
    11  C    2.507735   5.382831   2.724705   4.661022   2.724690
    12  C    3.015976   6.229892   4.005713   5.051620   2.760694
    13  C    3.723481   6.229896   2.760696   5.827490   4.005699
    14  C    4.374627   7.597026   4.964547   6.396942   4.019975
    15  C    4.892883   7.597037   4.019993   7.030195   4.964535
    16  C    5.178515   8.221466   4.990763   7.296929   4.990729
    17  H    2.758838   5.977432   4.492370   4.533386   2.305718
    18  H    4.003525   5.977453   2.305684   5.953844   4.492382
    19  H    5.039687   8.318690   5.949774   6.916321   4.522042
    20  H    5.819226   8.318692   4.522025   7.925754   5.949769
    21  H    3.882539   2.491787   2.472458   4.310977   4.973927
    22  C    6.585240   9.659421   6.317759   8.681101   6.317693
    23  C    7.905299  10.882581   7.291310  10.021134   7.683822
    24  C    7.693206  10.882389   7.683856   9.723342   7.290937
    25  N    8.857307  11.652242   7.802611  10.999411   8.742184
    26  N    8.349187  11.651959   8.742174  10.268692   7.802157
    27  C    8.742312  11.229160   7.145919  10.889461   8.808038
    28  H    9.167207  11.553757   7.476209  11.286079   9.260902
    29  H    7.743036  10.159308   6.060234   9.885205   7.872540
    30  H    9.443816  11.817839   7.645155  11.588746   9.556858
    31  C   10.263217  13.107052   9.261746  12.394740  10.092380
    32  H   10.781761  13.527303   9.620908  12.908354  10.655027
    33  H   10.829238  13.615425   9.689795  12.970945  10.691302
    34  H   10.418610  13.419534   9.764399  12.511532  10.134346
    35  C    7.844090  11.228802   8.808017   9.596022   7.145384
    36  H    8.197600  11.554239   9.261889   9.873930   7.476315
    37  H    6.766090  10.158754   7.872248   8.514374   6.059590
    38  H    8.411877  11.816678   9.555974  10.073257   7.643950
    39  C    9.812486  13.106875  10.092483  11.728290   9.261334
    40  H   10.217962  13.528241  10.657412  12.067641   9.620602
    41  H   10.288153  13.614243  10.689125  12.160748   9.689310
    42  H   10.216287  13.419394  10.134672  12.212719   9.764021
                   11         12         13         14         15
    11  C    0.000000
    12  C    1.410358   0.000000
    13  C    1.410351   2.414734   0.000000
    14  C    2.439332   1.387954   2.789276   0.000000
    15  C    2.439337   2.789286   1.387959   2.424172   0.000000
    16  C    2.838635   2.430747   2.430740   1.410705   1.410697
    17  H    2.164962   1.090699   3.406260   2.144250   3.879511
    18  H    2.164962   3.406266   1.090699   3.879503   2.144244
    19  H    3.420940   2.145710   3.880017   1.091235   3.417797
    20  H    3.420939   3.880029   2.145709   3.417808   1.091236
    21  H    4.661027   5.827491   5.051624   7.030195   6.396958
    22  C    4.276590   3.747457   3.747474   2.476574   2.476599
    23  C    5.521918   5.106067   4.787430   3.852105   3.415846
    24  C    5.521761   4.787225   5.105983   3.415650   3.852072
    25  N    6.395703   6.174308   5.460683   5.011675   4.094565
    26  N    6.395513   5.460448   6.174214   4.094381   5.011662
    27  C    6.241860   6.317659   5.122041   5.377746   3.893435
    28  H    6.713456   6.932619   5.473400   6.061256   4.306783
    29  H    5.245765   5.424572   4.115209   4.624034   2.968075
    30  H    6.941997   6.998656   5.869694   6.073186   4.716502
    31  C    7.824856   7.524071   6.908320   6.289640   5.533853
    32  H    8.341434   8.183502   7.300649   7.013530   5.954876
    33  H    8.368651   8.031467   7.493301   6.799312   6.148618
    34  H    8.065952   7.616353   7.265175   6.308126   5.877654
    35  C    6.241672   5.121928   6.317500   3.893468   5.377690
    36  H    6.714137   5.474119   6.933326   4.307632   6.062020
    37  H    5.245376   4.114823   5.424295   2.967841   4.623903
    38  H    6.941028   5.869000   6.997595   4.716011   6.072251
    39  C    7.824725   6.908273   7.523887   5.533854   6.289468
    40  H    8.342692   7.301745   8.185009   5.956119   7.015212
    41  H    8.367088   7.492701   8.028876   6.148014   6.796353
    42  H    8.066016   7.264689   7.617033   5.877162   6.309040
                   16         17         18         19         20
    16  C    0.000000
    17  H    3.413862   0.000000
    18  H    3.413848   4.312848   0.000000
    19  H    2.172351   2.457384   4.970453   0.000000
    20  H    2.172355   4.970464   2.457363   4.328196   0.000000
    21  H    7.296949   5.953817   4.533383   7.925751   6.916312
    22  C    1.437955   4.618797   4.618815   2.707542   2.707605
    23  C    2.730337   5.989256   5.502534   3.997761   3.219052
    24  C    2.730244   5.502311   5.989192   3.218804   3.997833
    25  N    3.770051   7.113763   5.989624   5.251143   3.574081
    26  N    3.770004   5.989352   7.113689   3.573848   5.251247
    27  C    4.043389   7.327497   5.427030   5.849620   3.139724
    28  H    4.666977   7.984333   5.614533   6.610246   3.366669
    29  H    3.307411   6.449191   4.414033   5.228540   2.261423
    30  H    4.826238   7.965954   6.151405   6.482107   4.031125
    31  C    5.124351   8.419881   7.423832   6.379542   4.984460
    32  H    5.754252   9.134725   7.685314   7.208357   5.242875
    33  H    5.704804   8.887326   8.018342   6.827717   5.642072
    34  H    5.266810   8.446604   7.874451   6.252524   5.451931
    35  C    4.043438   5.426941   7.327300   3.139935   5.849610
    36  H    4.667826   5.615224   7.985000   3.367639   6.611000
    37  H    3.307329   4.413619   6.448918   2.261286   5.228530
    38  H    4.825568   6.150890   7.964775   4.031089   6.481162
    39  C    5.124272   7.423856   8.419641   4.984576   6.379341
    40  H    5.755867   7.686217   9.136250   5.243961   7.210182
    41  H    5.702764   8.018574   8.884227   5.642616   6.823898
    42  H    5.267145   7.873538   8.447595   5.450778   6.254066
                   21         22         23         24         25
    21  H    0.000000
    22  C    8.681146   0.000000
    23  C    9.723677   1.390924   0.000000
    24  C   10.021101   1.390924   1.405457   0.000000
    25  N   10.269130   2.615698   1.320012   2.637636   0.000000
    26  N   10.999310   2.615769   2.637580   1.320019   3.710272
    27  C    9.596557   3.323316   2.427082   3.829556   1.466500
    28  H    9.873803   4.016553   3.131402   4.511471   2.116103
    29  H    8.515028   2.947944   2.522521   3.819300   2.106803
    30  H   10.074493   4.102389   3.155205   4.498703   2.107351
    31  C   11.728664   3.833327   2.443015   3.381662   1.464316
    32  H   12.067794   4.559350   3.215648   4.240581   2.099889
    33  H   12.161247   4.438876   3.087972   3.969452   2.121507
    34  H   12.213115   3.870883   2.569449   3.064528   2.109087
    35  C   10.889317   3.323505   3.829539   2.427085   5.032166
    36  H   11.286920   4.017386   4.512048   3.131857   5.683071
    37  H    9.884798   2.948070   3.819283   2.522447   5.115142
    38  H   11.587730   4.101952   4.498052   3.154771   5.623665
    39  C   12.394769   3.833259   3.381319   2.442934   4.070533
    40  H   12.910388   4.561208   4.242902   3.217143   4.957260
    41  H   12.969036   4.436375   3.965281   3.085751   4.573116
    42  H   12.511709   3.871482   3.065677   2.570162   3.435476
                   26         27         28         29         30
    26  N    0.000000
    27  C    5.032173   0.000000
    28  H    5.682504   1.099832   0.000000
    29  H    5.115145   1.094164   1.793175   0.000000
    30  H    5.624310   1.099647   1.789445   1.781076   0.000000
    31  C    4.070890   2.489664   2.807656   3.413972   2.719356
    32  H    4.954407   2.671505   2.543765   3.702821   2.927511
    33  H    4.578309   2.859834   3.339600   3.788026   2.652974
    34  H    3.433825   3.410286   3.715302   4.208596   3.756908
    35  C    1.466520   6.254161   6.895058   6.163834   6.903989
    36  H    2.116067   6.895918   7.638247   6.792079   7.424978
    37  H    2.106810   6.163743   6.791145   5.894681   6.891058
    38  H    2.107432   6.903140   7.423092   6.890364   7.614098
    39  C    1.464340   5.514886   6.109434   5.855372   5.955773
    40  H    2.099679   6.365409   7.046336   6.663039   6.702694
    41  H    2.121763   6.032851   6.464818   6.437559   6.562853
    42  H    2.109140   4.869569   5.472686   5.358680   5.177551
                   31         32         33         34         35
    31  C    0.000000
    32  H    1.098903   0.000000
    33  H    1.100581   1.787621   0.000000
    34  H    1.094300   1.776448   1.794276   0.000000
    35  C    5.515113   6.361970   6.038154   4.868062   0.000000
    36  H    6.110264   7.044009   6.471299   5.470585   1.099818
    37  H    5.855560   6.659730   6.442162   5.357701   1.094166
    38  H    5.955312   6.697705   6.567505   5.176292   1.099654
    39  C    3.893515   4.759082   4.255307   3.011468   2.489792
    40  H    4.762423   5.683811   4.939094   3.923011   2.669533
    41  H    4.249635   4.928634   4.758409   3.230097   2.862368
    42  H    3.014368   3.924249   3.237059   2.169187   3.409961
                   36         37         38         39         40
    36  H    0.000000
    37  H    1.793161   0.000000
    38  H    1.789474   1.781053   0.000000
    39  C    2.807916   3.414049   2.719460   0.000000
    40  H    2.542327   3.701411   2.923902   1.098872   0.000000
    41  H    3.343145   3.789746   2.656247   1.100598   1.787570
    42  H    3.713598   4.208480   3.757634   1.094323   1.776314
                   41         42
    41  H    0.000000
    42  H    1.794434   0.000000
 Stoichiometry    C19H21N2(2+,2)
 Framework group  C1[X(C19H21N2)]
 Deg. of freedom   120
 Full point group                 C1      NOp   1
 Largest Abelian subgroup         C1      NOp   1
 Largest concise Abelian subgroup C1      NOp   1
                         Standard orientation:                         
 ---------------------------------------------------------------------
 Center     Atomic      Atomic             Coordinates (Angstroms)
 Number     Number       Type             X           Y           Z
 ---------------------------------------------------------------------
      1          6           0       -5.924302   -1.175178   -0.282560
      2          6           0       -6.625626    0.000025    0.000251
      3          6           0       -4.530324   -1.177472   -0.278212
      4          6           0       -5.924206    1.175202    0.282951
      5          6           0       -3.810936   -0.000036    0.000021
      6          6           0       -4.530233    1.177435    0.278371
      7          1           0       -7.716547    0.000056    0.000331
      8          1           0       -3.994064   -2.094974   -0.527939
      9          1           0       -6.466302    2.093210    0.514746
     10          1           0       -3.993880    2.094904    0.528010
     11          6           0       -2.333716   -0.000062   -0.000109
     12          6           0       -1.604784    1.119278   -0.452707
     13          6           0       -1.604752   -1.119433    0.452341
     14          6           0       -0.216850    1.125770   -0.449243
     15          6           0       -0.216813   -1.125977    0.448670
     16          6           0        0.504919   -0.000106   -0.000309
     17          1           0       -2.141671    1.985727   -0.840835
     18          1           0       -2.141597   -1.985891    0.840507
     19          1           0        0.315693    1.995203   -0.838189
     20          1           0        0.315745   -1.995465    0.837475
     21          1           0       -6.466484   -2.093156   -0.514265
     22          6           0        1.942874   -0.000086   -0.000402
     23          6           0        3.143323   -0.702637    0.003392
     24          6           0        3.143127    0.702801   -0.003915
     25          7           0        3.787080   -1.855019   -0.001668
     26          7           0        3.786774    1.855252    0.001097
     27          6           0        3.068411   -3.122520   -0.167733
     28          1           0        3.187886   -3.748580    0.728596
     29          1           0        2.005788   -2.927607   -0.341041
     30          1           0        3.471162   -3.663551   -1.036238
     31          6           0        5.245121   -1.944160    0.100275
     32          1           0        5.509149   -2.713998    0.838669
     33          1           0        5.688951   -2.217262   -0.869111
     34          1           0        5.659251   -0.989594    0.439085
     35          6           0        3.068047    3.122616    0.168130
     36          1           0        3.188116    3.749602   -0.727455
     37          1           0        2.005304    2.927538    0.340531
     38          1           0        3.470192    3.662707    1.037509
     39          6           0        5.244950    1.944232   -0.099391
     40          1           0        5.509538    2.718440   -0.832954
     41          1           0        5.688631    2.211256    0.871774
     42          1           0        5.658779    0.991638   -0.444142
 ---------------------------------------------------------------------
 Rotational constants (GHZ):           0.7037808           0.1205812           0.1040104
 Leave Link  202 at Thu Jan 21 05:01:43 2021, MaxMem=  4026531840 cpu:               0.4 elap:               0.1
 (Enter /opt/ohpc/pub/libs/gaussian/g16-A.03/sandybridge/g16/l301.exe)
 Standard basis: TZVP (5D, 7F)
 Ernie: Thresh=  0.10000D-02 Tol=  0.10000D-05 Strict=F.
 There are   546 symmetry adapted cartesian basis functions of A   symmetry.
 There are   525 symmetry adapted basis functions of A   symmetry.
   525 basis functions,   903 primitive gaussians,   546 cartesian basis functions
    74 alpha electrons       73 beta electrons
       nuclear repulsion energy      1487.4602048397 Hartrees.
 IExCor=33909 DFT=T Ex+Corr=LC-wHPBE ExCW=0 ScaHFX=  1.000000
 ScaDFX=  1.000000  1.000000  1.000000  1.000000 ScalE2=  1.000000  1.000000
 IRadAn=      5 IRanWt=     -1 IRanGd=            0 ICorTp=0 IEmpDi=  4
 HFx  wShort=  0.000000 wLong=  0.211700 cFull=  0.000000 cShort=  0.000000 cLong=  1.000000
 DFx  wShort=  0.000000 wLong=  0.211700 cFull=  0.000000 cShort=  1.000000 cLong=  0.000000
 NAtoms=   42 NActive=   42 NUniq=   42 SFac= 1.00D+00 NAtFMM=   60 NAOKFM=F Big=F
 Integral buffers will be    131072 words long.
 Raffenetti 2 integral format.
 Two-electron integral symmetry is turned on.
 Leave Link  301 at Thu Jan 21 05:01:43 2021, MaxMem=  4026531840 cpu:               0.4 elap:               0.1
 (Enter /opt/ohpc/pub/libs/gaussian/g16-A.03/sandybridge/g16/l302.exe)
 NPDir=0 NMtPBC=     1 NCelOv=     1 NCel=       1 NClECP=     1 NCelD=      1
         NCelK=      1 NCelE2=     1 NClLst=     1 CellRange=     0.0.
 One-electron integrals computed using PRISM.
 One-electron integral symmetry used in STVInt
 NBasis=   525 RedAO= T EigKep=  8.06D-06  NBF=   525
 NBsUse=   525 1.00D-06 EigRej= -1.00D+00 NBFU=   525
 Precomputing XC quadrature grid using
 IXCGrd= 4 IRadAn=           5 IRanWt=          -1 IRanGd=           0 AccXCQ= 0.00D+00.
 Generated NRdTot=       0 NPtTot=           0 NUsed=           0 NTot=          32
 NSgBfM=   523   523   523   523   523 MxSgAt=    42 MxSgA2=    42.
 Leave Link  302 at Thu Jan 21 05:01:44 2021, MaxMem=  4026531840 cpu:               7.6 elap:               1.0
 (Enter /opt/ohpc/pub/libs/gaussian/g16-A.03/sandybridge/g16/l303.exe)
 DipDrv:  MaxL=1.
 Leave Link  303 at Thu Jan 21 05:01:45 2021, MaxMem=  4026531840 cpu:               0.7 elap:               0.1
 (Enter /opt/ohpc/pub/libs/gaussian/g16-A.03/sandybridge/g16/l401.exe)
 ExpMin= 9.52D-02 ExpMax= 1.97D+04 ExpMxC= 6.73D+02 IAcc=3 IRadAn=         5 AccDes= 0.00D+00
 Harris functional with IExCor=33909 and IRadAn=       5 diagonalized for initial guess.
 HarFok:  IExCor=33909 AccDes= 0.00D+00 IRadAn=         5 IDoV= 1 UseB2=F ITyADJ=14
 ICtDFT=  3500011 ScaDFX=  1.000000  1.000000  1.000000  1.000000
 FoFCou: FMM=F IPFlag=           0 FMFlag=      100000 FMFlg1=           0
         NFxFlg=           0 DoJE=T BraDBF=F KetDBF=T FulRan=T
         wScrn=  0.000000 ICntrl=       500 IOpCl=  0 I1Cent=   200000004 NGrid=           0
         NMat0=    1 NMatS0=      1 NMatT0=    0 NMatD0=    1 NMtDS0=    0 NMtDT0=    0
 Petite list used in FoFCou.
 Harris En= -828.625199993593    
 JPrj=0 DoOrth=F DoCkMO=F.
 Initial guess <Sx>= 0.0000 <Sy>= 0.0000 <Sz>= 0.5000 <S**2>= 0.7500 S= 0.5000
 Leave Link  401 at Thu Jan 21 05:01:50 2021, MaxMem=  4026531840 cpu:              39.9 elap:               5.0
 (Enter /opt/ohpc/pub/libs/gaussian/g16-A.03/sandybridge/g16/l502.exe)
 Integral symmetry usage will be decided dynamically.
 UHF open shell SCF:
 Using DIIS extrapolation, IDIIS=    10.
 NGot=  4026531840 LenX=  4025925692 LenY=  4025627030
 Requested convergence on RMS density matrix=1.00D-06 within  32 cycles.
 Requested convergence on MAX density matrix=1.00D-04.
 Requested convergence on             energy=1.00D-04.
 Virtual orbitals will be shifted by   0.500 hartree.
 No special actions if energy rises.
 Dynamic level shift is on during FON iterations.

 Cycle   1  Pass 1  IDiag  1:
 FoFJK:  IHMeth= 1 ICntrl=       0 DoSepK=T KAlg= 0 I1Cent=           0 FoldK=F
 IRaf=         1 NMat=       1 IRICut=       1 DoRegI=T DoRafI=F ISym2E= 0 IDoP0=0 IntGTp=1.
 FoFCou: FMM=F IPFlag=           0 FMFlag=      100000 FMFlg1=           0
         NFxFlg=           0 DoJE=T BraDBF=F KetDBF=F FulRan=T
         wScrn=  0.000000 ICntrl=       500 IOpCl=  0 I1Cent=           0 NGrid=           0
         NMat0=    1 NMatS0=      1 NMatT0=    0 NMatD0=    1 NMtDS0=    0 NMtDT0=    0
 Symmetry not used in FoFCou.
 E= -844.645475005720    
 DIIS: error= 2.88D-02 at cycle   1 NSaved=   1.
 NSaved= 1 IEnMin= 1 EnMin= -844.645475005720     IErMin= 1 ErrMin= 2.88D-02
 ErrMax= 2.88D-02  0.00D+00 EMaxC= 1.00D+00 BMatC= 1.25D+00 BMatP= 1.25D+00
 IDIUse=1 WtCom= 1.00D+00 WtEn= 0.00D+00
 Coeff-Com:  0.100D+01
 Coeff:      0.100D+01
 Gap=     0.453 Goal=   None    Shift=    0.500
 T= 1472. Gap= 0.528 NK=0 IS=   75 IE=  525 IFin=   74
          NO(<0.9)=   0  NV(>0.1)=   0     74.00e < EF      0.00e >EF  Err=0.0D+00
 Gap=    -0.042 Goal=   None    Shift=    0.500
 T= 1472. Gap= 0.377 NK=0 IS=   74 IE=  525 IFin=   73
          NO(<0.9)=   0  NV(>0.1)=   0     73.00e < EF      0.00e >EF  Err=0.0D+00
 GapD=   -0.042 DampG=0.250 DampE=0.500 DampFc=0.1250 IDamp=-1.
 Damping current iteration by 1.25D-01
 RMSDP=3.02D-03 MaxDP=2.74D-01              OVMax= 1.05D-01

 Cycle   2  Pass 1  IDiag  1:
 E= -844.704201679831     Delta-E=       -0.058726674110 Rises=F Damp=T
 DIIS: error= 2.56D-02 at cycle   2 NSaved=   2.
 NSaved= 2 IEnMin= 2 EnMin= -844.704201679831     IErMin= 2 ErrMin= 2.56D-02
 ErrMax= 2.56D-02  0.00D+00 EMaxC= 1.00D+00 BMatC= 8.98D-01 BMatP= 1.25D+00
 IDIUse=1 WtCom= 1.00D+00 WtEn= 0.00D+00
 Coeff-Com: -0.514D+01 0.614D+01
 Coeff:     -0.514D+01 0.614D+01
 Gap=     0.189 Goal=   None    Shift=    0.500
 T= 1449. Gap= 0.680 NK=0 IS=   75 IE=  525 IFin=   74
          NO(<0.9)=   0  NV(>0.1)=   0     74.00e < EF      0.00e >EF  Err=0.0D+00
 Gap=     0.059 Goal=   None    Shift=    0.500
 T= 1449. Gap= 0.553 NK=0 IS=   74 IE=  525 IFin=   73
          NO(<0.9)=   0  NV(>0.1)=   0     73.00e < EF      0.00e >EF  Err=0.0D+00
 GapD=    0.059 DampG=0.500 DampE=0.500 DampFc=0.2500 IDamp=-1.
 Damping current iteration by 2.50D-01
 RMSDP=2.78D-03 MaxDP=2.40D-01 DE=-5.87D-02 OVMax= 4.14D-02

 Cycle   3  Pass 1  IDiag  1:
 E= -844.791075463573     Delta-E=       -0.086873783743 Rises=F Damp=T
 DIIS: error= 1.99D-02 at cycle   3 NSaved=   3.
 NSaved= 3 IEnMin= 3 EnMin= -844.791075463573     IErMin= 3 ErrMin= 1.99D-02
 ErrMax= 1.99D-02  0.00D+00 EMaxC= 1.00D+00 BMatC= 4.78D-01 BMatP= 8.98D-01
 IDIUse=1 WtCom= 1.00D+00 WtEn= 0.00D+00
 Coeff-Com:  0.247D+00-0.307D+01 0.382D+01
 Coeff:      0.247D+00-0.307D+01 0.382D+01
 Gap=     0.212 Goal=   None    Shift=    0.500
 T= 1381. Gap= 0.711 NK=0 IS=   75 IE=  525 IFin=   74
          NO(<0.9)=   0  NV(>0.1)=   0     74.00e < EF      0.00e >EF  Err=0.0D+00
 Gap=     0.078 Goal=   None    Shift=    0.500
 T= 1381. Gap= 0.579 NK=0 IS=   74 IE=  525 IFin=   73
          NO(<0.9)=   0  NV(>0.1)=   0     73.00e < EF      0.00e >EF  Err=0.0D+00
 GapD=    0.078 DampG=0.500 DampE=0.500 DampFc=0.2500 IDamp=-1.
 Damping current iteration by 2.50D-01
 RMSDP=2.00D-03 MaxDP=1.59D-01 DE=-8.69D-02 OVMax= 3.40D-02

 Cycle   4  Pass 1  IDiag  1:
 E= -844.847075202282     Delta-E=       -0.055999738709 Rises=F Damp=T
 DIIS: error= 1.55D-02 at cycle   4 NSaved=   4.
 NSaved= 4 IEnMin= 4 EnMin= -844.847075202282     IErMin= 4 ErrMin= 1.55D-02
 ErrMax= 1.55D-02  0.00D+00 EMaxC= 1.00D+00 BMatC= 2.62D-01 BMatP= 4.78D-01
 IDIUse=1 WtCom= 1.00D+00 WtEn= 0.00D+00
 Coeff-Com:  0.668D+00-0.957D+00-0.274D+01 0.403D+01
 Coeff:      0.668D+00-0.957D+00-0.274D+01 0.403D+01
 Gap=     0.219 Goal=   None    Shift=    0.500
 T= 1262. Gap= 0.719 NK=0 IS=   75 IE=  525 IFin=   74
          NO(<0.9)=   0  NV(>0.1)=   0     74.00e < EF      0.00e >EF  Err=0.0D+00
 Gap=     0.093 Goal=   None    Shift=    0.500
 T= 1262. Gap= 0.592 NK=0 IS=   74 IE=  525 IFin=   73
          NO(<0.9)=   0  NV(>0.1)=   0     73.00e < EF      0.00e >EF  Err=0.0D+00
 GapD=    0.093 DampG=0.500 DampE=0.500 DampFc=0.2500 IDamp=-1.
 Damping current iteration by 2.50D-01
 RMSDP=1.47D-03 MaxDP=1.02D-01 DE=-5.60D-02 OVMax= 3.14D-02

 Cycle   5  Pass 1  IDiag  1:
 E= -844.884878456724     Delta-E=       -0.037803254442 Rises=F Damp=T
 DIIS: error= 1.22D-02 at cycle   5 NSaved=   5.
 NSaved= 5 IEnMin= 5 EnMin= -844.884878456724     IErMin= 5 ErrMin= 1.22D-02
 ErrMax= 1.22D-02  0.00D+00 EMaxC= 1.00D+00 BMatC= 1.46D-01 BMatP= 2.62D-01
 IDIUse=1 WtCom= 1.00D+00 WtEn= 0.00D+00
 Coeff-Com: -0.487D-01 0.784D+00 0.378D+00-0.694D+01 0.683D+01
 Coeff:     -0.487D-01 0.784D+00 0.378D+00-0.694D+01 0.683D+01
 Gap=     0.231 Goal=   None    Shift=    0.500
 T= 1113. Gap= 0.731 NK=4 IS=   75 IE=   88 IFin=   74
          NO(<0.9)=   0  NV(>0.1)=   0     74.00e < EF      0.00e >EF  Err=0.0D+00
 Gap=     0.102 Goal=   None    Shift=    0.500
 T= 1113. Gap= 0.603 NK=4 IS=   74 IE=   87 IFin=   73
          NO(<0.9)=   0  NV(>0.1)=   0     73.00e < EF      0.00e >EF  Err=0.0D+00
 GapD=    0.102 DampG=1.000 DampE=0.500 DampFc=0.5000 IDamp=-1.
 Damping current iteration by 5.00D-01
 RMSDP=1.07D-03 MaxDP=6.10D-02 DE=-3.78D-02 OVMax= 3.29D-02

 Cycle   6  Pass 1  IDiag  1:
 E= -844.935838916730     Delta-E=       -0.050960460006 Rises=F Damp=T
 DIIS: error= 8.91D-03 at cycle   6 NSaved=   6.
 NSaved= 6 IEnMin= 6 EnMin= -844.935838916730     IErMin= 6 ErrMin= 8.91D-03
 ErrMax= 8.91D-03  0.00D+00 EMaxC= 1.00D+00 BMatC= 3.71D-02 BMatP= 1.46D-01
 IDIUse=1 WtCom= 1.00D+00 WtEn= 0.00D+00
 Coeff-Com: -0.347D+00 0.545D+00 0.144D+01-0.727D+00-0.403D+01 0.412D+01
 Coeff:     -0.347D+00 0.545D+00 0.144D+01-0.727D+00-0.403D+01 0.412D+01
 Gap=     0.238 Goal=   None    Shift=    0.500
 T=  956. Gap= 0.738 NK=4 IS=   75 IE=   88 IFin=   74
          NO(<0.9)=   0  NV(>0.1)=   0     74.00e < EF      0.00e >EF  Err=0.0D+00
 Gap=     0.109 Goal=   None    Shift=    0.500
 T=  956. Gap= 0.611 NK=4 IS=   74 IE=   87 IFin=   73
          NO(<0.9)=   0  NV(>0.1)=   0     73.00e < EF      0.00e >EF  Err=0.0D+00
 GapD=    0.109 DampG=1.000 DampE=1.000 DampFc=1.0000 IDamp=-1.
 RMSDP=5.46D-04 MaxDP=1.91D-02 DE=-5.10D-02 OVMax= 3.48D-02

 Cycle   7  Pass 1  IDiag  1:
 E= -844.982026521107     Delta-E=       -0.046187604377 Rises=F Damp=F
 DIIS: error= 4.91D-03 at cycle   7 NSaved=   7.
 NSaved= 7 IEnMin= 7 EnMin= -844.982026521107     IErMin= 7 ErrMin= 4.91D-03
 ErrMax= 4.91D-03  0.00D+00 EMaxC= 1.00D+00 BMatC= 8.70D-04 BMatP= 3.71D-02
 IDIUse=1 WtCom= 1.00D+00 WtEn= 0.00D+00
 Coeff-Com: -0.157D+00 0.685D-01 0.283D+00 0.242D+01-0.358D+01 0.201D+00
 Coeff-Com:  0.177D+01
 Coeff:     -0.157D+00 0.685D-01 0.283D+00 0.242D+01-0.358D+01 0.201D+00
 Coeff:      0.177D+01
 Gap=     0.241 Goal=   None    Shift=    0.500
 T=  751. Gap= 0.741 NK=4 IS=   75 IE=   88 IFin=   74
          NO(<0.9)=   0  NV(>0.1)=   0     74.00e < EF      0.00e >EF  Err=0.0D+00
 Gap=     0.114 Goal=   None    Shift=    0.500
 T=  751. Gap= 0.615 NK=4 IS=   74 IE=   87 IFin=   73
          NO(<0.9)=   0  NV(>0.1)=   0     73.00e < EF      0.00e >EF  Err=0.0D+00
 GapD=    0.114 DampG=1.000 DampE=1.000 DampFc=1.0000 IDamp=-1.
 RMSDP=1.49D-04 MaxDP=1.13D-02 DE=-4.62D-02 OVMax= 3.42D-02

 Cycle   8  Pass 1  IDiag  1:
 E= -844.983726258603     Delta-E=       -0.001699737496 Rises=F Damp=F
 DIIS: error= 4.47D-03 at cycle   8 NSaved=   8.
 NSaved= 8 IEnMin= 8 EnMin= -844.983726258603     IErMin= 8 ErrMin= 4.47D-03
 ErrMax= 4.47D-03  0.00D+00 EMaxC= 1.00D+00 BMatC= 6.93D-04 BMatP= 8.70D-04
 IDIUse=1 WtCom= 1.00D+00 WtEn= 0.00D+00
 Coeff-Com: -0.231D-01 0.255D-01-0.481D+00 0.131D+01 0.808D-01-0.196D+01
 Coeff-Com: -0.127D+00 0.218D+01
 Coeff:     -0.231D-01 0.255D-01-0.481D+00 0.131D+01 0.808D-01-0.196D+01
 Coeff:     -0.127D+00 0.218D+01
 Gap=     0.249 Goal=   None    Shift=    0.500
 T=  540. Gap= 0.749 NK=4 IS=   75 IE=   87 IFin=   74
          NO(<0.9)=   0  NV(>0.1)=   0     74.00e < EF      0.00e >EF  Err=0.0D+00
 Gap=     0.120 Goal=   None    Shift=    0.500
 T=  540. Gap= 0.622 NK=4 IS=   74 IE=   87 IFin=   73
          NO(<0.9)=   0  NV(>0.1)=   0     73.00e < EF      0.00e >EF  Err=0.0D+00
 GapD=    0.120 DampG=1.000 DampE=1.000 DampFc=1.0000 IDamp=-1.
 RMSDP=1.69D-04 MaxDP=1.27D-02 DE=-1.70D-03 OVMax= 3.61D-02

 Cycle   9  Pass 1  IDiag  1:
 E= -844.985269691684     Delta-E=       -0.001543433081 Rises=F Damp=F
 DIIS: error= 4.17D-03 at cycle   9 NSaved=   9.
 NSaved= 9 IEnMin= 9 EnMin= -844.985269691684     IErMin= 9 ErrMin= 4.17D-03
 ErrMax= 4.17D-03  0.00D+00 EMaxC= 1.00D+00 BMatC= 6.35D-04 BMatP= 6.93D-04
 IDIUse=1 WtCom= 1.00D+00 WtEn= 0.00D+00
 Coeff-Com: -0.266D-01 0.338D-01-0.468D+00 0.125D+01 0.980D-01-0.190D+01
 Coeff-Com: -0.136D+00 0.206D+01 0.885D-01
 Coeff:     -0.266D-01 0.338D-01-0.468D+00 0.125D+01 0.980D-01-0.190D+01
 Coeff:     -0.136D+00 0.206D+01 0.885D-01
 Gap=     0.249 Goal=   None    Shift=    0.500
 T=  360. Gap= 0.749 NK=4 IS=   75 IE=   87 IFin=   74
          NO(<0.9)=   0  NV(>0.1)=   0     74.00e < EF      0.00e >EF  Err=0.0D+00
 Gap=     0.124 Goal=   None    Shift=    0.500
 T=  360. Gap= 0.625 NK=4 IS=   74 IE=   87 IFin=   73
          NO(<0.9)=   0  NV(>0.1)=   0     73.00e < EF      0.00e >EF  Err=0.0D+00
 GapD=    0.124 DampG=1.000 DampE=1.000 DampFc=1.0000 IDamp=-1.
 RMSDP=8.64D-05 MaxDP=7.12D-03 DE=-1.54D-03 OVMax= 2.84D-02

 Cycle  10  Pass 1  IDiag  1:
 E= -844.986339910432     Delta-E=       -0.001070218747 Rises=F Damp=F
 DIIS: error= 3.71D-03 at cycle  10 NSaved=  10.
 NSaved=10 IEnMin=10 EnMin= -844.986339910432     IErMin=10 ErrMin= 3.71D-03
 ErrMax= 3.71D-03  0.00D+00 EMaxC= 1.00D+00 BMatC= 5.06D-04 BMatP= 6.35D-04
 IDIUse=1 WtCom= 1.00D+00 WtEn= 0.00D+00
 Coeff-Com:  0.423D-02-0.132D+00 0.114D+00 0.917D+00-0.764D+00-0.716D+00
 Coeff-Com:  0.798D+00-0.137D+00-0.189D+01 0.281D+01
 Coeff:      0.423D-02-0.132D+00 0.114D+00 0.917D+00-0.764D+00-0.716D+00
 Coeff:      0.798D+00-0.137D+00-0.189D+01 0.281D+01
 Gap=     0.255 Goal=   None    Shift=    0.500
 T=  304. Gap= 0.754 NK=4 IS=   75 IE=   87 IFin=   74
          NO(<0.9)=   0  NV(>0.1)=   0     74.00e < EF      0.00e >EF  Err=0.0D+00
 Gap=     0.127 Goal=   None    Shift=    0.500
 T=  304. Gap= 0.628 NK=4 IS=   74 IE=   87 IFin=   73
          NO(<0.9)=   0  NV(>0.1)=   0     73.00e < EF      0.00e >EF  Err=0.0D+00
 GapD=    0.127 DampG=1.000 DampE=1.000 DampFc=1.0000 IDamp=-1.
 RMSDP=1.18D-04 MaxDP=8.94D-03 DE=-1.07D-03 OVMax= 3.14D-02

 Cycle  11  Pass 1  IDiag  1:
 E= -844.987393244732     Delta-E=       -0.001053334300 Rises=F Damp=F
 DIIS: error= 3.54D-03 at cycle  11 NSaved=  11.
 NSaved=11 IEnMin=11 EnMin= -844.987393244732     IErMin=11 ErrMin= 3.54D-03
 ErrMax= 3.54D-03  0.00D+00 EMaxC= 1.00D+00 BMatC= 5.22D-04 BMatP= 5.06D-04
 IDIUse=1 WtCom= 1.00D+00 WtEn= 0.00D+00
 Coeff-Com: -0.220D-01-0.233D+00 0.543D+00 0.173D+01-0.313D+01 0.943D+00
 Coeff-Com:  0.214D+01-0.162D+01-0.446D+01 0.305D+01 0.205D+01
 Coeff:     -0.220D-01-0.233D+00 0.543D+00 0.173D+01-0.313D+01 0.943D+00
 Coeff:      0.214D+01-0.162D+01-0.446D+01 0.305D+01 0.205D+01
 Gap=     0.260 Goal=   None    Shift=    0.500
 T=  257. Gap= 0.759 NK=4 IS=   75 IE=   85 IFin=   74
          NO(<0.9)=   0  NV(>0.1)=   0     74.00e < EF      0.00e >EF  Err=0.0D+00
 Gap=     0.129 Goal=   None    Shift=    0.500
 T=  257. Gap= 0.631 NK=4 IS=   74 IE=   87 IFin=   73
          NO(<0.9)=   0  NV(>0.1)=   0     73.00e < EF      0.00e >EF  Err=0.0D+00
 GapD=    0.129 DampG=1.000 DampE=1.000 DampFc=1.0000 IDamp=-1.
 RMSDP=1.40D-04 MaxDP=1.14D-02 DE=-1.05D-03 OVMax= 3.55D-02

 Cycle  12  Pass 1  IDiag  1:
 E= -844.988470404331     Delta-E=       -0.001077159599 Rises=F Damp=F
 DIIS: error= 3.40D-03 at cycle  12 NSaved=  12.
 NSaved=12 IEnMin=12 EnMin= -844.988470404331     IErMin=12 ErrMin= 3.40D-03
 ErrMax= 3.40D-03  0.00D+00 EMaxC= 1.00D+00 BMatC= 5.80D-04 BMatP= 5.06D-04
 IDIUse=1 WtCom= 1.00D+00 WtEn= 0.00D+00
 Coeff-Com: -0.365D-01-0.142D+00-0.124D-01 0.271D+01-0.344D+01 0.581D+00
 Coeff-Com:  0.157D+01 0.978D+00-0.617D+01 0.291D+01-0.645D+00 0.270D+01
 Coeff:     -0.365D-01-0.142D+00-0.124D-01 0.271D+01-0.344D+01 0.581D+00
 Coeff:      0.157D+01 0.978D+00-0.617D+01 0.291D+01-0.645D+00 0.270D+01
 Gap=     0.264 Goal=   None    Shift=    0.500
 T=  215. Gap= 0.763 NK=4 IS=   75 IE=   85 IFin=   74
          NO(<0.9)=   0  NV(>0.1)=   0     74.00e < EF      0.00e >EF  Err=0.0D+00
 Gap=     0.132 Goal=   None    Shift=    0.500
 T=  215. Gap= 0.634 NK=4 IS=   74 IE=   87 IFin=   73
          NO(<0.9)=   0  NV(>0.1)=   0     73.00e < EF      0.00e >EF  Err=0.0D+00
 GapD=    0.132 DampG=1.000 DampE=1.000 DampFc=1.0000 IDamp=-1.
 RMSDP=1.48D-04 MaxDP=1.08D-02 DE=-1.08D-03 OVMax= 3.84D-02

 Cycle  13  Pass 1  IDiag  1:
 E= -844.989522214491     Delta-E=       -0.001051810161 Rises=F Damp=F
 DIIS: error= 3.24D-03 at cycle  13 NSaved=  13.
 NSaved=13 IEnMin=13 EnMin= -844.989522214491     IErMin=13 ErrMin= 3.24D-03
 ErrMax= 3.24D-03  0.00D+00 EMaxC= 1.00D+00 BMatC= 6.69D-04 BMatP= 5.06D-04
 IDIUse=1 WtCom= 1.00D+00 WtEn= 0.00D+00
 Coeff-Com: -0.234D-01-0.110D+00 0.137D-01 0.206D+01-0.254D+01 0.171D+00
 Coeff-Com:  0.115D+01 0.156D+01-0.596D+01 0.337D+01-0.407D+00-0.266D+00
 Coeff-Com:  0.197D+01
 Coeff:     -0.234D-01-0.110D+00 0.137D-01 0.206D+01-0.254D+01 0.171D+00
 Coeff:      0.115D+01 0.156D+01-0.596D+01 0.337D+01-0.407D+00-0.266D+00
 Coeff:      0.197D+01
 Gap=     0.265 Goal=   None    Shift=    0.500
 T=  188. Gap= 0.765 NK=4 IS=   75 IE=   85 IFin=   74
          NO(<0.9)=   0  NV(>0.1)=   0     74.00e < EF      0.00e >EF  Err=0.0D+00
 Gap=     0.136 Goal=   None    Shift=    0.500
 T=  188. Gap= 0.637 NK=4 IS=   74 IE=   87 IFin=   73
          NO(<0.9)=   0  NV(>0.1)=   0     73.00e < EF      0.00e >EF  Err=0.0D+00
 GapD=    0.136 DampG=1.000 DampE=1.000 DampFc=1.0000 IDamp=-1.
 RMSDP=1.11D-04 MaxDP=7.70D-03 DE=-1.05D-03 OVMax= 3.41D-02

 Cycle  14  Pass 1  IDiag  1:
 E= -844.990391952480     Delta-E=       -0.000869737989 Rises=F Damp=F
 DIIS: error= 2.98D-03 at cycle  14 NSaved=  14.
 NSaved=14 IEnMin=14 EnMin= -844.990391952480     IErMin=14 ErrMin= 2.98D-03
 ErrMax= 2.98D-03  0.00D+00 EMaxC= 1.00D+00 BMatC= 6.04D-04 BMatP= 5.06D-04
 IDIUse=1 WtCom= 1.00D+00 WtEn= 0.00D+00
 Coeff-Com:  0.397D-02-0.141D+00 0.265D+00 0.104D+01-0.146D+01-0.171D+00
 Coeff-Com:  0.106D+01 0.590D+00-0.355D+01 0.277D+01 0.121D+01-0.354D+01
 Coeff-Com: -0.279D+00 0.320D+01
 Coeff:      0.397D-02-0.141D+00 0.265D+00 0.104D+01-0.146D+01-0.171D+00
 Coeff:      0.106D+01 0.590D+00-0.355D+01 0.277D+01 0.121D+01-0.354D+01
 Coeff:     -0.279D+00 0.320D+01
 Gap=     0.268 Goal=   None    Shift=    0.500
 T=  154. Gap= 0.768 NK=4 IS=   75 IE=   86 IFin=   74
          NO(<0.9)=   0  NV(>0.1)=   0     74.00e < EF      0.00e >EF  Err=0.0D+00
 Gap=     0.137 Goal=   None    Shift=    0.500
 T=  154. Gap= 0.639 NK=4 IS=   74 IE=   87 IFin=   73
          NO(<0.9)=   0  NV(>0.1)=   0     73.00e < EF      0.00e >EF  Err=0.0D+00
 GapD=    0.137 DampG=1.000 DampE=1.000 DampFc=1.0000 IDamp=-1.
 RMSDP=1.27D-04 MaxDP=7.74D-03 DE=-8.70D-04 OVMax= 3.54D-02

 Cycle  15  Pass 1  IDiag  1:
 E= -844.991190488124     Delta-E=       -0.000798535643 Rises=F Damp=F
 DIIS: error= 2.78D-03 at cycle  15 NSaved=  15.
 NSaved=15 IEnMin=15 EnMin= -844.991190488124     IErMin=15 ErrMin= 2.78D-03
 ErrMax= 2.78D-03  0.00D+00 EMaxC= 1.00D+00 BMatC= 6.43D-04 BMatP= 5.06D-04
 IDIUse=1 WtCom= 1.00D+00 WtEn= 0.00D+00
 Coeff-Com:  0.651D-05-0.138D+00 0.317D+00 0.923D+00-0.142D+01-0.905D-01
 Coeff-Com:  0.104D+01-0.211D-01-0.259D+01 0.239D+01 0.180D+01-0.310D+01
 Coeff-Com: -0.188D+01 0.243D+01 0.133D+01
 Coeff:      0.651D-05-0.138D+00 0.317D+00 0.923D+00-0.142D+01-0.905D-01
 Coeff:      0.104D+01-0.211D-01-0.259D+01 0.239D+01 0.180D+01-0.310D+01
 Coeff:     -0.188D+01 0.243D+01 0.133D+01
 Gap=     0.268 Goal=   None    Shift=    0.500
 T=  114. Gap= 0.768 NK=4 IS=   75 IE=   86 IFin=   74
          NO(<0.9)=   0  NV(>0.1)=   0     74.00e < EF      0.00e >EF  Err=0.0D+00
 Gap=     0.139 Goal=   None    Shift=    0.500
 T=  114. Gap= 0.640 NK=4 IS=   74 IE=   86 IFin=   73
          NO(<0.9)=   0  NV(>0.1)=   0     73.00e < EF      0.00e >EF  Err=0.0D+00
 GapD=    0.139 DampG=1.000 DampE=1.000 DampFc=1.0000 IDamp=-1.
 RMSDP=8.88D-05 MaxDP=5.36D-03 DE=-7.99D-04 OVMax= 3.03D-02

 Cycle  16  Pass 1  IDiag  1:
 E= -844.991838999930     Delta-E=       -0.000648511807 Rises=F Damp=F
 DIIS: error= 2.49D-03 at cycle  16 NSaved=  16.
 NSaved=16 IEnMin=16 EnMin= -844.991838999930     IErMin=16 ErrMin= 2.49D-03
 ErrMax= 2.49D-03  0.00D+00 EMaxC= 1.00D+00 BMatC= 5.17D-04 BMatP= 5.06D-04
 IDIUse=1 WtCom= 1.00D+00 WtEn= 0.00D+00
 Coeff-Com: -0.196D-01-0.118D+00 0.134D-01 0.191D+01-0.250D+01 0.520D+00
 Coeff-Com:  0.115D+01-0.677D+00-0.153D+01 0.345D+00 0.929D+00 0.262D+01
 Coeff-Com: -0.337D+01-0.111D+01-0.180D+01 0.464D+01
 Coeff:     -0.196D-01-0.118D+00 0.134D-01 0.191D+01-0.250D+01 0.520D+00
 Coeff:      0.115D+01-0.677D+00-0.153D+01 0.345D+00 0.929D+00 0.262D+01
 Coeff:     -0.337D+01-0.111D+01-0.180D+01 0.464D+01
 Gap=     0.271 Goal=   None    Shift=    0.500
 T=   62. Gap= 0.769 NK=4 IS=   75 IE=   86 IFin=   74
          NO(<0.9)=   0  NV(>0.1)=   0     74.00e < EF      0.00e >EF  Err=0.0D+00
 Gap=     0.139 Goal=   None    Shift=    0.500
 T=   62. Gap= 0.641 NK=4 IS=   74 IE=   85 IFin=   73
          NO(<0.9)=   0  NV(>0.1)=   0     73.00e < EF      0.00e >EF  Err=0.0D+00
 GapD=    0.139 DampG=1.000 DampE=1.000 DampFc=1.0000 IDamp=-1.
 RMSDP=1.53D-04 MaxDP=9.80D-03 DE=-6.49D-04 OVMax= 3.78D-02

 Cycle  17  Pass 1  IDiag  1:
 E= -844.992468114966     Delta-E=       -0.000629115036 Rises=F Damp=F
 DIIS: error= 2.41D-03 at cycle  17 NSaved=  17.
 NSaved=17 IEnMin=17 EnMin= -844.992468114966     IErMin=17 ErrMin= 2.41D-03
 ErrMax= 2.41D-03  0.00D+00 EMaxC= 1.00D+00 BMatC= 7.47D-04 BMatP= 5.06D-04
 IDIUse=1 WtCom= 1.00D+00 WtEn= 0.00D+00
 Coeff-Com: -0.172D-01-0.116D+00 0.268D-02 0.183D+01-0.237D+01 0.484D+00
 Coeff-Com:  0.101D+01-0.274D+00-0.207D+01 0.613D+00 0.737D+00 0.254D+01
 Coeff-Com: -0.238D+01-0.103D+01-0.315D+01 0.462D+01 0.573D+00
 Coeff:     -0.172D-01-0.116D+00 0.268D-02 0.183D+01-0.237D+01 0.484D+00
 Coeff:      0.101D+01-0.274D+00-0.207D+01 0.613D+00 0.737D+00 0.254D+01
 Coeff:     -0.238D+01-0.103D+01-0.315D+01 0.462D+01 0.573D+00
 Gap=     0.269 Goal=   None    Shift=    0.500
 T=   19. Gap= 0.770 NK=4 IS=   75 IE=   85 IFin=   74
          NO(<0.9)=   0  NV(>0.1)=   0     74.00e < EF      0.00e >EF  Err=0.0D+00
 Gap=     0.142 Goal=   None    Shift=    0.500
 T=   19. Gap= 0.643 NK=4 IS=   74 IE=   85 IFin=   73
          NO(<0.9)=   0  NV(>0.1)=   0     73.00e < EF      0.00e >EF  Err=0.0D+00
 GapD=    0.142 DampG=1.000 DampE=1.000 DampFc=1.0000 IDamp=-1.
 RMSDP=8.80D-05 MaxDP=5.29D-03 DE=-6.29D-04 OVMax= 3.03D-02

 Cycle  18  Pass 1  IDiag  1:
 E= -844.992981121356     Delta-E=       -0.000513006390 Rises=F Damp=F
 DIIS: error= 2.13D-03 at cycle  18 NSaved=  18.
 NSaved=18 IEnMin=18 EnMin= -844.992981121356     IErMin=18 ErrMin= 2.13D-03
 ErrMax= 2.13D-03  0.00D+00 EMaxC= 1.00D+00 BMatC= 6.05D-04 BMatP= 5.06D-04
 IDIUse=1 WtCom= 1.00D+00 WtEn= 0.00D+00
 Coeff-Com:  0.226D-02-0.867D-01 0.320D-01 0.963D+00-0.114D+01-0.113D-01
 Coeff-Com:  0.506D+00 0.661D+00-0.211D+01 0.711D+00 0.714D-01 0.773D+00
 Coeff-Com:  0.640D+00-0.909D+00-0.141D+01 0.184D+01-0.395D+01 0.441D+01
 Coeff:      0.226D-02-0.867D-01 0.320D-01 0.963D+00-0.114D+01-0.113D-01
 Coeff:      0.506D+00 0.661D+00-0.211D+01 0.711D+00 0.714D-01 0.773D+00
 Coeff:      0.640D+00-0.909D+00-0.141D+01 0.184D+01-0.395D+01 0.441D+01
 Gap=     0.269 Goal=   None    Shift=    0.500
 Gap=     0.142 Goal=   None    Shift=    0.500
 GapD=    0.142 DampG=1.000 DampE=1.000 DampFc=1.0000 IDamp=-1.
 RMSDP=9.01D-05 MaxDP=5.69D-03 DE=-5.13D-04 OVMax= 2.89D-02

 Cycle  19  Pass 1  IDiag  1:
 E= -844.993398864801     Delta-E=       -0.000417743445 Rises=F Damp=F
 DIIS: error= 1.89D-03 at cycle  19 NSaved=  19.
 NSaved=19 IEnMin=19 EnMin= -844.993398864801     IErMin=19 ErrMin= 1.89D-03
 ErrMax= 1.89D-03  0.00D+00 EMaxC= 1.00D+00 BMatC= 5.39D-04 BMatP= 5.06D-04
 IDIUse=1 WtCom= 1.00D+00 WtEn= 0.00D+00
 Coeff-Com:  0.447D-02-0.794D-01 0.124D+00 0.615D+00-0.877D+00 0.195D-01
 Coeff-Com:  0.486D+00 0.199D+00-0.117D+01 0.386D+00 0.414D+00-0.475D-01
 Coeff-Com: -0.240D+00-0.242D+00 0.110D+01 0.743D+00-0.495D+01 0.254D+01
 Coeff-Com:  0.198D+01
 Coeff:      0.447D-02-0.794D-01 0.124D+00 0.615D+00-0.877D+00 0.195D-01
 Coeff:      0.486D+00 0.199D+00-0.117D+01 0.386D+00 0.414D+00-0.475D-01
 Coeff:     -0.240D+00-0.242D+00 0.110D+01 0.743D+00-0.495D+01 0.254D+01
 Coeff:      0.198D+01
 Gap=     0.269 Goal=   None    Shift=    0.500
 Gap=     0.143 Goal=   None    Shift=    0.500
 GapD=    0.143 DampG=1.000 DampE=1.000 DampFc=1.0000 IDamp=-1.
 RMSDP=6.89D-05 MaxDP=3.78D-03 DE=-4.18D-04 OVMax= 2.47D-02

 Cycle  20  Pass 1  IDiag  1:
 E= -844.993732681591     Delta-E=       -0.000333816790 Rises=F Damp=F
 DIIS: error= 1.64D-03 at cycle  20 NSaved=  20.
 NSaved=20 IEnMin=20 EnMin= -844.993732681591     IErMin=20 ErrMin= 1.64D-03
 ErrMax= 1.64D-03  0.00D+00 EMaxC= 1.00D+00 BMatC= 4.18D-04 BMatP= 5.06D-04
 IDIUse=1 WtCom= 1.00D+00 WtEn= 0.00D+00
 Coeff-Com: -0.213D-01-0.206D-02 0.116D+00 0.510D+00-0.106D+01 0.467D+00
 Coeff-Com:  0.385D+00-0.731D+00 0.240D+00-0.151D+00 0.119D+01 0.881D-01
 Coeff-Com: -0.307D+01 0.118D+01 0.767D+00 0.109D+01 0.185D+01-0.537D+01
 Coeff-Com: -0.165D+01 0.519D+01
 Coeff:     -0.213D-01-0.206D-02 0.116D+00 0.510D+00-0.106D+01 0.467D+00
 Coeff:      0.385D+00-0.731D+00 0.240D+00-0.151D+00 0.119D+01 0.881D-01
 Coeff:     -0.307D+01 0.118D+01 0.767D+00 0.109D+01 0.185D+01-0.537D+01
 Coeff:     -0.165D+01 0.519D+01
 Gap=     0.268 Goal=   None    Shift=    0.500
 Gap=     0.142 Goal=   None    Shift=    0.500
 GapD=    0.142 DampG=1.000 DampE=1.000 DampFc=1.0000 IDamp=-1.
 RMSDP=9.19D-05 MaxDP=5.59D-03 DE=-3.34D-04 OVMax= 2.57D-02

 Cycle  21  Pass 1  IDiag  1:
 E= -844.993994940188     Delta-E=       -0.000262258597 Rises=F Damp=F
 DIIS: error= 1.50D-03 at cycle  21 NSaved=  20.
 NSaved=20 IEnMin=20 EnMin= -844.993994940188     IErMin=20 ErrMin= 1.50D-03
 ErrMax= 1.50D-03  0.00D+00 EMaxC= 1.00D+00 BMatC= 4.70D-04 BMatP= 4.18D-04
 IDIUse=1 WtCom= 1.00D+00 WtEn= 0.00D+00
 Coeff-Com: -0.345D-01 0.345D-01 0.607D+00-0.948D+00 0.312D+00 0.326D+00
 Coeff-Com: -0.577D+00 0.179D+00-0.124D+00 0.118D+01 0.427D-01-0.294D+01
 Coeff-Com:  0.133D+01-0.124D+00 0.167D+01 0.195D+01-0.470D+01-0.226D+01
 Coeff-Com:  0.436D+01 0.721D+00
 Coeff:     -0.345D-01 0.345D-01 0.607D+00-0.948D+00 0.312D+00 0.326D+00
 Coeff:     -0.577D+00 0.179D+00-0.124D+00 0.118D+01 0.427D-01-0.294D+01
 Coeff:      0.133D+01-0.124D+00 0.167D+01 0.195D+01-0.470D+01-0.226D+01
 Coeff:      0.436D+01 0.721D+00
 Gap=     0.268 Goal=   None    Shift=    0.500
 Gap=     0.143 Goal=   None    Shift=    0.500
 GapD=    0.143 DampG=1.000 DampE=1.000 DampFc=1.0000 IDamp=-1.
 RMSDP=5.68D-05 MaxDP=2.88D-03 DE=-2.62D-04 OVMax= 2.06D-02

 Cycle  22  Pass 1  IDiag  1:
 E= -844.994212591403     Delta-E=       -0.000217651215 Rises=F Damp=F
 DIIS: error= 1.29D-03 at cycle  22 NSaved=  20.
 NSaved=20 IEnMin=20 EnMin= -844.994212591403     IErMin=20 ErrMin= 1.29D-03
 ErrMax= 1.29D-03  0.00D+00 EMaxC= 1.00D+00 BMatC= 3.62D-04 BMatP= 4.18D-04
 IDIUse=1 WtCom= 1.00D+00 WtEn= 0.00D+00
 Coeff-Com: -0.558D-01 0.359D+00-0.402D+00 0.419D-01 0.106D+00 0.187D+00
 Coeff-Com: -0.634D+00 0.214D+00 0.217D+00 0.865D+00-0.783D+00-0.467D+00
 Coeff-Com: -0.200D+01 0.222D+01 0.257D+01-0.964D+00-0.268D+01 0.892D+00
 Coeff-Com: -0.463D+01 0.594D+01
 Coeff:     -0.558D-01 0.359D+00-0.402D+00 0.419D-01 0.106D+00 0.187D+00
 Coeff:     -0.634D+00 0.214D+00 0.217D+00 0.865D+00-0.783D+00-0.467D+00
 Coeff:     -0.200D+01 0.222D+01 0.257D+01-0.964D+00-0.268D+01 0.892D+00
 Coeff:     -0.463D+01 0.594D+01
 Gap=     0.267 Goal=   None    Shift=    0.500
 Gap=     0.142 Goal=   None    Shift=    0.500
 GapD=    0.142 DampG=1.000 DampE=1.000 DampFc=1.0000 IDamp=-1.
 RMSDP=7.06D-05 MaxDP=3.39D-03 DE=-2.18D-04 OVMax= 2.05D-02

 Cycle  23  Pass 1  IDiag  1:
 E= -844.994377636570     Delta-E=       -0.000165045167 Rises=F Damp=F
 DIIS: error= 1.15D-03 at cycle  23 NSaved=  20.
 NSaved=20 IEnMin=20 EnMin= -844.994377636570     IErMin=20 ErrMin= 1.15D-03
 ErrMax= 1.15D-03  0.00D+00 EMaxC= 1.00D+00 BMatC= 3.62D-04 BMatP= 3.62D-04
 IDIUse=1 WtCom= 1.00D+00 WtEn= 0.00D+00
 Coeff-Com:  0.166D+00-0.251D+00 0.547D-01 0.707D-01 0.126D+00-0.529D+00
 Coeff-Com:  0.216D+00 0.178D+00 0.674D+00-0.454D+00-0.568D+00-0.175D+01
 Coeff-Com:  0.192D+01 0.209D+01-0.438D+00-0.219D+01 0.920D+00-0.563D+01
 Coeff-Com:  0.572D+01 0.684D+00
 Coeff:      0.166D+00-0.251D+00 0.547D-01 0.707D-01 0.126D+00-0.529D+00
 Coeff:      0.216D+00 0.178D+00 0.674D+00-0.454D+00-0.568D+00-0.175D+01
 Coeff:      0.192D+01 0.209D+01-0.438D+00-0.219D+01 0.920D+00-0.563D+01
 Coeff:      0.572D+01 0.684D+00
 Gap=     0.267 Goal=   None    Shift=    0.500
 Gap=     0.142 Goal=   None    Shift=    0.500
 GapD=    0.142 DampG=1.000 DampE=1.000 DampFc=1.0000 IDamp=-1.
 RMSDP=4.59D-05 MaxDP=1.92D-03 DE=-1.65D-04 OVMax= 1.67D-02

 Cycle  24  Pass 1  IDiag  1:
 E= -844.994510833783     Delta-E=       -0.000133197213 Rises=F Damp=F
 DIIS: error= 9.82D-04 at cycle  24 NSaved=  20.
 NSaved=20 IEnMin=20 EnMin= -844.994510833783     IErMin=20 ErrMin= 9.82D-04
 ErrMax= 9.82D-04  0.00D+00 EMaxC= 1.00D+00 BMatC= 2.78D-04 BMatP= 3.62D-04
 IDIUse=1 WtCom= 1.00D+00 WtEn= 0.00D+00
 Coeff-Com: -0.134D-01 0.239D-01-0.547D-01 0.974D-01-0.366D+00 0.179D+00
 Coeff-Com:  0.551D-01 0.603D+00-0.290D+00-0.464D+00-0.600D+00 0.467D+00
 Coeff-Com:  0.204D+01-0.196D+01-0.572D+00 0.206D+01-0.271D+01 0.201D+01
 Coeff-Com: -0.463D+01 0.512D+01
 Coeff:     -0.134D-01 0.239D-01-0.547D-01 0.974D-01-0.366D+00 0.179D+00
 Coeff:      0.551D-01 0.603D+00-0.290D+00-0.464D+00-0.600D+00 0.467D+00
 Coeff:      0.204D+01-0.196D+01-0.572D+00 0.206D+01-0.271D+01 0.201D+01
 Coeff:     -0.463D+01 0.512D+01
 Gap=     0.266 Goal=   None    Shift=    0.500
 Gap=     0.142 Goal=   None    Shift=    0.500
 RMSDP=5.26D-05 MaxDP=2.41D-03 DE=-1.33D-04 OVMax= 1.59D-02

 Cycle  25  Pass 1  IDiag  1:
 E= -844.994596540053     Delta-E=       -0.000085706270 Rises=F Damp=F
 DIIS: error= 8.69D-04 at cycle  25 NSaved=  20.
 NSaved=20 IEnMin=20 EnMin= -844.994596540053     IErMin=20 ErrMin= 8.69D-04
 ErrMax= 8.69D-04  0.00D+00 EMaxC= 1.00D+00 BMatC= 2.74D-04 BMatP= 2.78D-04
 IDIUse=1 WtCom= 1.00D+00 WtEn= 0.00D+00
 Coeff-Com: -0.259D-02-0.409D-01 0.102D+00-0.380D+00 0.197D+00 0.208D+00
 Coeff-Com:  0.480D+00-0.648D+00-0.143D+00-0.442D+00 0.496D+00 0.185D+01
 Coeff-Com: -0.217D+01-0.749D+00 0.217D+01-0.120D+01 0.126D+01-0.523D+01
 Coeff-Com:  0.421D+01 0.104D+01
 Coeff:     -0.259D-02-0.409D-01 0.102D+00-0.380D+00 0.197D+00 0.208D+00
 Coeff:      0.480D+00-0.648D+00-0.143D+00-0.442D+00 0.496D+00 0.185D+01
 Coeff:     -0.217D+01-0.749D+00 0.217D+01-0.120D+01 0.126D+01-0.523D+01
 Coeff:      0.421D+01 0.104D+01
 Gap=     0.266 Goal=   None    Shift=    0.500
 Gap=     0.142 Goal=   None    Shift=    0.500
 RMSDP=3.14D-05 MaxDP=1.41D-03 DE=-8.57D-05 OVMax= 1.24D-02

 Cycle  26  Pass 1  IDiag  1:
 E= -844.994670845577     Delta-E=       -0.000074305523 Rises=F Damp=F
 DIIS: error= 7.26D-04 at cycle  26 NSaved=  20.
 NSaved=20 IEnMin=20 EnMin= -844.994670845577     IErMin=20 ErrMin= 7.26D-04
 ErrMax= 7.26D-04  0.00D+00 EMaxC= 1.00D+00 BMatC= 1.97D-04 BMatP= 2.74D-04
 IDIUse=1 WtCom= 1.00D+00 WtEn= 0.00D+00
 Coeff-Com:  0.790D-01-0.121D+00-0.257D+00 0.165D+00 0.269D+00 0.397D+00
 Coeff-Com: -0.667D+00-0.256D+00-0.416D+00 0.580D+00 0.209D+01-0.172D+01
 Coeff-Com: -0.128D+01 0.879D+00-0.297D+00 0.124D+01 0.842D-02 0.400D+00
 Coeff-Com: -0.637D+01 0.627D+01
 Coeff:      0.790D-01-0.121D+00-0.257D+00 0.165D+00 0.269D+00 0.397D+00
 Coeff:     -0.667D+00-0.256D+00-0.416D+00 0.580D+00 0.209D+01-0.172D+01
 Coeff:     -0.128D+01 0.879D+00-0.297D+00 0.124D+01 0.842D-02 0.400D+00
 Coeff:     -0.637D+01 0.627D+01
 Gap=     0.266 Goal=   None    Shift=    0.500
 Gap=     0.143 Goal=   None    Shift=    0.500
 RMSDP=2.54D-05 MaxDP=1.20D-03 DE=-7.43D-05 OVMax= 1.02D-02

 Cycle  27  Pass 1  IDiag  1:
 E= -844.994721032038     Delta-E=       -0.000050186461 Rises=F Damp=F
 DIIS: error= 6.02D-04 at cycle  27 NSaved=  20.
 NSaved=20 IEnMin=20 EnMin= -844.994721032038     IErMin=20 ErrMin= 6.02D-04
 ErrMax= 6.02D-04  0.00D+00 EMaxC= 1.00D+00 BMatC= 1.44D-04 BMatP= 1.97D-04
 IDIUse=1 WtCom= 1.00D+00 WtEn= 0.00D+00
 Coeff-Com:  0.242D-01-0.232D+00 0.148D+00 0.992D-02 0.431D+00-0.234D+00
 Coeff-Com: -0.407D+00-0.669D+00 0.594D+00 0.181D+01-0.855D+00-0.121D+01
 Coeff-Com:  0.345D+00-0.138D+01 0.177D+01 0.167D+01-0.118D+00-0.642D+01
 Coeff-Com:  0.392D+01 0.180D+01
 Coeff:      0.242D-01-0.232D+00 0.148D+00 0.992D-02 0.431D+00-0.234D+00
 Coeff:     -0.407D+00-0.669D+00 0.594D+00 0.181D+01-0.855D+00-0.121D+01
 Coeff:      0.345D+00-0.138D+01 0.177D+01 0.167D+01-0.118D+00-0.642D+01
 Coeff:      0.392D+01 0.180D+01
 Gap=     0.266 Goal=   None    Shift=    0.500
 Gap=     0.143 Goal=   None    Shift=    0.500
 RMSDP=1.86D-05 MaxDP=9.54D-04 DE=-5.02D-05 OVMax= 8.10D-03

 Cycle  28  Pass 1  IDiag  1:
 E= -844.994756193868     Delta-E=       -0.000035161831 Rises=F Damp=F
 DIIS: error= 4.92D-04 at cycle  28 NSaved=  20.
 NSaved=20 IEnMin=20 EnMin= -844.994756193868     IErMin=20 ErrMin= 4.92D-04
 ErrMax= 4.92D-04  0.00D+00 EMaxC= 1.00D+00 BMatC= 9.80D-05 BMatP= 1.44D-04
 IDIUse=1 WtCom= 1.00D+00 WtEn= 0.00D+00
 Coeff-Com: -0.162D+00 0.133D+00-0.142D-01 0.358D+00-0.162D+00-0.331D+00
 Coeff-Com: -0.573D+00 0.519D+00 0.115D+01-0.362D+00-0.764D+00 0.240D+00
 Coeff-Com: -0.168D+01 0.156D+01 0.101D+01 0.252D+00-0.261D+01 0.214D+00
 Coeff-Com:  0.915D-01 0.212D+01
 Coeff:     -0.162D+00 0.133D+00-0.142D-01 0.358D+00-0.162D+00-0.331D+00
 Coeff:     -0.573D+00 0.519D+00 0.115D+01-0.362D+00-0.764D+00 0.240D+00
 Coeff:     -0.168D+01 0.156D+01 0.101D+01 0.252D+00-0.261D+01 0.214D+00
 Coeff:      0.915D-01 0.212D+01
 Gap=     0.266 Goal=   None    Shift=    0.500
 Gap=     0.142 Goal=   None    Shift=    0.500
 RMSDP=1.35D-05 MaxDP=6.88D-04 DE=-3.52D-05 OVMax= 6.27D-03

 Cycle  29  Pass 1  IDiag  1:
 E= -844.994780942098     Delta-E=       -0.000024748230 Rises=F Damp=F
 DIIS: error= 3.94D-04 at cycle  29 NSaved=  20.
 NSaved=20 IEnMin=20 EnMin= -844.994780942098     IErMin=20 ErrMin= 3.94D-04
 ErrMax= 3.94D-04  0.00D+00 EMaxC= 1.00D+00 BMatC= 6.15D-05 BMatP= 9.80D-05
 IDIUse=1 WtCom= 1.00D+00 WtEn= 0.00D+00
 Coeff-Com: -0.102D-01 0.685D-02 0.144D+00-0.775D-01-0.148D+00-0.208D+00
 Coeff-Com:  0.276D+00 0.768D-01 0.108D+00-0.655D-01 0.193D+00-0.120D+01
 Coeff-Com:  0.760D+00-0.422D+00 0.754D+00 0.187D+01-0.261D+01-0.156D+01
 Coeff-Com:  0.769D+00 0.235D+01
 Coeff:     -0.102D-01 0.685D-02 0.144D+00-0.775D-01-0.148D+00-0.208D+00
 Coeff:      0.276D+00 0.768D-01 0.108D+00-0.655D-01 0.193D+00-0.120D+01
 Coeff:      0.760D+00-0.422D+00 0.754D+00 0.187D+01-0.261D+01-0.156D+01
 Coeff:      0.769D+00 0.235D+01
 Gap=     0.266 Goal=   None    Shift=    0.500
 Gap=     0.142 Goal=   None    Shift=    0.500
 RMSDP=1.27D-05 MaxDP=5.90D-04 DE=-2.47D-05 OVMax= 5.39D-03

 Cycle  30  Pass 1  IDiag  1:
 E= -844.994797272219     Delta-E=       -0.000016330121 Rises=F Damp=F
 DIIS: error= 3.12D-04 at cycle  30 NSaved=  20.
 NSaved=20 IEnMin=20 EnMin= -844.994797272219     IErMin=20 ErrMin= 3.12D-04
 ErrMax= 3.12D-04  0.00D+00 EMaxC= 1.00D+00 BMatC= 3.85D-05 BMatP= 6.15D-05
 IDIUse=1 WtCom= 1.00D+00 WtEn= 0.00D+00
 Coeff-Com:  0.252D-01-0.681D-01 0.165D-01 0.695D-01-0.129D+00 0.160D+00
 Coeff-Com: -0.394D-01-0.266D-01-0.700D-01 0.161D+00-0.213D+00 0.115D+00
 Coeff-Com: -0.565D+00 0.529D+00 0.902D+00-0.530D+00-0.105D+01-0.108D+01
 Coeff-Com:  0.115D+01 0.165D+01
 Coeff:      0.252D-01-0.681D-01 0.165D-01 0.695D-01-0.129D+00 0.160D+00
 Coeff:     -0.394D-01-0.266D-01-0.700D-01 0.161D+00-0.213D+00 0.115D+00
 Coeff:     -0.565D+00 0.529D+00 0.902D+00-0.530D+00-0.105D+01-0.108D+01
 Coeff:      0.115D+01 0.165D+01
 Gap=     0.266 Goal=   None    Shift=    0.500
 Gap=     0.142 Goal=   None    Shift=    0.500
 RMSDP=8.20D-06 MaxDP=3.71D-04 DE=-1.63D-05 OVMax= 3.83D-03

 Cycle  31  Pass 1  IDiag  1:
 E= -844.994807906295     Delta-E=       -0.000010634076 Rises=F Damp=F
 DIIS: error= 2.47D-04 at cycle  31 NSaved=  20.
 NSaved=20 IEnMin=20 EnMin= -844.994807906295     IErMin=20 ErrMin= 2.47D-04
 ErrMax= 2.47D-04  0.00D+00 EMaxC= 1.00D+00 BMatC= 2.19D-05 BMatP= 3.85D-05
 IDIUse=1 WtCom= 1.00D+00 WtEn= 0.00D+00
 Coeff-Com: -0.246D-01 0.775D-02 0.604D-01-0.750D-01 0.520D-01 0.146D-01
 Coeff-Com: -0.542D-01-0.190D+00 0.930D-01 0.370D+00-0.523D-01-0.270D+00
 Coeff-Com: -0.503D-01-0.570D+00 0.127D+01 0.750D-01-0.149D+01-0.107D+00
 Coeff-Com: -0.385D+00 0.233D+01
 Coeff:     -0.246D-01 0.775D-02 0.604D-01-0.750D-01 0.520D-01 0.146D-01
 Coeff:     -0.542D-01-0.190D+00 0.930D-01 0.370D+00-0.523D-01-0.270D+00
 Coeff:     -0.503D-01-0.570D+00 0.127D+01 0.750D-01-0.149D+01-0.107D+00
 Coeff:     -0.385D+00 0.233D+01
 Gap=     0.266 Goal=   None    Shift=    0.500
 Gap=     0.142 Goal=   None    Shift=    0.500
 RMSDP=7.36D-06 MaxDP=3.11D-04 DE=-1.06D-05 OVMax= 3.24D-03

 Cycle  32  Pass 1  IDiag  1:
 E= -844.994813739073     Delta-E=       -0.000005832777 Rises=F Damp=F
 DIIS: error= 2.02D-04 at cycle  32 NSaved=  20.
 NSaved=20 IEnMin=20 EnMin= -844.994813739073     IErMin=20 ErrMin= 2.02D-04
 ErrMax= 2.02D-04  0.00D+00 EMaxC= 1.00D+00 BMatC= 1.48D-05 BMatP= 2.19D-05
 IDIUse=1 WtCom= 1.00D+00 WtEn= 0.00D+00
 Coeff-Com: -0.160D-01 0.155D-01 0.562D-04 0.423D-02 0.639D-01 0.120D-01
 Coeff-Com: -0.258D+00 0.784D-01-0.428D-01 0.209D+00 0.348D+00-0.369D+00
 Coeff-Com: -0.733D+00 0.760D+00 0.323D+00-0.455D+00-0.200D+00-0.118D+01
 Coeff-Com:  0.549D+00 0.189D+01
 Coeff:     -0.160D-01 0.155D-01 0.562D-04 0.423D-02 0.639D-01 0.120D-01
 Coeff:     -0.258D+00 0.784D-01-0.428D-01 0.209D+00 0.348D+00-0.369D+00
 Coeff:     -0.733D+00 0.760D+00 0.323D+00-0.455D+00-0.200D+00-0.118D+01
 Coeff:      0.549D+00 0.189D+01
 Gap=     0.266 Goal=   None    Shift=    0.500
 Gap=     0.142 Goal=   None    Shift=    0.500
 RMSDP=6.19D-06 MaxDP=2.75D-04 DE=-5.83D-06 OVMax= 2.66D-03

 >>>>>>>>>> Convergence criterion not met.
 SCF Done:  E(ULC-wHPBE) =  -844.994813739     A.U. after   33 cycles
            NFock= 32  Conv=0.62D-05     -V/T= 2.0053
 <Sx>= 0.0000 <Sy>= 0.0000 <Sz>= 0.5000 <S**2>= 0.7813 S= 0.5155
 <L.S>= 0.000000000000E+00
 KE= 8.405673791520D+02 PE=-4.898830085542D+03 EE= 1.725807687811D+03
 Annihilation of the first spin contaminant:
 S**2 before annihilation     0.7813,   after     0.7506
 Leave Link  502 at Thu Jan 21 05:20:41 2021, MaxMem=  4026531840 cpu:            9029.4 elap:            1131.6
 (Enter /opt/ohpc/pub/libs/gaussian/g16-A.03/sandybridge/g16/l508.exe)
 Integral symmetry usage will be decided dynamically.
 Tight linear equation convergence will be used.
 ULC-wHPBE wavefunction.
 Quadratic Convergence SCF Method.
 Line search only if initial step raises energy.
 FoFJK:  IHMeth= 1 ICntrl=       0 DoSepK=T KAlg= 0 I1Cent=           0 FoldK=F
 IRaf=         1 NMat=       1 IRICut=       1 DoRegI=T DoRafI=F ISym2E= 1 IDoP0=0 IntGTp=1.
 FoFCou: FMM=F IPFlag=           0 FMFlag=      100000 FMFlg1=           0
         NFxFlg=           0 DoJE=T BraDBF=F KetDBF=F FulRan=T
         wScrn=  0.000000 ICntrl=       500 IOpCl=  0 I1Cent=           0 NGrid=           0
         NMat0=    1 NMatS0=      1 NMatT0=    0 NMatD0=    1 NMtDS0=    0 NMtDT0=    0
 Petite list used in FoFCou.
 Iteration   1 EE= -844.994817600279                                    Grad=2.257D-03 Max rot=    0.0426 deg.
 QCNR:  CnvC1=2.26D-08 CnvC2=2.26D-07
 LinEq1:  Iter=  0 NonCon=     1 RMS=2.36D-05 Max=5.23D-03 NDo=     1
 AX will form     1 AO Fock derivatives at one time.
 LinEq1:  Iter=  1 NonCon=     1 RMS=1.07D-05 Max=9.27D-04 NDo=     1
 LinEq1:  Iter=  2 NonCon=     1 RMS=5.30D-06 Max=3.53D-04 NDo=     1
 LinEq1:  Iter=  3 NonCon=     1 RMS=4.58D-06 Max=4.93D-04 NDo=     1
 LinEq1:  Iter=  4 NonCon=     1 RMS=2.14D-06 Max=1.27D-04 NDo=     1
 LinEq1:  Iter=  5 NonCon=     1 RMS=1.58D-06 Max=1.79D-04 NDo=     1
 LinEq1:  Iter=  6 NonCon=     1 RMS=6.99D-07 Max=4.55D-05 NDo=     1
 LinEq1:  Iter=  7 NonCon=     1 RMS=4.82D-07 Max=4.08D-05 NDo=     1
 LinEq1:  Iter=  8 NonCon=     1 RMS=2.19D-07 Max=1.16D-05 NDo=     1
 LinEq1:  Iter=  9 NonCon=     1 RMS=1.31D-07 Max=1.12D-05 NDo=     1
 LinEq1:  Iter= 10 NonCon=     1 RMS=9.45D-08 Max=7.74D-06 NDo=     1
 LinEq1:  Iter= 11 NonCon=     1 RMS=6.23D-08 Max=5.18D-06 NDo=     1
 LinEq1:  Iter= 12 NonCon=     1 RMS=4.07D-08 Max=2.98D-06 NDo=     1
 LinEq1:  Iter= 13 NonCon=     1 RMS=1.77D-08 Max=1.04D-06 NDo=     1
 LinEq1:  Iter= 14 NonCon=     1 RMS=1.03D-08 Max=4.84D-07 NDo=     1
 LinEq1:  Iter= 15 NonCon=     1 RMS=5.28D-09 Max=3.46D-07 NDo=     1
 LinEq1:  Iter= 16 NonCon=     0 RMS=2.93D-09 Max=2.12D-07 NDo=     1
 Linear equations converged to 2.257D-08 2.257D-07 after    16 iterations.
 Angle between quadratic step and gradient=  68.51 degrees.
     ILin= 1 X=0.000D+00 Y=-8.449948176003D+02 DE= 0.00D+00 F= -1.39D-05
     ILin= 2 X=1.000D+00 Y=-8.449948245510D+02 DE=-6.95D-06
 Iteration   2 EE= -844.994824551050     Delta-E=       -0.000006950771 Grad=1.147D-05 Max rot=    0.0002 deg.
 Rotation gradient small -- convergence achieved.
 SCF Done:  E(ULC-wHPBE) =  -844.994824551     a.u. after    2 cycles
            Convg  =    0.1147D-04                    18 Fock formations.
              S**2 =  0.7816                  -V/T =  2.0053
 <Sx>= 0.0000 <Sy>= 0.0000 <Sz>= 0.5000 <S**2>= 0.7816 S= 0.5157
 <L.S>= 0.000000000000E+00
 Annihilation of the first spin contaminant:
 S**2 before annihilation     0.7816,   after     0.7507
 Leave Link  508 at Thu Jan 21 05:30:19 2021, MaxMem=  4026531840 cpu:            4603.2 elap:             577.6
 (Enter /opt/ohpc/pub/libs/gaussian/g16-A.03/sandybridge/g16/l601.exe)
 Copying SCF densities to generalized density rwf, IOpCl= 1 IROHF=0.

 **********************************************************************

            Population analysis using the SCF density.

 **********************************************************************

 Orbital symmetries:
 Alpha Orbitals:
       Occupied  (A) (A) (A) (A) (A) (A) (A) (A) (A) (A) (A) (A)
                 (A) (A) (A) (A) (A) (A) (A) (A) (A) (A) (A) (A)
                 (A) (A) (A) (A) (A) (A) (A) (A) (A) (A) (A) (A)
                 (A) (A) (A) (A) (A) (A) (A) (A) (A) (A) (A) (A)
                 (A) (A) (A) (A) (A) (A) (A) (A) (A) (A) (A) (A)
                 (A) (A) (A) (A) (A) (A) (A) (A) (A) (A) (A) (A)
                 (A) (A)
       Virtual   (A) (A) (A) (A) (A) (A) (A) (A) (A) (A) (A) (A)
                 (A) (A) (A) (A) (A) (A) (A) (A) (A) (A) (A) (A)
                 (A) (A) (A) (A) (A) (A) (A) (A) (A) (A) (A) (A)
                 (A) (A) (A) (A) (A) (A) (A) (A) (A) (A) (A) (A)
                 (A) (A) (A) (A) (A) (A) (A) (A) (A) (A) (A) (A)
                 (A) (A) (A) (A) (A) (A) (A) (A) (A) (A) (A) (A)
                 (A) (A) (A) (A) (A) (A) (A) (A) (A) (A) (A) (A)
                 (A) (A) (A) (A) (A) (A) (A) (A) (A) (A) (A) (A)
                 (A) (A) (A) (A) (A) (A) (A) (A) (A) (A) (A) (A)
                 (A) (A) (A) (A) (A) (A) (A) (A) (A) (A) (A) (A)
                 (A) (A) (A) (A) (A) (A) (A) (A) (A) (A) (A) (A)
                 (A) (A) (A) (A) (A) (A) (A) (A) (A) (A) (A) (A)
                 (A) (A) (A) (A) (A) (A) (A) (A) (A) (A) (A) (A)
                 (A) (A) (A) (A) (A) (A) (A) (A) (A) (A) (A) (A)
                 (A) (A) (A) (A) (A) (A) (A) (A) (A) (A) (A) (A)
                 (A) (A) (A) (A) (A) (A) (A) (A) (A) (A) (A) (A)
                 (A) (A) (A) (A) (A) (A) (A) (A) (A) (A) (A) (A)
                 (A) (A) (A) (A) (A) (A) (A) (A) (A) (A) (A) (A)
                 (A) (A) (A) (A) (A) (A) (A) (A) (A) (A) (A) (A)
                 (A) (A) (A) (A) (A) (A) (A) (A) (A) (A) (A) (A)
                 (A) (A) (A) (A) (A) (A) (A) (A) (A) (A) (A) (A)
                 (A) (A) (A) (A) (A) (A) (A) (A) (A) (A) (A) (A)
                 (A) (A) (A) (A) (A) (A) (A) (A) (A) (A) (A) (A)
                 (A) (A) (A) (A) (A) (A) (A) (A) (A) (A) (A) (A)
                 (A) (A) (A) (A) (A) (A) (A) (A) (A) (A) (A) (A)
                 (A) (A) (A) (A) (A) (A) (A) (A) (A) (A) (A) (A)
                 (A) (A) (A) (A) (A) (A) (A) (A) (A) (A) (A) (A)
                 (A) (A) (A) (A) (A) (A) (A) (A) (A) (A) (A) (A)
                 (A) (A) (A) (A) (A) (A) (A) (A) (A) (A) (A) (A)
                 (A) (A) (A) (A) (A) (A) (A) (A) (A) (A) (A) (A)
                 (A) (A) (A) (A) (A) (A) (A) (A) (A) (A) (A) (A)
                 (A) (A) (A) (A) (A) (A) (A) (A) (A) (A) (A) (A)
                 (A) (A) (A) (A) (A) (A) (A) (A) (A) (A) (A) (A)
                 (A) (A) (A) (A) (A) (A) (A) (A) (A) (A) (A) (A)
                 (A) (A) (A) (A) (A) (A) (A) (A) (A) (A) (A) (A)
                 (A) (A) (A) (A) (A) (A) (A) (A) (A) (A) (A) (A)
                 (A) (A) (A) (A) (A) (A) (A) (A) (A) (A) (A) (A)
                 (A) (A) (A) (A) (A) (A) (A)
 Beta  Orbitals:
       Occupied  (A) (A) (A) (A) (A) (A) (A) (A) (A) (A) (A) (A)
                 (A) (A) (A) (A) (A) (A) (A) (A) (A) (A) (A) (A)
                 (A) (A) (A) (A) (A) (A) (A) (A) (A) (A) (A) (A)
                 (A) (A) (A) (A) (A) (A) (A) (A) (A) (A) (A) (A)
                 (A) (A) (A) (A) (A) (A) (A) (A) (A) (A) (A) (A)
                 (A) (A) (A) (A) (A) (A) (A) (A) (A) (A) (A) (A)
                 (A)
       Virtual   (A) (A) (A) (A) (A) (A) (A) (A) (A) (A) (A) (A)
                 (A) (A) (A) (A) (A) (A) (A) (A) (A) (A) (A) (A)
                 (A) (A) (A) (A) (A) (A) (A) (A) (A) (A) (A) (A)
                 (A) (A) (A) (A) (A) (A) (A) (A) (A) (A) (A) (A)
                 (A) (A) (A) (A) (A) (A) (A) (A) (A) (A) (A) (A)
                 (A) (A) (A) (A) (A) (A) (A) (A) (A) (A) (A) (A)
                 (A) (A) (A) (A) (A) (A) (A) (A) (A) (A) (A) (A)
                 (A) (A) (A) (A) (A) (A) (A) (A) (A) (A) (A) (A)
                 (A) (A) (A) (A) (A) (A) (A) (A) (A) (A) (A) (A)
                 (A) (A) (A) (A) (A) (A) (A) (A) (A) (A) (A) (A)
                 (A) (A) (A) (A) (A) (A) (A) (A) (A) (A) (A) (A)
                 (A) (A) (A) (A) (A) (A) (A) (A) (A) (A) (A) (A)
                 (A) (A) (A) (A) (A) (A) (A) (A) (A) (A) (A) (A)
                 (A) (A) (A) (A) (A) (A) (A) (A) (A) (A) (A) (A)
                 (A) (A) (A) (A) (A) (A) (A) (A) (A) (A) (A) (A)
                 (A) (A) (A) (A) (A) (A) (A) (A) (A) (A) (A) (A)
                 (A) (A) (A) (A) (A) (A) (A) (A) (A) (A) (A) (A)
                 (A) (A) (A) (A) (A) (A) (A) (A) (A) (A) (A) (A)
                 (A) (A) (A) (A) (A) (A) (A) (A) (A) (A) (A) (A)
                 (A) (A) (A) (A) (A) (A) (A) (A) (A) (A) (A) (A)
                 (A) (A) (A) (A) (A) (A) (A) (A) (A) (A) (A) (A)
                 (A) (A) (A) (A) (A) (A) (A) (A) (A) (A) (A) (A)
                 (A) (A) (A) (A) (A) (A) (A) (A) (A) (A) (A) (A)
                 (A) (A) (A) (A) (A) (A) (A) (A) (A) (A) (A) (A)
                 (A) (A) (A) (A) (A) (A) (A) (A) (A) (A) (A) (A)
                 (A) (A) (A) (A) (A) (A) (A) (A) (A) (A) (A) (A)
                 (A) (A) (A) (A) (A) (A) (A) (A) (A) (A) (A) (A)
                 (A) (A) (A) (A) (A) (A) (A) (A) (A) (A) (A) (A)
                 (A) (A) (A) (A) (A) (A) (A) (A) (A) (A) (A) (A)
                 (A) (A) (A) (A) (A) (A) (A) (A) (A) (A) (A) (A)
                 (A) (A) (A) (A) (A) (A) (A) (A) (A) (A) (A) (A)
                 (A) (A) (A) (A) (A) (A) (A) (A) (A) (A) (A) (A)
                 (A) (A) (A) (A) (A) (A) (A) (A) (A) (A) (A) (A)
                 (A) (A) (A) (A) (A) (A) (A) (A) (A) (A) (A) (A)
                 (A) (A) (A) (A) (A) (A) (A) (A) (A) (A) (A) (A)
                 (A) (A) (A) (A) (A) (A) (A) (A) (A) (A) (A) (A)
[...]
    29  H(1)               0.00004       0.19885       0.07096       0.06633
    30  H(1)               0.00185       8.26129       2.94783       2.75567
    31  C(13)             -0.00186      -2.08829      -0.74515      -0.69658
    32  H(1)               0.00158       7.08125       2.52677       2.36205
    33  H(1)               0.00196       8.75360       3.12350       2.91989
    34  H(1)               0.00012       0.52023       0.18563       0.17353
    35  C(13)             -0.00200      -2.25011      -0.80289      -0.75056
    36  H(1)               0.00195       8.73052       3.11527       2.91219
    37  H(1)               0.00004       0.19658       0.07014       0.06557
    38  H(1)               0.00185       8.27711       2.95348       2.76095
    39  C(13)             -0.00186      -2.08942      -0.74556      -0.69696
    40  H(1)               0.00157       7.01724       2.50393       2.34070
    41  H(1)               0.00197       8.79318       3.13762       2.93309
    42  H(1)               0.00012       0.54506       0.19449       0.18181
 --------------------------------------------------------
       Center         ----  Spin Dipole Couplings  ----
                      3XX-RR        3YY-RR        3ZZ-RR
 --------------------------------------------------------
     1   Atom        0.015400      0.013736     -0.029136
     2   Atom       -0.153323     -0.135991      0.289314
     3   Atom       -0.057969     -0.037859      0.095829
     4   Atom        0.015403      0.013735     -0.029138
     5   Atom       -0.113173     -0.110889      0.224061
     6   Atom       -0.057961     -0.037858      0.095819
     7   Atom        0.021917     -0.018321     -0.003596
     8   Atom       -0.006011      0.010164     -0.004153
     9   Atom       -0.001412      0.004448     -0.003036
    10   Atom       -0.006010      0.010163     -0.004153
    11   Atom       -0.043504     -0.047936      0.091441
    12   Atom       -0.058944     -0.018135      0.077079
    13   Atom       -0.058953     -0.018143      0.077096
    14   Atom        0.028281      0.015627     -0.043908
    15   Atom        0.028281      0.015630     -0.043911
    16   Atom       -0.105642     -0.072779      0.178420
    17   Atom       -0.004522      0.007567     -0.003044
    18   Atom       -0.004523      0.007568     -0.003045
    19   Atom        0.001439      0.000604     -0.002043
    20   Atom        0.001439      0.000604     -0.002043
    21   Atom       -0.001412      0.004448     -0.003036
    22   Atom        0.035256      0.016817     -0.052073
    23   Atom       -0.005011     -0.003722      0.008734
    24   Atom       -0.005006     -0.003731      0.008737
    25   Atom       -0.094889     -0.094266      0.189155
    26   Atom       -0.094898     -0.094251      0.189150
    27   Atom       -0.001345      0.000329      0.001015
    28   Atom       -0.000504      0.001415     -0.000911
    29   Atom        0.001288      0.000266     -0.001554
    30   Atom       -0.000352      0.001087     -0.000734
    31   Atom        0.001880     -0.002253      0.000373
    32   Atom        0.001056     -0.000166     -0.000890
    33   Atom        0.001445     -0.000768     -0.000677
    34   Atom        0.001413     -0.000226     -0.001188
    35   Atom       -0.001348      0.000327      0.001020
    36   Atom       -0.000505      0.001419     -0.000913
    37   Atom        0.001288      0.000265     -0.001554
    38   Atom       -0.000352      0.001083     -0.000731
    39   Atom        0.001883     -0.002247      0.000364
    40   Atom        0.001059     -0.000162     -0.000898
    41   Atom        0.001444     -0.000773     -0.000671
    42   Atom        0.001414     -0.000226     -0.001188
 --------------------------------------------------------
                        XY            XZ            YZ
 --------------------------------------------------------
     1   Atom        0.000090     -0.009311      0.006556
     2   Atom       -0.000007      0.000030     -0.105269
     3   Atom        0.007828     -0.020127     -0.049870
     4   Atom       -0.000089      0.009304      0.006555
     5   Atom       -0.000004      0.000031     -0.043055
     6   Atom       -0.007835      0.020149     -0.049866
     7   Atom       -0.000001     -0.000002     -0.003866
     8   Atom       -0.004258     -0.000427      0.002202
     9   Atom        0.000466      0.000178      0.002513
    10   Atom        0.004259      0.000427      0.002202
    11   Atom        0.000002      0.000014      0.023780
    12   Atom        0.010535      0.016358      0.073100
    13   Atom       -0.010522     -0.016337      0.073102
    14   Atom        0.002422      0.006772     -0.025692
    15   Atom       -0.002427     -0.006785     -0.025691
    16   Atom        0.000005      0.000014      0.105040
    17   Atom       -0.003176      0.000729     -0.003366
    18   Atom        0.003176     -0.000729     -0.003366
    19   Atom       -0.001134      0.000800     -0.001702
    20   Atom        0.001134     -0.000801     -0.001702
    21   Atom       -0.000465     -0.000178      0.002513
    22   Atom        0.000001     -0.000001     -0.000846
    23   Atom       -0.003334      0.013258      0.000864
    24   Atom        0.003338     -0.013281      0.000833
    25   Atom        0.000910     -0.013184     -0.023539
    26   Atom       -0.000904      0.013066     -0.023635
    27   Atom        0.001123      0.000917      0.000958
    28   Atom        0.000219     -0.000054     -0.001040
    29   Atom        0.000077      0.000135      0.000303
    30   Atom       -0.000178     -0.000208      0.001217
    31   Atom       -0.000657      0.001051     -0.000708
    32   Atom       -0.001013      0.000806     -0.000609
    33   Atom       -0.000716     -0.001053      0.000439
    34   Atom        0.000438      0.000504      0.000036
    35   Atom       -0.001123     -0.000923      0.000967
    36   Atom       -0.000219      0.000053     -0.001039
    37   Atom       -0.000077     -0.000135      0.000303
    38   Atom        0.000178      0.000209      0.001219
    39   Atom        0.000655     -0.001036     -0.000713
    40   Atom        0.001019     -0.000801     -0.000603
    41   Atom        0.000708      0.001057      0.000436
    42   Atom       -0.000437     -0.000507      0.000036
 --------------------------------------------------------


 ---------------------------------------------------------------------------------
              Anisotropic Spin Dipole Couplings in Principal Axis System
 ---------------------------------------------------------------------------------

       Atom             a.u.   MegaHertz   Gauss  10(-4) cm-1        Axes

              Baa    -0.0319    -4.283    -1.528    -1.429  0.1914 -0.1399  0.9715
     1 C(13)  Bbb     0.0142     1.904     0.679     0.635  0.3789  0.9236  0.0583
              Bcc     0.0177     2.379     0.849     0.794  0.9054 -0.3570 -0.2298
 
              Baa    -0.1606   -21.554    -7.691    -7.190  0.0000  0.9737  0.2278
     2 C(13)  Bbb    -0.1533   -20.574    -7.341    -6.863  1.0000 -0.0000 -0.0001
              Bcc     0.3139    42.128    15.032    14.052  0.0001 -0.2278  0.9737
 
              Baa    -0.0608    -8.164    -2.913    -2.723  0.9786 -0.1958  0.0634
     3 C(13)  Bbb    -0.0542    -7.277    -2.597    -2.427  0.1645  0.9292  0.3309
              Bcc     0.1151    15.441     5.510     5.151 -0.1237 -0.3134  0.9415
 
              Baa    -0.0319    -4.283    -1.528    -1.428 -0.1913 -0.1399  0.9715
     4 C(13)  Bbb     0.0142     1.904     0.679     0.635 -0.3789  0.9236  0.0584
              Bcc     0.0177     2.379     0.849     0.794  0.9055  0.3569  0.2297
 
              Baa    -0.1163   -15.611    -5.570    -5.207  0.0000  0.9921  0.1255
     5 C(13)  Bbb    -0.1132   -15.187    -5.419    -5.066  1.0000 -0.0000 -0.0001
              Bcc     0.2295    30.798    10.989    10.273  0.0001 -0.1255  0.9921
 
              Baa    -0.0608    -8.164    -2.913    -2.723  0.9786  0.1957 -0.0636
     6 C(13)  Bbb    -0.0542    -7.277    -2.597    -2.427 -0.1644  0.9292  0.3309
              Bcc     0.1151    15.441     5.510     5.150  0.1238 -0.3134  0.9415
 
              Baa    -0.0193   -10.284    -3.669    -3.430  0.0000  0.9709  0.2394
     7 H(1)   Bbb    -0.0026    -1.410    -0.503    -0.470  0.0001 -0.2394  0.9709
              Bcc     0.0219    11.694     4.173     3.901  1.0000 -0.0000 -0.0001
 
              Baa    -0.0071    -3.771    -1.346    -1.258  0.9686  0.2448 -0.0431
     8 H(1)   Bbb    -0.0045    -2.384    -0.851    -0.795  0.0760 -0.1268  0.9890
              Bcc     0.0115     6.155     2.196     2.053 -0.2367  0.9612  0.1414
 
              Baa    -0.0038    -2.029    -0.724    -0.677 -0.0147 -0.2906  0.9567
     9 H(1)   Bbb    -0.0014    -0.773    -0.276    -0.258  0.9971 -0.0755 -0.0076
              Bcc     0.0053     2.802     1.000     0.935  0.0745  0.9539  0.2909
 
              Baa    -0.0071    -3.771    -1.346    -1.258  0.9686 -0.2449  0.0429
    10 H(1)   Bbb    -0.0045    -2.384    -0.851    -0.795 -0.0759 -0.1267  0.9890
              Bcc     0.0115     6.155     2.196     2.053  0.2368  0.9612  0.1413
 
              Baa    -0.0519    -6.962    -2.484    -2.322  0.0000  0.9865 -0.1637
    11 C(13)  Bbb    -0.0435    -5.838    -2.083    -1.947  1.0000 -0.0000 -0.0001
              Bcc     0.0954    12.800     4.567     4.270  0.0001  0.1637  0.9865
 
              Baa    -0.0616    -8.268    -2.950    -2.758  0.9298 -0.3594  0.0797
    12 C(13)  Bbb    -0.0572    -7.677    -2.739    -2.561  0.3518  0.8035 -0.4802
              Bcc     0.1188    15.945     5.690     5.319  0.1085  0.4746  0.8735
 
              Baa    -0.0616    -8.268    -2.950    -2.758  0.9298  0.3593 -0.0799
    13 C(13)  Bbb    -0.0572    -7.678    -2.740    -2.561 -0.3518  0.8036 -0.4801
              Bcc     0.1188    15.946     5.690     5.319 -0.1084  0.4745  0.8735
 
              Baa    -0.0541    -7.258    -2.590    -2.421 -0.0870  0.3471  0.9338
    14 C(13)  Bbb     0.0252     3.379     1.206     1.127  0.0240  0.9378 -0.3464
              Bcc     0.0289     3.880     1.384     1.294  0.9959  0.0078  0.0899
 
              Baa    -0.0541    -7.259    -2.590    -2.421  0.0871  0.3471  0.9338
    15 C(13)  Bbb     0.0252     3.379     1.206     1.127 -0.0239  0.9378 -0.3464
              Bcc     0.0289     3.880     1.384     1.294  0.9959 -0.0078 -0.0900
 
              Baa    -0.1109   -14.883    -5.311    -4.965  0.0000  0.9400 -0.3412
    16 C(13)  Bbb    -0.1056   -14.176    -5.058    -4.729  1.0000 -0.0000 -0.0000
              Bcc     0.2166    29.059    10.369     9.693  0.0000  0.3412  0.9400
 
              Baa    -0.0053    -2.835    -1.011    -0.946  0.9642  0.2560  0.0699
    17 H(1)   Bbb    -0.0040    -2.133    -0.761    -0.711 -0.1341  0.2428  0.9607
              Bcc     0.0093     4.967     1.772     1.657 -0.2290  0.9357 -0.2685
 
              Baa    -0.0053    -2.835    -1.012    -0.946  0.9641 -0.2560 -0.0700
    18 H(1)   Bbb    -0.0040    -2.133    -0.761    -0.711  0.1343  0.2428  0.9607
              Bcc     0.0093     4.968     1.773     1.657  0.2290  0.9357 -0.2684
 
              Baa    -0.0029    -1.541    -0.550    -0.514 -0.0566  0.4225  0.9046
    19 H(1)   Bbb     0.0001     0.040     0.014     0.014  0.7038  0.6595 -0.2640
              Bcc     0.0028     1.501     0.535     0.501  0.7082 -0.6217  0.3347
 
              Baa    -0.0029    -1.541    -0.550    -0.514  0.0567  0.4225  0.9046
    20 H(1)   Bbb     0.0001     0.040     0.014     0.014  0.7038 -0.6596  0.2639
              Bcc     0.0028     1.501     0.535     0.501  0.7082  0.6217 -0.3347
 
              Baa    -0.0038    -2.029    -0.724    -0.677  0.0148 -0.2906  0.9567
    21 H(1)   Bbb    -0.0014    -0.773    -0.276    -0.258  0.9971  0.0755  0.0075
              Bcc     0.0053     2.802     1.000     0.935 -0.0744  0.9539  0.2909
 
              Baa    -0.0521    -6.989    -2.494    -2.331  0.0000  0.0123  0.9999
    22 C(13)  Bbb     0.0168     2.258     0.806     0.753 -0.0000  0.9999 -0.0123
              Bcc     0.0353     4.731     1.688     1.578  1.0000  0.0000 -0.0000
 
              Baa    -0.0141    -1.895    -0.676    -0.632  0.8193  0.3031 -0.4867
    23 C(13)  Bbb    -0.0027    -0.365    -0.130    -0.122 -0.2339  0.9517  0.1989
              Bcc     0.0168     2.260     0.807     0.754  0.5235 -0.0491  0.8506
 
              Baa    -0.0141    -1.896    -0.677    -0.632  0.8195 -0.3021  0.4870
    24 C(13)  Bbb    -0.0027    -0.368    -0.131    -0.123  0.2323  0.9519  0.1997
              Bcc     0.0169     2.264     0.808     0.755 -0.5239 -0.0505  0.8503
 
              Baa    -0.0962    -3.712    -1.325    -1.238  0.2285  0.9693  0.0905
    25 N(14)  Bbb    -0.0955    -3.682    -1.314    -1.228  0.9725 -0.2316  0.0259
              Bcc     0.1917     7.394     2.638     2.466 -0.0461 -0.0821  0.9956
 
              Baa    -0.0963    -3.712    -1.325    -1.238 -0.2285  0.9693  0.0907
    26 N(14)  Bbb    -0.0955    -3.681    -1.314    -1.228  0.9725  0.2317 -0.0254
              Bcc     0.1917     7.394     2.638     2.466  0.0456 -0.0824  0.9956
 
              Baa    -0.0020    -0.264    -0.094    -0.088  0.9117 -0.3791 -0.1583
    27 C(13)  Bbb    -0.0003    -0.036    -0.013    -0.012  0.1839  0.7212 -0.6679
              Bcc     0.0022     0.301     0.107     0.100  0.3673  0.5798  0.7273
 
              Baa    -0.0013    -0.698    -0.249    -0.233 -0.0358  0.3589  0.9327
    28 H(1)   Bbb    -0.0005    -0.280    -0.100    -0.093  0.9948 -0.0762  0.0675
              Bcc     0.0018     0.978     0.349     0.326  0.0954  0.9302 -0.3543
 
              Baa    -0.0016    -0.858    -0.306    -0.286 -0.0417 -0.1576  0.9866
    29 H(1)   Bbb     0.0003     0.163     0.058     0.054 -0.0982  0.9834  0.1529
              Bcc     0.0013     0.695     0.248     0.232  0.9943  0.0905  0.0564
 
              Baa    -0.0014    -0.723    -0.258    -0.241  0.1075 -0.4372  0.8929
    30 H(1)   Bbb    -0.0004    -0.198    -0.071    -0.066  0.9869  0.1558 -0.0425
              Bcc     0.0017     0.921     0.329     0.307 -0.1205  0.8858  0.4482
 
              Baa    -0.0025    -0.331    -0.118    -0.110  0.0971  0.9736  0.2068
    31 C(13)  Bbb    -0.0001    -0.016    -0.006    -0.005 -0.4945 -0.1331  0.8589
              Bcc     0.0026     0.348     0.124     0.116  0.8637 -0.1857  0.4685
 
              Baa    -0.0013    -0.677    -0.242    -0.226 -0.1627  0.3581  0.9194
    32 H(1)   Bbb    -0.0007    -0.378    -0.135    -0.126  0.5578  0.8020 -0.2137
              Bcc     0.0020     1.055     0.377     0.352  0.8139 -0.4781  0.3302
 
              Baa    -0.0012    -0.639    -0.228    -0.213  0.1829 -0.5367  0.8237
    33 H(1)   Bbb    -0.0009    -0.491    -0.175    -0.164  0.4299  0.7971  0.4240
              Bcc     0.0021     1.130     0.403     0.377  0.8841 -0.2766 -0.3766
 
              Baa    -0.0013    -0.685    -0.244    -0.228 -0.1905  0.0457  0.9806
    34 H(1)   Bbb    -0.0003    -0.175    -0.062    -0.058 -0.2193  0.9717 -0.0879
              Bcc     0.0016     0.860     0.307     0.287  0.9569  0.2318  0.1751
 
              Baa    -0.0020    -0.265    -0.095    -0.088  0.9120  0.3782  0.1591
    35 C(13)  Bbb    -0.0003    -0.038    -0.013    -0.013 -0.1832  0.7223 -0.6669
              Bcc     0.0023     0.303     0.108     0.101 -0.3671  0.5790  0.7280
 
              Baa    -0.0013    -0.699    -0.249    -0.233  0.0356  0.3580  0.9330
    36 H(1)   Bbb    -0.0005    -0.281    -0.100    -0.094  0.9948  0.0762 -0.0672
              Bcc     0.0018     0.979     0.349     0.327 -0.0952  0.9306 -0.3534
 
              Baa    -0.0016    -0.858    -0.306    -0.286  0.0418 -0.1578  0.9866
    37 H(1)   Bbb     0.0003     0.163     0.058     0.054  0.0978  0.9833  0.1532
              Bcc     0.0013     0.695     0.248     0.232  0.9943 -0.0901 -0.0566
 
              Baa    -0.0014    -0.723    -0.258    -0.241 -0.1083 -0.4382  0.8923
    38 H(1)   Bbb    -0.0004    -0.198    -0.071    -0.066  0.9867 -0.1565  0.0429
              Bcc     0.0017     0.921     0.329     0.307  0.1209  0.8851  0.4493
 
              Baa    -0.0025    -0.331    -0.118    -0.110 -0.0966  0.9729  0.2099
    39 C(13)  Bbb    -0.0001    -0.015    -0.005    -0.005  0.4913 -0.1367  0.8602
              Bcc     0.0026     0.346     0.124     0.115  0.8656  0.1862 -0.4648
 
              Baa    -0.0013    -0.677    -0.242    -0.226  0.1633  0.3514  0.9219
    40 H(1)   Bbb    -0.0007    -0.379    -0.135    -0.127 -0.5568  0.8042 -0.2079
              Bcc     0.0020     1.057     0.377     0.352  0.8144  0.4793 -0.3270
 
              Baa    -0.0012    -0.637    -0.227    -0.213 -0.1840 -0.5401  0.8212
    41 H(1)   Bbb    -0.0009    -0.491    -0.175    -0.164 -0.4292  0.7958  0.4272
              Bcc     0.0021     1.129     0.403     0.377  0.8843  0.2739  0.3783
 
              Baa    -0.0013    -0.686    -0.245    -0.229  0.1916  0.0453  0.9804
    42 H(1)   Bbb    -0.0003    -0.175    -0.062    -0.058  0.2182  0.9720 -0.0876
              Bcc     0.0016     0.860     0.307     0.287  0.9569 -0.2307 -0.1763
 

 ---------------------------------------------------------------------------------

 No NMR shielding tensors so no spin-rotation constants.
 Leave Link  601 at Thu Jan 21 05:30:19 2021, MaxMem=  4026531840 cpu:               4.8 elap:               0.7
 (Enter /opt/ohpc/pub/libs/gaussian/g16-A.03/sandybridge/g16/l9999.exe)

 Test job not archived.
 1\1\GINC-CASCADEB025\SP\ULC-wHPBE\TZVP\C19H21N2(2+,2)\RDU230\21-Jan-20
 21\0\\#P LC-wHPBE/TZVP iop(3/107=0211700000, 3/108=0211700000) scf=(co
 nver=6,fermi,ndamp=35,noincfock,novaracc,vshift=500,xqc)\\H21 C19 N2\\
 2,2\C,0,5.924302,-1.175178,0.28256\C,0,6.625626,0.000025,-0.000251\C,0
 ,4.530324,-1.177472,0.278212\C,0,5.924206,1.175202,-0.282951\C,0,3.810
 936,-0.000036,-0.000021\C,0,4.530233,1.177435,-0.278371\H,0,7.716547,0
 .000056,-0.000331\H,0,3.994064,-2.094974,0.527939\H,0,6.466302,2.09321
 ,-0.514746\H,0,3.99388,2.094904,-0.52801\C,0,2.333716,-0.000062,0.0001
 09\C,0,1.604784,1.119278,0.452707\C,0,1.604752,-1.119433,-0.452341\C,0
 ,0.21685,1.12577,0.449243\C,0,0.216813,-1.125977,-0.44867\C,0,-0.50491
 9,-0.000106,0.000309\H,0,2.141671,1.985727,0.840835\H,0,2.141597,-1.98
 5891,-0.840507\H,0,-0.315693,1.995203,0.838189\H,0,-0.315745,-1.995465
 ,-0.837475\H,0,6.466484,-2.093156,0.514265\C,0,-1.942874,-0.000086,0.0
 00402\C,0,-3.143323,-0.702637,-0.003392\C,0,-3.143127,0.702801,0.00391
 5\N,0,-3.78708,-1.855019,0.001668\N,0,-3.786774,1.855252,-0.001097\C,0
 ,-3.068411,-3.12252,0.167733\H,0,-3.187886,-3.74858,-0.728596\H,0,-2.0
 05788,-2.927607,0.341041\H,0,-3.471162,-3.663551,1.036238\C,0,-5.24512
 1,-1.94416,-0.100275\H,0,-5.509149,-2.713998,-0.838669\H,0,-5.688951,-
 2.217262,0.869111\H,0,-5.659251,-0.989594,-0.439085\C,0,-3.068047,3.12
 2616,-0.16813\H,0,-3.188116,3.749602,0.727455\H,0,-2.005304,2.927538,-
 0.340531\H,0,-3.470192,3.662707,-1.037509\C,0,-5.24495,1.944232,0.0993
 91\H,0,-5.509538,2.71844,0.832954\H,0,-5.688631,2.211256,-0.871774\H,0
 ,-5.658779,0.991638,0.444142\\Version=EM64L-G16RevA.03\State=2-A\HF=-8
 44.9948246\S2=0.781615\S2-1=0.\S2A=0.750651\RMSD=4.452e-08\Dipole=-1.0
 852532,0.0000466,-0.0008352\Quadrupole=87.1400447,-23.5906824,-63.5493
 623,-0.0001502,0.004592,0.1944113\PG=C01 [X(C19H21N2)]\\@


 LAWS OF PROGRAMMING DEFINITION:  A WORKING PROGRAM
                                  IS ONE THAT HAS
                                  ONLY UNOBSERVED
                                  BUGS.
 Job cpu time:       0 days  3 hours 48 minutes  9.4 seconds.
 Elapsed time:       0 days  0 hours 28 minutes 36.7 seconds.
 File lengths (MBytes):  RWF=    188 Int=      0 D2E=      0 Chk=     24 Scr=      8
 Normal termination of Gaussian 16 at Thu Jan 21 05:30:20 2021.
