 Entering Gaussian System, Link 0=g16
 Input=mol_bp_cp_half_tune_n11.gjf
 Output=mol_bp_cp_half_tune_n11.log
 Initial command:
 /opt/ohpc/pub/libs/gaussian/g16-A.03/sandybridge/g16/l1.exe "/mnt/gpfs2_4m/scratch/rdu230/ondemand/projects/init_structures/wtuning/mol_bp_cp_half/tuning_mol_bp_cp_half_ocycle0/Gau-302262.inp" -scrdir="/mnt/gpfs2_4m/scratch/rdu230/ondemand/projects/init_structures/wtuning/mol_bp_cp_half/tuning_mol_bp_cp_half_ocycle0/"
 Entering Link 1 = /opt/ohpc/pub/libs/gaussian/g16-A.03/sandybridge/g16/l1.exe PID=    302263.
  
 Copyright (c) 1988,1990,1992,1993,1995,1998,2003,2009,2016,
            Gaussian, Inc.  All Rights Reserved.
  
 This is part of the Gaussian(R) 16 program.  It is based on
 the Gaussian(R) 09 system (copyright 2009, Gaussian, Inc.),
 the Gaussian(R) 03 system (copyright 2003, Gaussian, Inc.),
 the Gaussian(R) 98 system (copyright 1998, Gaussian, Inc.),
 the Gaussian(R) 94 system (copyright 1995, Gaussian, Inc.),
 the Gaussian 92(TM) system (copyright 1992, Gaussian, Inc.),
 the Gaussian 90(TM) system (copyright 1990, Gaussian, Inc.),
 the Gaussian 88(TM) system (copyright 1988, Gaussian, Inc.),
 the Gaussian 86(TM) system (copyright 1986, Carnegie Mellon
 University), and the Gaussian 82(TM) system (copyright 1983,
 Carnegie Mellon University). Gaussian is a federally registered
 trademark of Gaussian, Inc.
  
 This software contains proprietary and confidential information,
 including trade secrets, belonging to Gaussian, Inc.
  
 This software is provided under written license and may be
 used, copied, transmitted, or stored only in accord with that
 written license.
  
 The following legend is applicable only to US Government
 contracts under FAR:
  
                    RESTRICTED RIGHTS LEGEND
  
 Use, reproduction and disclosure by the US Government is
 subject to restrictions as set forth in subparagraphs (a)
 and (c) of the Commercial Computer Software - Restricted
 Rights clause in FAR 52.227-19.
  
 Gaussian, Inc.
 340 Quinnipiac St., Bldg. 40, Wallingford CT 06492
  
  
 ---------------------------------------------------------------
 Warning -- This program may not be used in any manner that
 competes with the business of Gaussian, Inc. or will provide
 assistance to any competitor of Gaussian, Inc.  The licensee
 of this program is prohibited from giving any competitor of
 Gaussian, Inc. access to this program.  By using this program,
 the user acknowledges that Gaussian, Inc. is engaged in the
 business of creating and licensing software in the field of
 computational chemistry and represents and warrants to the
 licensee that it is not a competitor of Gaussian, Inc. and that
 it will not use this program in any manner prohibited above.
 ---------------------------------------------------------------
  

 Cite this work as:
 Gaussian 16, Revision A.03,
 M. J. Frisch, G. W. Trucks, H. B. Schlegel, G. E. Scuseria, 
 M. A. Robb, J. R. Cheeseman, G. Scalmani, V. Barone, 
 G. A. Petersson, H. Nakatsuji, X. Li, M. Caricato, A. V. Marenich, 
 J. Bloino, B. G. Janesko, R. Gomperts, B. Mennucci, H. P. Hratchian, 
 J. V. Ortiz, A. F. Izmaylov, J. L. Sonnenberg, D. Williams-Young, 
 F. Ding, F. Lipparini, F. Egidi, J. Goings, B. Peng, A. Petrone, 
 T. Henderson, D. Ranasinghe, V. G. Zakrzewski, J. Gao, N. Rega, 
 G. Zheng, W. Liang, M. Hada, M. Ehara, K. Toyota, R. Fukuda, 
 J. Hasegawa, M. Ishida, T. Nakajima, Y. Honda, O. Kitao, H. Nakai, 
 T. Vreven, K. Throssell, J. A. Montgomery, Jr., J. E. Peralta, 
 F. Ogliaro, M. J. Bearpark, J. J. Heyd, E. N. Brothers, K. N. Kudin, 
 V. N. Staroverov, T. A. Keith, R. Kobayashi, J. Normand, 
 K. Raghavachari, A. P. Rendell, J. C. Burant, S. S. Iyengar, 
 J. Tomasi, M. Cossi, J. M. Millam, M. Klene, C. Adamo, R. Cammi, 
 J. W. Ochterski, R. L. Martin, K. Morokuma, O. Farkas, 
 J. B. Foresman, and D. J. Fox, Gaussian, Inc., Wallingford CT, 2016.
 
 ******************************************
 Gaussian 16:  EM64L-G16RevA.03 25-Dec-2016
                21-Jan-2021 
 ******************************************
 %mem=30GB
 %nproc=8
 Will use up to    8 processors via shared memory.
 ----------------------------------------------------------------------
 #P LC-wHPBE/TZVP iop(3/107=0208400000, 3/108=0208400000) scf=(conver=6
 ,fermi,ndamp=35,noincfock,novaracc,vshift=500,xqc)
 ----------------------------------------------------------------------
 1/38=1,172=1/1;
 2/12=2,17=6,18=5,40=1/2;
 3/5=19,7=101,11=2,25=1,30=1,74=-71,107=208400000,108=208400000/1,2,3;
 4//1;
 5/5=100002,6=6,8=3,10=500,13=1,18=-1,22=13,38=1,93=35/2,8;
 6/7=2,8=2,9=2,10=2,28=1/1;
 99/5=1,9=1/99;
 Leave Link    1 at Thu Jan 21 06:42:43 2021, MaxMem=  4026531840 cpu:               1.7 elap:               0.2
 (Enter /opt/ohpc/pub/libs/gaussian/g16-A.03/sandybridge/g16/l101.exe)
 ----------
 H21 C19 N2
 ----------
 Symbolic Z-matrix:
 Charge =  1 Multiplicity = 1
 C                     5.9243   -1.17518   0.28256 
 C                     6.62563   0.00003  -0.00025 
 C                     4.53032  -1.17747   0.27821 
 C                     5.92421   1.1752   -0.28295 
 C                     3.81094  -0.00004  -0.00002 
 C                     4.53023   1.17744  -0.27837 
 H                     7.71655   0.00006  -0.00033 
 H                     3.99406  -2.09497   0.52794 
 H                     6.4663    2.09321  -0.51475 
 H                     3.99388   2.0949   -0.52801 
 C                     2.33372  -0.00006   0.00011 
 C                     1.60478   1.11928   0.45271 
 C                     1.60475  -1.11943  -0.45234 
 C                     0.21685   1.12577   0.44924 
 C                     0.21681  -1.12598  -0.44867 
 C                    -0.50492  -0.00011   0.00031 
 H                     2.14167   1.98573   0.84084 
 H                     2.1416   -1.98589  -0.84051 
 H                    -0.31569   1.9952    0.83819 
 H                    -0.31575  -1.99547  -0.83748 
 H                     6.46648  -2.09316   0.51427 
 C                    -1.94287  -0.00009   0.0004 
 C                    -3.14332  -0.70264  -0.00339 
 C                    -3.14313   0.7028    0.00392 
 N                    -3.78708  -1.85502   0.00167 
 N                    -3.78677   1.85525  -0.0011 
 C                    -3.06841  -3.12252   0.16773 
 H                    -3.18789  -3.74858  -0.7286 
 H                    -2.00579  -2.92761   0.34104 
 H                    -3.47116  -3.66355   1.03624 
 C                    -5.24512  -1.94416  -0.10028 
 H                    -5.50915  -2.714    -0.83867 
 H                    -5.68895  -2.21726   0.86911 
 H                    -5.65925  -0.98959  -0.43909 
 C                    -3.06805   3.12262  -0.16813 
 H                    -3.18812   3.7496    0.72746 
 H                    -2.0053    2.92754  -0.34053 
 H                    -3.47019   3.66271  -1.03751 
 C                    -5.24495   1.94423   0.09939 
 H                    -5.50954   2.71844   0.83295 
 H                    -5.68863   2.21126  -0.87177 
 H                    -5.65878   0.99164   0.44414 
 
 ITRead=  0  0  0  0  0  0  0  0  0  0  0  0  0  0  0  0  0  0  0  0
 ITRead=  0  0  0  0  0  0  0  0  0  0  0  0  0  0  0  0  0  0  0  0
 ITRead=  0  0
 MicOpt= -1 -1 -1 -1 -1 -1 -1 -1 -1 -1 -1 -1 -1 -1 -1 -1 -1 -1 -1 -1
 MicOpt= -1 -1 -1 -1 -1 -1 -1 -1 -1 -1 -1 -1 -1 -1 -1 -1 -1 -1 -1 -1
 MicOpt= -1 -1
 NAtoms=     42 NQM=       42 NQMF=       0 NMMI=      0 NMMIF=      0
                NMic=       0 NMicF=      0.
                    Isotopes and Nuclear Properties:
 (Nuclear quadrupole moments (NQMom) in fm**2, nuclear magnetic moments (NMagM)
  in nuclear magnetons)

  Atom         1           2           3           4           5           6           7           8           9          10
 IAtWgt=          12          12          12          12          12          12           1           1           1           1
 AtmWgt=  12.0000000  12.0000000  12.0000000  12.0000000  12.0000000  12.0000000   1.0078250   1.0078250   1.0078250   1.0078250
 NucSpn=           0           0           0           0           0           0           1           1           1           1
 AtZEff=  -0.0000000  -0.0000000  -0.0000000  -0.0000000  -0.0000000  -0.0000000  -0.0000000  -0.0000000  -0.0000000  -0.0000000
 NQMom=    0.0000000   0.0000000   0.0000000   0.0000000   0.0000000   0.0000000   0.0000000   0.0000000   0.0000000   0.0000000
 NMagM=    0.0000000   0.0000000   0.0000000   0.0000000   0.0000000   0.0000000   2.7928460   2.7928460   2.7928460   2.7928460
 AtZNuc=   6.0000000   6.0000000   6.0000000   6.0000000   6.0000000   6.0000000   1.0000000   1.0000000   1.0000000   1.0000000

  Atom        11          12          13          14          15          16          17          18          19          20
 IAtWgt=          12          12          12          12          12          12           1           1           1           1
 AtmWgt=  12.0000000  12.0000000  12.0000000  12.0000000  12.0000000  12.0000000   1.0078250   1.0078250   1.0078250   1.0078250
 NucSpn=           0           0           0           0           0           0           1           1           1           1
 AtZEff=  -0.0000000  -0.0000000  -0.0000000  -0.0000000  -0.0000000  -0.0000000  -0.0000000  -0.0000000  -0.0000000  -0.0000000
 NQMom=    0.0000000   0.0000000   0.0000000   0.0000000   0.0000000   0.0000000   0.0000000   0.0000000   0.0000000   0.0000000
 NMagM=    0.0000000   0.0000000   0.0000000   0.0000000   0.0000000   0.0000000   2.7928460   2.7928460   2.7928460   2.7928460
 AtZNuc=   6.0000000   6.0000000   6.0000000   6.0000000   6.0000000   6.0000000   1.0000000   1.0000000   1.0000000   1.0000000

  Atom        21          22          23          24          25          26          27          28          29          30
 IAtWgt=           1          12          12          12          14          14          12           1           1           1
 AtmWgt=   1.0078250  12.0000000  12.0000000  12.0000000  14.0030740  14.0030740  12.0000000   1.0078250   1.0078250   1.0078250
 NucSpn=           1           0           0           0           2           2           0           1           1           1
 AtZEff=  -0.0000000  -0.0000000  -0.0000000  -0.0000000  -0.0000000  -0.0000000  -0.0000000  -0.0000000  -0.0000000  -0.0000000
 NQMom=    0.0000000   0.0000000   0.0000000   0.0000000   2.0440000   2.0440000   0.0000000   0.0000000   0.0000000   0.0000000
 NMagM=    2.7928460   0.0000000   0.0000000   0.0000000   0.4037610   0.4037610   0.0000000   2.7928460   2.7928460   2.7928460
 AtZNuc=   1.0000000   6.0000000   6.0000000   6.0000000   7.0000000   7.0000000   6.0000000   1.0000000   1.0000000   1.0000000

  Atom        31          32          33          34          35          36          37          38          39          40
 IAtWgt=          12           1           1           1          12           1           1           1          12           1
 AtmWgt=  12.0000000   1.0078250   1.0078250   1.0078250  12.0000000   1.0078250   1.0078250   1.0078250  12.0000000   1.0078250
 NucSpn=           0           1           1           1           0           1           1           1           0           1
 AtZEff=  -0.0000000  -0.0000000  -0.0000000  -0.0000000  -0.0000000  -0.0000000  -0.0000000  -0.0000000  -0.0000000  -0.0000000
 NQMom=    0.0000000   0.0000000   0.0000000   0.0000000   0.0000000   0.0000000   0.0000000   0.0000000   0.0000000   0.0000000
 NMagM=    0.0000000   2.7928460   2.7928460   2.7928460   0.0000000   2.7928460   2.7928460   2.7928460   0.0000000   2.7928460
 AtZNuc=   6.0000000   1.0000000   1.0000000   1.0000000   6.0000000   1.0000000   1.0000000   1.0000000   6.0000000   1.0000000

  Atom        41          42
 IAtWgt=           1           1
 AtmWgt=   1.0078250   1.0078250
 NucSpn=           1           1
 AtZEff=  -0.0000000  -0.0000000
 NQMom=    0.0000000   0.0000000
 NMagM=    2.7928460   2.7928460
 AtZNuc=   1.0000000   1.0000000
 Leave Link  101 at Thu Jan 21 06:42:43 2021, MaxMem=  4026531840 cpu:               0.7 elap:               0.1
 (Enter /opt/ohpc/pub/libs/gaussian/g16-A.03/sandybridge/g16/l202.exe)
                          Input orientation:                          
 ---------------------------------------------------------------------
 Center     Atomic      Atomic             Coordinates (Angstroms)
 Number     Number       Type             X           Y           Z
 ---------------------------------------------------------------------
      1          6           0        5.924302   -1.175178    0.282560
      2          6           0        6.625626    0.000025   -0.000251
      3          6           0        4.530324   -1.177472    0.278212
      4          6           0        5.924206    1.175202   -0.282951
      5          6           0        3.810936   -0.000036   -0.000021
      6          6           0        4.530233    1.177435   -0.278371
      7          1           0        7.716547    0.000056   -0.000331
      8          1           0        3.994064   -2.094974    0.527939
      9          1           0        6.466302    2.093210   -0.514746
     10          1           0        3.993880    2.094904   -0.528010
     11          6           0        2.333716   -0.000062    0.000109
     12          6           0        1.604784    1.119278    0.452707
     13          6           0        1.604752   -1.119433   -0.452341
     14          6           0        0.216850    1.125770    0.449243
     15          6           0        0.216813   -1.125977   -0.448670
     16          6           0       -0.504919   -0.000106    0.000309
     17          1           0        2.141671    1.985727    0.840835
     18          1           0        2.141597   -1.985891   -0.840507
     19          1           0       -0.315693    1.995203    0.838189
     20          1           0       -0.315745   -1.995465   -0.837475
     21          1           0        6.466484   -2.093156    0.514265
     22          6           0       -1.942874   -0.000086    0.000402
     23          6           0       -3.143323   -0.702637   -0.003392
     24          6           0       -3.143127    0.702801    0.003915
     25          7           0       -3.787080   -1.855019    0.001668
     26          7           0       -3.786774    1.855252   -0.001097
     27          6           0       -3.068411   -3.122520    0.167733
     28          1           0       -3.187886   -3.748580   -0.728596
     29          1           0       -2.005788   -2.927607    0.341041
     30          1           0       -3.471162   -3.663551    1.036238
     31          6           0       -5.245121   -1.944160   -0.100275
     32          1           0       -5.509149   -2.713998   -0.838669
     33          1           0       -5.688951   -2.217262    0.869111
     34          1           0       -5.659251   -0.989594   -0.439085
     35          6           0       -3.068047    3.122616   -0.168130
     36          1           0       -3.188116    3.749602    0.727455
     37          1           0       -2.005304    2.927538   -0.340531
     38          1           0       -3.470192    3.662707   -1.037509
     39          6           0       -5.244950    1.944232    0.099391
     40          1           0       -5.509538    2.718440    0.832954
     41          1           0       -5.688631    2.211256   -0.871774
     42          1           0       -5.658779    0.991638    0.444142
 ---------------------------------------------------------------------
                    Distance matrix (angstroms):
                    1          2          3          4          5
     1  C    0.000000
     2  C    1.397476   0.000000
     3  C    1.393987   2.419573   0.000000
     4  C    2.417455   1.397480   2.791574   0.000000
     5  C    2.434569   2.814690   1.407582   2.434573   0.000000
     6  C    2.791569   2.419570   2.419788   1.393982   1.407588
     7  H    2.161792   1.090921   3.408251   2.161788   3.905611
     8  H    2.152221   3.404868   1.091672   3.882917   2.168189
     9  H    3.407612   2.161368   3.882545   1.091025   3.420174
    10  H    3.882910   3.404869   3.412655   2.152223   2.168182
    11  C    3.788533   4.291910   2.507733   3.788534   1.477220
    12  C    4.894049   5.163986   3.723479   4.381977   2.514942
    13  C    4.381974   5.163986   3.015965   4.894050   2.514934
    14  C    6.156066   6.522404   4.892876   5.754343   3.792985
    15  C    5.754350   6.522411   4.374630   6.156072   3.792987
    16  C    6.541815   7.130545   5.178522   6.541807   4.315855
    17  H    4.960977   4.975569   4.003503   4.028327   2.727039
    18  H    4.028324   4.975581   2.758820   4.960999   2.727037
    19  H    7.021223   7.270875   5.819220   6.392628   4.659683
    20  H    6.392616   7.270870   5.039668   7.021226   4.659674
    21  H    1.091023   2.161356   2.154742   3.407607   3.420172
    22  C    7.959454   8.568500   6.585265   7.959431   5.753810
    23  C    9.084431   9.794187   7.693480   9.264152   6.989662
    24  C    9.264055   9.794001   7.905221   9.084161   6.989491
    25  N    9.739200  10.576655   8.349536  10.177049   7.821177
    26  N   10.176884  10.576386   8.857175   9.738842   7.820952
    27  C    9.201859  10.185915   7.844501   9.977008   7.556683
    28  H    9.522437  10.530315   8.197257  10.366892   7.972823
    29  H    8.121623   9.120790   6.766659   8.950263   6.520834
    30  H    9.748578  10.790794   8.413024  10.650199   8.217307
    31  C   11.202406  12.029318   9.812767  11.598175   9.262928
    32  H   11.590898  12.462810  10.217600  12.089512   9.743352
    33  H   11.674657  12.542765  10.289019  12.153250   9.793842
    34  H   11.607494  12.332482  10.216519  11.785041   9.531865
    35  C    9.976798  10.185581   8.742152   9.201425   7.556429
    36  H   10.367620  10.530832   9.167998   9.522755   7.973439
    37  H    8.949814   9.120256   7.742634   8.121030   6.520375
    38  H   10.649142  10.789656   9.442813   9.747397   8.216258
    39  C   11.598123  12.029150  10.263186  11.202127   9.262782
    40  H   12.091149  12.463796  10.783538  11.591261   9.744496
    41  H   12.151569  12.541532  10.827418  11.673821   9.792423
    42  H   11.785116  12.332372  10.418752  11.607235   9.531852
                    6          7          8          9         10
     6  C    0.000000
     7  H    3.408244   0.000000
     8  H    3.412664   4.304079   0.000000
     9  H    2.154734   2.491792   4.973936   0.000000
    10  H    1.091670   4.304077   4.320892   2.472458   0.000000
    11  C    2.507735   5.382831   2.724705   4.661022   2.724690
    12  C    3.015976   6.229892   4.005713   5.051620   2.760694
    13  C    3.723481   6.229896   2.760696   5.827490   4.005699
    14  C    4.374627   7.597026   4.964547   6.396942   4.019975
    15  C    4.892883   7.597037   4.019993   7.030195   4.964535
    16  C    5.178515   8.221466   4.990763   7.296929   4.990729
    17  H    2.758838   5.977432   4.492370   4.533386   2.305718
    18  H    4.003525   5.977453   2.305684   5.953844   4.492382
    19  H    5.039687   8.318690   5.949774   6.916321   4.522042
    20  H    5.819226   8.318692   4.522025   7.925754   5.949769
    21  H    3.882539   2.491787   2.472458   4.310977   4.973927
    22  C    6.585240   9.659421   6.317759   8.681101   6.317693
    23  C    7.905299  10.882581   7.291310  10.021134   7.683822
    24  C    7.693206  10.882389   7.683856   9.723342   7.290937
    25  N    8.857307  11.652242   7.802611  10.999411   8.742184
    26  N    8.349187  11.651959   8.742174  10.268692   7.802157
    27  C    8.742312  11.229160   7.145919  10.889461   8.808038
    28  H    9.167207  11.553757   7.476209  11.286079   9.260902
    29  H    7.743036  10.159308   6.060234   9.885205   7.872540
    30  H    9.443816  11.817839   7.645155  11.588746   9.556858
    31  C   10.263217  13.107052   9.261746  12.394740  10.092380
    32  H   10.781761  13.527303   9.620908  12.908354  10.655027
    33  H   10.829238  13.615425   9.689795  12.970945  10.691302
    34  H   10.418610  13.419534   9.764399  12.511532  10.134346
    35  C    7.844090  11.228802   8.808017   9.596022   7.145384
    36  H    8.197600  11.554239   9.261889   9.873930   7.476315
    37  H    6.766090  10.158754   7.872248   8.514374   6.059590
    38  H    8.411877  11.816678   9.555974  10.073257   7.643950
    39  C    9.812486  13.106875  10.092483  11.728290   9.261334
    40  H   10.217962  13.528241  10.657412  12.067641   9.620602
    41  H   10.288153  13.614243  10.689125  12.160748   9.689310
    42  H   10.216287  13.419394  10.134672  12.212719   9.764021
                   11         12         13         14         15
    11  C    0.000000
    12  C    1.410358   0.000000
    13  C    1.410351   2.414734   0.000000
    14  C    2.439332   1.387954   2.789276   0.000000
    15  C    2.439337   2.789286   1.387959   2.424172   0.000000
    16  C    2.838635   2.430747   2.430740   1.410705   1.410697
    17  H    2.164962   1.090699   3.406260   2.144250   3.879511
    18  H    2.164962   3.406266   1.090699   3.879503   2.144244
    19  H    3.420940   2.145710   3.880017   1.091235   3.417797
    20  H    3.420939   3.880029   2.145709   3.417808   1.091236
    21  H    4.661027   5.827491   5.051624   7.030195   6.396958
    22  C    4.276590   3.747457   3.747474   2.476574   2.476599
    23  C    5.521918   5.106067   4.787430   3.852105   3.415846
    24  C    5.521761   4.787225   5.105983   3.415650   3.852072
    25  N    6.395703   6.174308   5.460683   5.011675   4.094565
    26  N    6.395513   5.460448   6.174214   4.094381   5.011662
    27  C    6.241860   6.317659   5.122041   5.377746   3.893435
    28  H    6.713456   6.932619   5.473400   6.061256   4.306783
    29  H    5.245765   5.424572   4.115209   4.624034   2.968075
    30  H    6.941997   6.998656   5.869694   6.073186   4.716502
    31  C    7.824856   7.524071   6.908320   6.289640   5.533853
    32  H    8.341434   8.183502   7.300649   7.013530   5.954876
    33  H    8.368651   8.031467   7.493301   6.799312   6.148618
    34  H    8.065952   7.616353   7.265175   6.308126   5.877654
    35  C    6.241672   5.121928   6.317500   3.893468   5.377690
    36  H    6.714137   5.474119   6.933326   4.307632   6.062020
    37  H    5.245376   4.114823   5.424295   2.967841   4.623903
    38  H    6.941028   5.869000   6.997595   4.716011   6.072251
    39  C    7.824725   6.908273   7.523887   5.533854   6.289468
    40  H    8.342692   7.301745   8.185009   5.956119   7.015212
    41  H    8.367088   7.492701   8.028876   6.148014   6.796353
    42  H    8.066016   7.264689   7.617033   5.877162   6.309040
                   16         17         18         19         20
    16  C    0.000000
    17  H    3.413862   0.000000
    18  H    3.413848   4.312848   0.000000
    19  H    2.172351   2.457384   4.970453   0.000000
    20  H    2.172355   4.970464   2.457363   4.328196   0.000000
    21  H    7.296949   5.953817   4.533383   7.925751   6.916312
    22  C    1.437955   4.618797   4.618815   2.707542   2.707605
    23  C    2.730337   5.989256   5.502534   3.997761   3.219052
    24  C    2.730244   5.502311   5.989192   3.218804   3.997833
    25  N    3.770051   7.113763   5.989624   5.251143   3.574081
    26  N    3.770004   5.989352   7.113689   3.573848   5.251247
    27  C    4.043389   7.327497   5.427030   5.849620   3.139724
    28  H    4.666977   7.984333   5.614533   6.610246   3.366669
    29  H    3.307411   6.449191   4.414033   5.228540   2.261423
    30  H    4.826238   7.965954   6.151405   6.482107   4.031125
    31  C    5.124351   8.419881   7.423832   6.379542   4.984460
    32  H    5.754252   9.134725   7.685314   7.208357   5.242875
    33  H    5.704804   8.887326   8.018342   6.827717   5.642072
    34  H    5.266810   8.446604   7.874451   6.252524   5.451931
    35  C    4.043438   5.426941   7.327300   3.139935   5.849610
    36  H    4.667826   5.615224   7.985000   3.367639   6.611000
    37  H    3.307329   4.413619   6.448918   2.261286   5.228530
    38  H    4.825568   6.150890   7.964775   4.031089   6.481162
    39  C    5.124272   7.423856   8.419641   4.984576   6.379341
    40  H    5.755867   7.686217   9.136250   5.243961   7.210182
    41  H    5.702764   8.018574   8.884227   5.642616   6.823898
    42  H    5.267145   7.873538   8.447595   5.450778   6.254066
                   21         22         23         24         25
    21  H    0.000000
    22  C    8.681146   0.000000
    23  C    9.723677   1.390924   0.000000
    24  C   10.021101   1.390924   1.405457   0.000000
    25  N   10.269130   2.615698   1.320012   2.637636   0.000000
    26  N   10.999310   2.615769   2.637580   1.320019   3.710272
    27  C    9.596557   3.323316   2.427082   3.829556   1.466500
    28  H    9.873803   4.016553   3.131402   4.511471   2.116103
    29  H    8.515028   2.947944   2.522521   3.819300   2.106803
    30  H   10.074493   4.102389   3.155205   4.498703   2.107351
    31  C   11.728664   3.833327   2.443015   3.381662   1.464316
    32  H   12.067794   4.559350   3.215648   4.240581   2.099889
    33  H   12.161247   4.438876   3.087972   3.969452   2.121507
    34  H   12.213115   3.870883   2.569449   3.064528   2.109087
    35  C   10.889317   3.323505   3.829539   2.427085   5.032166
    36  H   11.286920   4.017386   4.512048   3.131857   5.683071
    37  H    9.884798   2.948070   3.819283   2.522447   5.115142
    38  H   11.587730   4.101952   4.498052   3.154771   5.623665
    39  C   12.394769   3.833259   3.381319   2.442934   4.070533
    40  H   12.910388   4.561208   4.242902   3.217143   4.957260
    41  H   12.969036   4.436375   3.965281   3.085751   4.573116
    42  H   12.511709   3.871482   3.065677   2.570162   3.435476
                   26         27         28         29         30
    26  N    0.000000
    27  C    5.032173   0.000000
    28  H    5.682504   1.099832   0.000000
    29  H    5.115145   1.094164   1.793175   0.000000
    30  H    5.624310   1.099647   1.789445   1.781076   0.000000
    31  C    4.070890   2.489664   2.807656   3.413972   2.719356
    32  H    4.954407   2.671505   2.543765   3.702821   2.927511
    33  H    4.578309   2.859834   3.339600   3.788026   2.652974
    34  H    3.433825   3.410286   3.715302   4.208596   3.756908
    35  C    1.466520   6.254161   6.895058   6.163834   6.903989
    36  H    2.116067   6.895918   7.638247   6.792079   7.424978
    37  H    2.106810   6.163743   6.791145   5.894681   6.891058
    38  H    2.107432   6.903140   7.423092   6.890364   7.614098
    39  C    1.464340   5.514886   6.109434   5.855372   5.955773
    40  H    2.099679   6.365409   7.046336   6.663039   6.702694
    41  H    2.121763   6.032851   6.464818   6.437559   6.562853
    42  H    2.109140   4.869569   5.472686   5.358680   5.177551
                   31         32         33         34         35
    31  C    0.000000
    32  H    1.098903   0.000000
    33  H    1.100581   1.787621   0.000000
    34  H    1.094300   1.776448   1.794276   0.000000
    35  C    5.515113   6.361970   6.038154   4.868062   0.000000
    36  H    6.110264   7.044009   6.471299   5.470585   1.099818
    37  H    5.855560   6.659730   6.442162   5.357701   1.094166
    38  H    5.955312   6.697705   6.567505   5.176292   1.099654
    39  C    3.893515   4.759082   4.255307   3.011468   2.489792
    40  H    4.762423   5.683811   4.939094   3.923011   2.669533
    41  H    4.249635   4.928634   4.758409   3.230097   2.862368
    42  H    3.014368   3.924249   3.237059   2.169187   3.409961
                   36         37         38         39         40
    36  H    0.000000
    37  H    1.793161   0.000000
    38  H    1.789474   1.781053   0.000000
    39  C    2.807916   3.414049   2.719460   0.000000
    40  H    2.542327   3.701411   2.923902   1.098872   0.000000
    41  H    3.343145   3.789746   2.656247   1.100598   1.787570
    42  H    3.713598   4.208480   3.757634   1.094323   1.776314
                   41         42
    41  H    0.000000
    42  H    1.794434   0.000000
 Stoichiometry    C19H21N2(1+)
 Framework group  C1[X(C19H21N2)]
 Deg. of freedom   120
 Full point group                 C1      NOp   1
 Largest Abelian subgroup         C1      NOp   1
 Largest concise Abelian subgroup C1      NOp   1
                         Standard orientation:                         
 ---------------------------------------------------------------------
 Center     Atomic      Atomic             Coordinates (Angstroms)
 Number     Number       Type             X           Y           Z
 ---------------------------------------------------------------------
      1          6           0       -5.924302   -1.175178   -0.282560
      2          6           0       -6.625626    0.000025    0.000251
      3          6           0       -4.530324   -1.177472   -0.278212
      4          6           0       -5.924206    1.175202    0.282951
      5          6           0       -3.810936   -0.000036    0.000021
      6          6           0       -4.530233    1.177435    0.278371
      7          1           0       -7.716547    0.000056    0.000331
      8          1           0       -3.994064   -2.094974   -0.527939
      9          1           0       -6.466302    2.093210    0.514746
     10          1           0       -3.993880    2.094904    0.528010
     11          6           0       -2.333716   -0.000062   -0.000109
     12          6           0       -1.604784    1.119278   -0.452707
     13          6           0       -1.604752   -1.119433    0.452341
     14          6           0       -0.216850    1.125770   -0.449243
     15          6           0       -0.216813   -1.125977    0.448670
     16          6           0        0.504919   -0.000106   -0.000309
     17          1           0       -2.141671    1.985727   -0.840835
     18          1           0       -2.141597   -1.985891    0.840507
     19          1           0        0.315693    1.995203   -0.838189
     20          1           0        0.315745   -1.995465    0.837475
     21          1           0       -6.466484   -2.093156   -0.514265
     22          6           0        1.942874   -0.000086   -0.000402
     23          6           0        3.143323   -0.702637    0.003392
     24          6           0        3.143127    0.702801   -0.003915
     25          7           0        3.787080   -1.855019   -0.001668
     26          7           0        3.786774    1.855252    0.001097
     27          6           0        3.068411   -3.122520   -0.167733
     28          1           0        3.187886   -3.748580    0.728596
     29          1           0        2.005788   -2.927607   -0.341041
     30          1           0        3.471162   -3.663551   -1.036238
     31          6           0        5.245121   -1.944160    0.100275
     32          1           0        5.509149   -2.713998    0.838669
     33          1           0        5.688951   -2.217262   -0.869111
     34          1           0        5.659251   -0.989594    0.439085
     35          6           0        3.068047    3.122616    0.168130
     36          1           0        3.188116    3.749602   -0.727455
     37          1           0        2.005304    2.927538    0.340531
     38          1           0        3.470192    3.662707    1.037509
     39          6           0        5.244950    1.944232   -0.099391
     40          1           0        5.509538    2.718440   -0.832954
     41          1           0        5.688631    2.211256    0.871774
     42          1           0        5.658779    0.991638   -0.444142
 ---------------------------------------------------------------------
 Rotational constants (GHZ):           0.7037808           0.1205812           0.1040104
 Leave Link  202 at Thu Jan 21 06:42:43 2021, MaxMem=  4026531840 cpu:               0.3 elap:               0.1
 (Enter /opt/ohpc/pub/libs/gaussian/g16-A.03/sandybridge/g16/l301.exe)
 Standard basis: TZVP (5D, 7F)
 Ernie: Thresh=  0.10000D-02 Tol=  0.10000D-05 Strict=F.
 There are   546 symmetry adapted cartesian basis functions of A   symmetry.
 There are   525 symmetry adapted basis functions of A   symmetry.
   525 basis functions,   903 primitive gaussians,   546 cartesian basis functions
    74 alpha electrons       74 beta electrons
       nuclear repulsion energy      1487.4602048397 Hartrees.
 IExCor=33909 DFT=T Ex+Corr=LC-wHPBE ExCW=0 ScaHFX=  1.000000
 ScaDFX=  1.000000  1.000000  1.000000  1.000000 ScalE2=  1.000000  1.000000
 IRadAn=      5 IRanWt=     -1 IRanGd=            0 ICorTp=0 IEmpDi=  4
 HFx  wShort=  0.000000 wLong=  0.208400 cFull=  0.000000 cShort=  0.000000 cLong=  1.000000
 DFx  wShort=  0.000000 wLong=  0.208400 cFull=  0.000000 cShort=  1.000000 cLong=  0.000000
 NAtoms=   42 NActive=   42 NUniq=   42 SFac= 1.00D+00 NAtFMM=   60 NAOKFM=F Big=F
 Integral buffers will be    131072 words long.
 Raffenetti 2 integral format.
 Two-electron integral symmetry is turned on.
 Leave Link  301 at Thu Jan 21 06:42:43 2021, MaxMem=  4026531840 cpu:               0.4 elap:               0.1
 (Enter /opt/ohpc/pub/libs/gaussian/g16-A.03/sandybridge/g16/l302.exe)
 NPDir=0 NMtPBC=     1 NCelOv=     1 NCel=       1 NClECP=     1 NCelD=      1
         NCelK=      1 NCelE2=     1 NClLst=     1 CellRange=     0.0.
 One-electron integrals computed using PRISM.
 One-electron integral symmetry used in STVInt
 NBasis=   525 RedAO= T EigKep=  8.06D-06  NBF=   525
 NBsUse=   525 1.00D-06 EigRej= -1.00D+00 NBFU=   525
 Precomputing XC quadrature grid using
 IXCGrd= 4 IRadAn=           5 IRanWt=          -1 IRanGd=           0 AccXCQ= 0.00D+00.
 Generated NRdTot=       0 NPtTot=           0 NUsed=           0 NTot=          32
 NSgBfM=   523   523   523   523   523 MxSgAt=    42 MxSgA2=    42.
 Leave Link  302 at Thu Jan 21 06:42:44 2021, MaxMem=  4026531840 cpu:               6.9 elap:               0.9
 (Enter /opt/ohpc/pub/libs/gaussian/g16-A.03/sandybridge/g16/l303.exe)
 DipDrv:  MaxL=1.
 Leave Link  303 at Thu Jan 21 06:42:44 2021, MaxMem=  4026531840 cpu:               0.8 elap:               0.1
 (Enter /opt/ohpc/pub/libs/gaussian/g16-A.03/sandybridge/g16/l401.exe)
 ExpMin= 9.52D-02 ExpMax= 1.97D+04 ExpMxC= 6.73D+02 IAcc=3 IRadAn=         5 AccDes= 0.00D+00
 Harris functional with IExCor=33909 and IRadAn=       5 diagonalized for initial guess.
 HarFok:  IExCor=33909 AccDes= 0.00D+00 IRadAn=         5 IDoV= 1 UseB2=F ITyADJ=14
 ICtDFT=  3500011 ScaDFX=  1.000000  1.000000  1.000000  1.000000
 FoFCou: FMM=F IPFlag=           0 FMFlag=      100000 FMFlg1=           0
         NFxFlg=           0 DoJE=T BraDBF=F KetDBF=T FulRan=T
         wScrn=  0.000000 ICntrl=       500 IOpCl=  0 I1Cent=   200000004 NGrid=           0
         NMat0=    1 NMatS0=      1 NMatT0=    0 NMatD0=    1 NMtDS0=    0 NMtDT0=    0
 Petite list used in FoFCou.
 Harris En= -829.037274335120    
 JPrj=0 DoOrth=F DoCkMO=F.
 Leave Link  401 at Thu Jan 21 06:42:49 2021, MaxMem=  4026531840 cpu:              39.2 elap:               5.0
 (Enter /opt/ohpc/pub/libs/gaussian/g16-A.03/sandybridge/g16/l502.exe)
 Integral symmetry usage will be decided dynamically.
 Closed shell SCF:
 Using DIIS extrapolation, IDIIS=    10.
 NGot=  4026531840 LenX=  4025925692 LenY=  4025627030
 Requested convergence on RMS density matrix=1.00D-06 within  32 cycles.
 Requested convergence on MAX density matrix=1.00D-04.
 Requested convergence on             energy=1.00D-04.
 Virtual orbitals will be shifted by   0.500 hartree.
 No special actions if energy rises.
 Dynamic level shift is on during FON iterations.

 Cycle   1  Pass 1  IDiag  1:
 FoFJK:  IHMeth= 1 ICntrl=       0 DoSepK=T KAlg= 0 I1Cent=           0 FoldK=F
 IRaf=         1 NMat=       1 IRICut=       1 DoRegI=T DoRafI=F ISym2E= 0 IDoP0=0 IntGTp=1.
 FoFCou: FMM=F IPFlag=           0 FMFlag=      100000 FMFlg1=           0
         NFxFlg=           0 DoJE=T BraDBF=F KetDBF=F FulRan=T
         wScrn=  0.000000 ICntrl=       500 IOpCl=  0 I1Cent=           0 NGrid=           0
         NMat0=    1 NMatS0=      1 NMatT0=    0 NMatD0=    1 NMtDS0=    0 NMtDT0=    0
 Symmetry not used in FoFCou.
 E= -845.072054200230    
 DIIS: error= 3.01D-02 at cycle   1 NSaved=   1.
 NSaved= 1 IEnMin= 1 EnMin= -845.072054200230     IErMin= 1 ErrMin= 3.01D-02
 ErrMax= 3.01D-02  0.00D+00 EMaxC= 1.00D+00 BMatC= 2.99D-01 BMatP= 2.99D-01
 IDIUse=1 WtCom= 1.00D+00 WtEn= 0.00D+00
 Coeff-Com:  0.100D+01
 Coeff:      0.100D+01
 Gap=     0.364 Goal=   None    Shift=    0.500
 T= 1498. Gap= 0.670 NK=0 IS=   75 IE=  525 IFin=   74
          NO(<0.9)=   0  NV(>0.1)=   0     74.00e < EF      0.00e >EF  Err=0.0D+00
 GapD=    0.364 DampG=1.000 DampE=0.500 DampFc=0.5000 IDamp=-1.
 Damping current iteration by 5.00D-01
 RMSDP=2.39D-03 MaxDP=1.05D-01              OVMax= 6.37D-02

 Cycle   2  Pass 1  IDiag  1:
 E= -845.253492711590     Delta-E=       -0.181438511360 Rises=F Damp=T
 DIIS: error= 1.25D-02 at cycle   2 NSaved=   2.
 NSaved= 2 IEnMin= 2 EnMin= -845.253492711590     IErMin= 2 ErrMin= 1.25D-02
 ErrMax= 1.25D-02  0.00D+00 EMaxC= 1.00D+00 BMatC= 5.53D-02 BMatP= 2.99D-01
 IDIUse=1 WtCom= 1.00D+00 WtEn= 0.00D+00
 Coeff-Com: -0.624D+00 0.162D+01
 Coeff:     -0.624D+00 0.162D+01
 Gap=     0.253 Goal=   None    Shift=    0.500
 T= 1368. Gap= 0.743 NK=0 IS=   75 IE=  525 IFin=   74
          NO(<0.9)=   0  NV(>0.1)=   0     74.00e < EF      0.00e >EF  Err=0.0D+00
 GapD=    0.253 DampG=1.000 DampE=0.500 DampFc=0.5000 IDamp=-1.
 Damping current iteration by 5.00D-01
 RMSDP=1.33D-03 MaxDP=5.40D-02 DE=-1.81D-01 OVMax= 1.89D-02

 Cycle   3  Pass 1  IDiag  1:
 E= -845.318627693703     Delta-E=       -0.065134982113 Rises=F Damp=T
 DIIS: error= 8.01D-03 at cycle   3 NSaved=   3.
 NSaved= 3 IEnMin= 3 EnMin= -845.318627693703     IErMin= 3 ErrMin= 8.01D-03
 ErrMax= 8.01D-03  0.00D+00 EMaxC= 1.00D+00 BMatC= 1.15D-02 BMatP= 5.53D-02
 IDIUse=1 WtCom= 1.00D+00 WtEn= 0.00D+00
 Coeff-Com:  0.760D-01-0.103D+01 0.195D+01
 Coeff:      0.760D-01-0.103D+01 0.195D+01
 Gap=     0.251 Goal=   None    Shift=    0.500
 T= 1151. Gap= 0.751 NK=0 IS=   75 IE=  525 IFin=   74
          NO(<0.9)=   0  NV(>0.1)=   0     74.00e < EF      0.00e >EF  Err=0.0D+00
 GapD=    0.251 DampG=1.000 DampE=1.000 DampFc=1.0000 IDamp=-1.
 RMSDP=7.43D-04 MaxDP=2.71D-02 DE=-6.51D-02 OVMax= 1.38D-02

 Cycle   4  Pass 1  IDiag  1:
 E= -845.373996184992     Delta-E=       -0.055368491289 Rises=F Damp=F
 DIIS: error= 3.31D-03 at cycle   4 NSaved=   4.
 NSaved= 4 IEnMin= 4 EnMin= -845.373996184992     IErMin= 4 ErrMin= 3.31D-03
 ErrMax= 3.31D-03  0.00D+00 EMaxC= 1.00D+00 BMatC= 4.41D-04 BMatP= 1.15D-02
 IDIUse=1 WtCom= 1.00D+00 WtEn= 0.00D+00
 Coeff-Com:  0.837D-01-0.269D+00 0.247D+00 0.938D+00
 Coeff:      0.837D-01-0.269D+00 0.247D+00 0.938D+00
 Gap=     0.253 Goal=   None    Shift=    0.500
 T=  699. Gap= 0.753 NK=0 IS=   75 IE=  525 IFin=   74
          NO(<0.9)=   0  NV(>0.1)=   0     74.00e < EF      0.00e >EF  Err=0.0D+00
 GapD=    0.253 DampG=1.000 DampE=1.000 DampFc=1.0000 IDamp=-1.
 RMSDP=1.18D-04 MaxDP=4.45D-03 DE=-5.54D-02 OVMax= 9.56D-03

 Cycle   5  Pass 1  IDiag  1:
 E= -845.374859150717     Delta-E=       -0.000862965725 Rises=F Damp=F
 DIIS: error= 2.64D-03 at cycle   5 NSaved=   5.
 NSaved= 5 IEnMin= 5 EnMin= -845.374859150717     IErMin= 5 ErrMin= 2.64D-03
 ErrMax= 2.64D-03  0.00D+00 EMaxC= 1.00D+00 BMatC= 1.10D-04 BMatP= 4.41D-04
 IDIUse=1 WtCom= 1.00D+00 WtEn= 0.00D+00
 Coeff-Com: -0.291D-02 0.146D+00-0.306D+00-0.267D+00 0.143D+01
 Coeff:     -0.291D-02 0.146D+00-0.306D+00-0.267D+00 0.143D+01
 Gap=     0.256 Goal=   None    Shift=    0.500
 T=  378. Gap= 0.756 NK=0 IS=   75 IE=  525 IFin=   74
          NO(<0.9)=   0  NV(>0.1)=   0     74.00e < EF      0.00e >EF  Err=0.0D+00
 GapD=    0.256 DampG=1.000 DampE=1.000 DampFc=1.0000 IDamp=-1.
 RMSDP=8.60D-05 MaxDP=2.64D-03 DE=-8.63D-04 OVMax= 8.34D-03

 Cycle   6  Pass 1  IDiag  1:
 E= -845.375280621135     Delta-E=       -0.000421470418 Rises=F Damp=F
 DIIS: error= 1.95D-03 at cycle   6 NSaved=   6.
 NSaved= 6 IEnMin= 6 EnMin= -845.375280621135     IErMin= 6 ErrMin= 1.95D-03
 ErrMax= 1.95D-03  0.00D+00 EMaxC= 1.00D+00 BMatC= 4.84D-05 BMatP= 1.10D-04
 IDIUse=1 WtCom= 1.00D+00 WtEn= 0.00D+00
 Coeff-Com: -0.315D-01 0.122D+00-0.145D+00-0.394D+00-0.680D-01 0.152D+01
 Coeff:     -0.315D-01 0.122D+00-0.145D+00-0.394D+00-0.680D-01 0.152D+01
 Gap=     0.257 Goal=   None    Shift=    0.500
 T=   36. Gap= 0.757 NK=0 IS=   75 IE=  525 IFin=   74
          NO(<0.9)=   0  NV(>0.1)=   0     74.00e < EF      0.00e >EF  Err=0.0D+00
 GapD=    0.257 DampG=1.000 DampE=1.000 DampFc=1.0000 IDamp=-1.
 RMSDP=5.74D-05 MaxDP=1.78D-03 DE=-4.21D-04 OVMax= 6.98D-03

 Cycle   7  Pass 1  IDiag  1:
 E= -845.375513761019     Delta-E=       -0.000233139884 Rises=F Damp=F
 DIIS: error= 1.40D-03 at cycle   7 NSaved=   7.
 NSaved= 7 IEnMin= 7 EnMin= -845.375513761019     IErMin= 7 ErrMin= 1.40D-03
 ErrMax= 1.40D-03  0.00D+00 EMaxC= 1.00D+00 BMatC= 2.25D-05 BMatP= 4.84D-05
 IDIUse=1 WtCom= 1.00D+00 WtEn= 0.00D+00
 Coeff-Com: -0.105D-01-0.146D-01 0.632D-01 0.958D-02-0.695D+00-0.234D+00
 Coeff-Com:  0.188D+01
 Coeff:     -0.105D-01-0.146D-01 0.632D-01 0.958D-02-0.695D+00-0.234D+00
 Coeff:      0.188D+01
 Gap=     0.258 Goal=   None    Shift=    0.500
 GapD=    0.258 DampG=1.000 DampE=1.000 DampFc=1.0000 IDamp=-1.
 RMSDP=4.04D-05 MaxDP=2.10D-03 DE=-2.33D-04 OVMax= 5.74D-03

 Cycle   8  Pass 1  IDiag  1:
 E= -845.375640924268     Delta-E=       -0.000127163249 Rises=F Damp=F
 DIIS: error= 9.68D-04 at cycle   8 NSaved=   8.
 NSaved= 8 IEnMin= 8 EnMin= -845.375640924268     IErMin= 8 ErrMin= 9.68D-04
 ErrMax= 9.68D-04  0.00D+00 EMaxC= 1.00D+00 BMatC= 1.09D-05 BMatP= 2.25D-05
 IDIUse=1 WtCom= 1.00D+00 WtEn= 0.00D+00
 Coeff-Com:  0.230D-02-0.158D-01 0.220D-01 0.162D+00-0.318D+00-0.594D+00
 Coeff-Com:  0.328D-01 0.171D+01
 Coeff:      0.230D-02-0.158D-01 0.220D-01 0.162D+00-0.318D+00-0.594D+00
 Coeff:      0.328D-01 0.171D+01
 Gap=     0.258 Goal=   None    Shift=    0.500
 RMSDP=2.52D-05 MaxDP=1.90D-03 DE=-1.27D-04 OVMax= 4.28D-03

 Cycle   9  Pass 1  IDiag  1:
 E= -845.375703329182     Delta-E=       -0.000062404914 Rises=F Damp=F
 DIIS: error= 6.55D-04 at cycle   9 NSaved=   9.
 NSaved= 9 IEnMin= 9 EnMin= -845.375703329182     IErMin= 9 ErrMin= 6.55D-04
 ErrMax= 6.55D-04  0.00D+00 EMaxC= 1.00D+00 BMatC= 5.25D-06 BMatP= 1.09D-05
 IDIUse=1 WtCom= 1.00D+00 WtEn= 0.00D+00
 Coeff-Com:  0.248D-02 0.195D-01-0.485D-01 0.938D-01 0.136D+00-0.254D+00
 Coeff-Com: -0.912D+00 0.193D+00 0.177D+01
 Coeff:      0.248D-02 0.195D-01-0.485D-01 0.938D-01 0.136D+00-0.254D+00
 Coeff:     -0.912D+00 0.193D+00 0.177D+01
 Gap=     0.258 Goal=   None    Shift=    0.500
 RMSDP=1.69D-05 MaxDP=1.49D-03 DE=-6.24D-05 OVMax= 3.19D-03

 Cycle  10  Pass 1  IDiag  1:
 E= -845.375733068121     Delta-E=       -0.000029738939 Rises=F Damp=F
 DIIS: error= 4.38D-04 at cycle  10 NSaved=  10.
 NSaved=10 IEnMin=10 EnMin= -845.375733068121     IErMin=10 ErrMin= 4.38D-04
 ErrMax= 4.38D-04  0.00D+00 EMaxC= 1.00D+00 BMatC= 2.51D-06 BMatP= 5.25D-06
 IDIUse=1 WtCom= 1.00D+00 WtEn= 0.00D+00
 Coeff-Com: -0.301D-02 0.254D-01-0.408D-01-0.175D-01 0.130D+00 0.124D+00
 Coeff-Com: -0.298D+00-0.691D+00-0.245D+00 0.202D+01
 Coeff:     -0.301D-02 0.254D-01-0.408D-01-0.175D-01 0.130D+00 0.124D+00
 Coeff:     -0.298D+00-0.691D+00-0.245D+00 0.202D+01
 Gap=     0.258 Goal=   None    Shift=    0.500
 RMSDP=1.06D-05 MaxDP=9.09D-04 DE=-2.97D-05 OVMax= 2.26D-03

 Cycle  11  Pass 1  IDiag  1:
 E= -845.375746430080     Delta-E=       -0.000013361959 Rises=F Damp=F
 DIIS: error= 2.86D-04 at cycle  11 NSaved=  11.
 NSaved=11 IEnMin=11 EnMin= -845.375746430080     IErMin=11 ErrMin= 2.86D-04
 ErrMax= 2.86D-04  0.00D+00 EMaxC= 1.00D+00 BMatC= 1.19D-06 BMatP= 2.51D-06
 IDIUse=1 WtCom= 1.00D+00 WtEn= 0.00D+00
 Coeff-Com: -0.295D-02 0.829D-02-0.660D-02-0.287D-01-0.205D-01 0.158D+00
 Coeff-Com:  0.219D+00-0.447D+00-0.668D+00-0.499D+00 0.229D+01
 Coeff:     -0.295D-02 0.829D-02-0.660D-02-0.287D-01-0.205D-01 0.158D+00
 Coeff:      0.219D+00-0.447D+00-0.668D+00-0.499D+00 0.229D+01
 Gap=     0.258 Goal=   None    Shift=    0.500
 RMSDP=7.00D-06 MaxDP=6.46D-04 DE=-1.34D-05 OVMax= 1.56D-03

 Cycle  12  Pass 1  IDiag  1:
 E= -845.375752240423     Delta-E=       -0.000005810343 Rises=F Damp=F
 DIIS: error= 1.92D-04 at cycle  12 NSaved=  12.
 NSaved=12 IEnMin=12 EnMin= -845.375752240423     IErMin=12 ErrMin= 1.92D-04
 ErrMax= 1.92D-04  0.00D+00 EMaxC= 1.00D+00 BMatC= 6.52D-07 BMatP= 1.19D-06
 IDIUse=1 WtCom= 1.00D+00 WtEn= 0.00D+00
 Coeff-Com: -0.946D-03-0.497D-03 0.398D-02 0.210D-03-0.625D-01 0.555D-01
 Coeff-Com:  0.202D+00-0.575D-02-0.205D+00-0.156D+01 0.114D+01 0.143D+01
 Coeff:     -0.946D-03-0.497D-03 0.398D-02 0.210D-03-0.625D-01 0.555D-01
 Coeff:      0.202D+00-0.575D-02-0.205D+00-0.156D+01 0.114D+01 0.143D+01
 Gap=     0.258 Goal=   None    Shift=    0.500
 RMSDP=4.05D-06 MaxDP=2.90D-04 DE=-5.81D-06 OVMax= 1.07D-03

 Cycle  13  Pass 1  IDiag  1:
 E= -845.375754834474     Delta-E=       -0.000002594051 Rises=F Damp=F
 DIIS: error= 1.24D-04 at cycle  13 NSaved=  13.
 NSaved=13 IEnMin=13 EnMin= -845.375754834474     IErMin=13 ErrMin= 1.24D-04
 ErrMax= 1.24D-04  0.00D+00 EMaxC= 1.00D+00 BMatC= 3.05D-07 BMatP= 6.52D-07
 IDIUse=1 WtCom= 1.00D+00 WtEn= 0.00D+00
 Coeff-Com:  0.431D-03-0.919D-03 0.110D-03 0.159D-01-0.184D-01-0.416D-01
 Coeff-Com: -0.173D-01 0.211D+00 0.246D+00-0.852D+00-0.339D-01-0.926D+00
 Coeff-Com:  0.242D+01
 Coeff:      0.431D-03-0.919D-03 0.110D-03 0.159D-01-0.184D-01-0.416D-01
 Coeff:     -0.173D-01 0.211D+00 0.246D+00-0.852D+00-0.339D-01-0.926D+00
 Coeff:      0.242D+01
 Gap=     0.258 Goal=   None    Shift=    0.500
 RMSDP=2.60D-06 MaxDP=1.26D-04 DE=-2.59D-06 OVMax= 7.25D-04

 Cycle  14  Pass 1  IDiag  1:
 E= -845.375755942250     Delta-E=       -0.000001107776 Rises=F Damp=F
 DIIS: error= 8.16D-05 at cycle  14 NSaved=  14.
 NSaved=14 IEnMin=14 EnMin= -845.375755942250     IErMin=14 ErrMin= 8.16D-05
 ErrMax= 8.16D-05  0.00D+00 EMaxC= 1.00D+00 BMatC= 1.57D-07 BMatP= 3.05D-07
 IDIUse=1 WtCom= 1.00D+00 WtEn= 0.00D+00
 Coeff-Com:  0.421D-03 0.488D-03-0.259D-02 0.853D-02 0.130D-01-0.384D-01
 Coeff-Com: -0.751D-01 0.144D+00 0.201D+00-0.903D-01-0.268D+00-0.154D+01
 Coeff-Com:  0.116D+01 0.148D+01
 Coeff:      0.421D-03 0.488D-03-0.259D-02 0.853D-02 0.130D-01-0.384D-01
 Coeff:     -0.751D-01 0.144D+00 0.201D+00-0.903D-01-0.268D+00-0.154D+01
 Coeff:      0.116D+01 0.148D+01
 Gap=     0.258 Goal=   None    Shift=    0.500
 RMSDP=1.63D-06 MaxDP=5.52D-05 DE=-1.11D-06 OVMax= 4.87D-04

 Cycle  15  Pass 1  IDiag  1:
 E= -845.375756431725     Delta-E=       -0.000000489475 Rises=F Damp=F
 DIIS: error= 5.28D-05 at cycle  15 NSaved=  15.
 NSaved=15 IEnMin=15 EnMin= -845.375756431725     IErMin=15 ErrMin= 5.28D-05
 ErrMax= 5.28D-05  0.00D+00 EMaxC= 1.00D+00 BMatC= 7.13D-08 BMatP= 1.57D-07
 IDIUse=1 WtCom= 1.00D+00 WtEn= 0.00D+00
 Coeff-Com: -0.188D-03 0.843D-03-0.108D-02-0.418D-02 0.776D-02 0.143D-01
 Coeff-Com: -0.646D-03-0.478D-01-0.759D-01 0.212D+00 0.120D+00-0.155D+00
 Coeff-Com: -0.505D+00-0.158D+01 0.302D+01
 Coeff:     -0.188D-03 0.843D-03-0.108D-02-0.418D-02 0.776D-02 0.143D-01
 Coeff:     -0.646D-03-0.478D-01-0.759D-01 0.212D+00 0.120D+00-0.155D+00
 Coeff:     -0.505D+00-0.158D+01 0.302D+01
 Gap=     0.258 Goal=   None    Shift=    0.500
 RMSDP=1.01D-06 MaxDP=3.44D-05 DE=-4.89D-07 OVMax= 3.19D-04

 Cycle  16  Pass 1  IDiag  1:
 E= -845.375756638609     Delta-E=       -0.000000206884 Rises=F Damp=F
 DIIS: error= 3.45D-05 at cycle  16 NSaved=  16.
 NSaved=16 IEnMin=16 EnMin= -845.375756638609     IErMin=16 ErrMin= 3.45D-05
 ErrMax= 3.45D-05  0.00D+00 EMaxC= 1.00D+00 BMatC= 3.29D-08 BMatP= 7.13D-08
 IDIUse=1 WtCom= 1.00D+00 WtEn= 0.00D+00
 Coeff-Com: -0.136D-03 0.145D-03 0.168D-03-0.307D-02 0.262D-03 0.147D-01
 Coeff-Com:  0.136D-01-0.387D-01-0.753D-01 0.848D-01 0.145D+00 0.188D+00
 Coeff-Com: -0.537D+00-0.125D+01 0.979D+00 0.148D+01
 Coeff:     -0.136D-03 0.145D-03 0.168D-03-0.307D-02 0.262D-03 0.147D-01
 Coeff:      0.136D-01-0.387D-01-0.753D-01 0.848D-01 0.145D+00 0.188D+00
 Coeff:     -0.537D+00-0.125D+01 0.979D+00 0.148D+01
 Gap=     0.258 Goal=   None    Shift=    0.500
 RMSDP=6.35D-07 MaxDP=1.57D-05 DE=-2.07D-07 OVMax= 2.10D-04

 SCF Done:  E(RLC-wHPBE) =  -845.375756639     A.U. after   16 cycles
            NFock= 16  Conv=0.63D-06     -V/T= 2.0055
 KE= 8.407858556312D+02 PE=-4.918284797152D+03 EE= 1.744662980042D+03
 Leave Link  502 at Thu Jan 21 06:50:16 2021, MaxMem=  4026531840 cpu:            3564.6 elap:             446.8
 (Enter /opt/ohpc/pub/libs/gaussian/g16-A.03/sandybridge/g16/l508.exe)
 QCSCF skips out because SCF is already converged.
 Leave Link  508 at Thu Jan 21 06:50:16 2021, MaxMem=  4026531840 cpu:               0.1 elap:               0.0
 (Enter /opt/ohpc/pub/libs/gaussian/g16-A.03/sandybridge/g16/l601.exe)
 Copying SCF densities to generalized density rwf, IOpCl= 0 IROHF=0.

 **********************************************************************

            Population analysis using the SCF density.

 **********************************************************************

 Orbital symmetries:
       Occupied  (A) (A) (A) (A) (A) (A) (A) (A) (A) (A) (A) (A)
                 (A) (A) (A) (A) (A) (A) (A) (A) (A) (A) (A) (A)
                 (A) (A) (A) (A) (A) (A) (A) (A) (A) (A) (A) (A)
                 (A) (A) (A) (A) (A) (A) (A) (A) (A) (A) (A) (A)
                 (A) (A) (A) (A) (A) (A) (A) (A) (A) (A) (A) (A)
                 (A) (A) (A) (A) (A) (A) (A) (A) (A) (A) (A) (A)
                 (A) (A)
       Virtual   (A) (A) (A) (A) (A) (A) (A) (A) (A) (A) (A) (A)
                 (A) (A) (A) (A) (A) (A) (A) (A) (A) (A) (A) (A)
                 (A) (A) (A) (A) (A) (A) (A) (A) (A) (A) (A) (A)
                 (A) (A) (A) (A) (A) (A) (A) (A) (A) (A) (A) (A)
                 (A) (A) (A) (A) (A) (A) (A) (A) (A) (A) (A) (A)
                 (A) (A) (A) (A) (A) (A) (A) (A) (A) (A) (A) (A)
                 (A) (A) (A) (A) (A) (A) (A) (A) (A) (A) (A) (A)
                 (A) (A) (A) (A) (A) (A) (A) (A) (A) (A) (A) (A)
                 (A) (A) (A) (A) (A) (A) (A) (A) (A) (A) (A) (A)
                 (A) (A) (A) (A) (A) (A) (A) (A) (A) (A) (A) (A)
                 (A) (A) (A) (A) (A) (A) (A) (A) (A) (A) (A) (A)
                 (A) (A) (A) (A) (A) (A) (A) (A) (A) (A) (A) (A)
                 (A) (A) (A) (A) (A) (A) (A) (A) (A) (A) (A) (A)
                 (A) (A) (A) (A) (A) (A) (A) (A) (A) (A) (A) (A)
                 (A) (A) (A) (A) (A) (A) (A) (A) (A) (A) (A) (A)
                 (A) (A) (A) (A) (A) (A) (A) (A) (A) (A) (A) (A)
                 (A) (A) (A) (A) (A) (A) (A) (A) (A) (A) (A) (A)
                 (A) (A) (A) (A) (A) (A) (A) (A) (A) (A) (A) (A)
                 (A) (A) (A) (A) (A) (A) (A) (A) (A) (A) (A) (A)
                 (A) (A) (A) (A) (A) (A) (A) (A) (A) (A) (A) (A)
                 (A) (A) (A) (A) (A) (A) (A) (A) (A) (A) (A) (A)
                 (A) (A) (A) (A) (A) (A) (A) (A) (A) (A) (A) (A)
                 (A) (A) (A) (A) (A) (A) (A) (A) (A) (A) (A) (A)
                 (A) (A) (A) (A) (A) (A) (A) (A) (A) (A) (A) (A)
                 (A) (A) (A) (A) (A) (A) (A) (A) (A) (A) (A) (A)
                 (A) (A) (A) (A) (A) (A) (A) (A) (A) (A) (A) (A)
                 (A) (A) (A) (A) (A) (A) (A) (A) (A) (A) (A) (A)
                 (A) (A) (A) (A) (A) (A) (A) (A) (A) (A) (A) (A)
                 (A) (A) (A) (A) (A) (A) (A) (A) (A) (A) (A) (A)
                 (A) (A) (A) (A) (A) (A) (A) (A) (A) (A) (A) (A)
                 (A) (A) (A) (A) (A) (A) (A) (A) (A) (A) (A) (A)
                 (A) (A) (A) (A) (A) (A) (A) (A) (A) (A) (A) (A)
                 (A) (A) (A) (A) (A) (A) (A) (A) (A) (A) (A) (A)
                 (A) (A) (A) (A) (A) (A) (A) (A) (A) (A) (A) (A)
                 (A) (A) (A) (A) (A) (A) (A) (A) (A) (A) (A) (A)
                 (A) (A) (A) (A) (A) (A) (A) (A) (A) (A) (A) (A)
                 (A) (A) (A) (A) (A) (A) (A) (A) (A) (A) (A) (A)
                 (A) (A) (A) (A) (A) (A) (A)
 The electronic state is 1-A.
 Alpha  occ. eigenvalues --  -14.30249 -14.30248 -10.23009 -10.22976 -10.19300
 Alpha  occ. eigenvalues --  -10.17249 -10.17248 -10.16843 -10.16842 -10.14977
 Alpha  occ. eigenvalues --  -10.13200 -10.13116 -10.13115 -10.11776 -10.11775
 Alpha  occ. eigenvalues --  -10.10515 -10.09114 -10.09112 -10.08547 -10.08536
 Alpha  occ. eigenvalues --  -10.08484  -1.17486  -1.14984  -1.09412  -1.02599
 Alpha  occ. eigenvalues --   -0.98728  -0.94164  -0.92121  -0.91927  -0.91412
 Alpha  occ. eigenvalues --   -0.90477  -0.89450  -0.87716  -0.87656  -0.80892
 Alpha  occ. eigenvalues --   -0.78621  -0.74782  -0.74763  -0.73662  -0.73470
 Alpha  occ. eigenvalues --   -0.73004  -0.69588  -0.69213  -0.68434  -0.67246
 Alpha  occ. eigenvalues --   -0.67220  -0.64517  -0.63473  -0.61960  -0.61780
 Alpha  occ. eigenvalues --   -0.61528  -0.60598  -0.60133  -0.59964  -0.59762
 Alpha  occ. eigenvalues --   -0.59175  -0.59164  -0.58698  -0.58100  -0.57759
 Alpha  occ. eigenvalues --   -0.56246  -0.56198  -0.55188  -0.53302  -0.52661
 Alpha  occ. eigenvalues --   -0.51617  -0.49970  -0.48849  -0.48278  -0.46918
 Alpha  occ. eigenvalues --   -0.44247  -0.42231  -0.40609  -0.38478
 Alpha virt. eigenvalues --   -0.12642  -0.07187  -0.05037  -0.04831  -0.03954
 Alpha virt. eigenvalues --   -0.03556  -0.01072  -0.00576   0.00127   0.01061
 Alpha virt. eigenvalues --    0.01294   0.02180   0.03275   0.03763   0.04039
 Alpha virt. eigenvalues --    0.04394   0.04726   0.05103   0.05231   0.05575
 Alpha virt. eigenvalues --    0.06072   0.06460   0.07053   0.07252   0.07501
 Alpha virt. eigenvalues --    0.07975   0.09194   0.09718   0.09903   0.10121
 Alpha virt. eigenvalues --    0.10269   0.10742   0.12131   0.12177   0.12385
 Alpha virt. eigenvalues --    0.12674   0.12814   0.13349   0.13692   0.13726
 Alpha virt. eigenvalues --    0.14842   0.15481   0.16016   0.17871   0.18412
 Alpha virt. eigenvalues --    0.18694   0.18860   0.19656   0.20210   0.20857
 Alpha virt. eigenvalues --    0.20920   0.21345   0.21714   0.22408   0.22670
 Alpha virt. eigenvalues --    0.22945   0.23115   0.23440   0.23968   0.24357
 Alpha virt. eigenvalues --    0.24606   0.24929   0.25106   0.26083   0.26507
 Alpha virt. eigenvalues --    0.26637   0.26698   0.27516   0.28720   0.28756
 Alpha virt. eigenvalues --    0.29922   0.30391   0.30783   0.30790   0.30874
 Alpha virt. eigenvalues --    0.31670   0.32219   0.32448   0.33607   0.33937
 Alpha virt. eigenvalues --    0.34236   0.35050   0.35055   0.35697   0.36673
 Alpha virt. eigenvalues --    0.36984   0.37069   0.37424   0.37801   0.37897
 Alpha virt. eigenvalues --    0.38261   0.38858   0.38866   0.39012   0.39431
 Alpha virt. eigenvalues --    0.39995   0.40449   0.40913   0.40961   0.41670
 Alpha virt. eigenvalues --    0.42194   0.42362   0.42553   0.43160   0.43418
 Alpha virt. eigenvalues --    0.43537   0.43930   0.45074   0.45133   0.46128
 Alpha virt. eigenvalues --    0.46534   0.47229   0.47477   0.48525   0.48644
 Alpha virt. eigenvalues --    0.48860   0.49110   0.49882   0.50705   0.50866
 Alpha virt. eigenvalues --    0.51137   0.51782   0.53033   0.53666   0.54544
 Alpha virt. eigenvalues --    0.54925   0.55431   0.56959   0.57858   0.58417
 Alpha virt. eigenvalues --    0.58926   0.59091   0.60157   0.61103   0.61736
 Alpha virt. eigenvalues --    0.63528   0.63998   0.64906   0.65085   0.65742
 Alpha virt. eigenvalues --    0.67181   0.67329   0.67685   0.67736   0.68544
 Alpha virt. eigenvalues --    0.70461   0.70630   0.73381   0.73555   0.75431
 Alpha virt. eigenvalues --    0.75815   0.78931   0.80227   0.81859   0.81884
 Alpha virt. eigenvalues --    0.85200   0.86993   1.05623   1.05979   1.10386
 Alpha virt. eigenvalues --    1.12999   1.14273   1.14470   1.16180   1.17180
 Alpha virt. eigenvalues --    1.17674   1.17800   1.18361   1.19101   1.19660
 Alpha virt. eigenvalues --    1.20536   1.21330   1.21982   1.22210   1.22750
 Alpha virt. eigenvalues --    1.23396   1.23780   1.24301   1.24677   1.25313
 Alpha virt. eigenvalues --    1.25397   1.26063   1.26104   1.26825   1.26941
 Alpha virt. eigenvalues --    1.27262   1.27579   1.28286   1.28445   1.28632
 Alpha virt. eigenvalues --    1.28818   1.28944   1.29542   1.30371   1.30932
 Alpha virt. eigenvalues --    1.32759   1.34229   1.35589   1.36450   1.36667
 Alpha virt. eigenvalues --    1.37120   1.37859   1.37894   1.38318   1.38583
 Alpha virt. eigenvalues --    1.38910   1.39230   1.40815   1.41016   1.41108
 Alpha virt. eigenvalues --    1.41397   1.41550   1.42079   1.42700   1.43310
 Alpha virt. eigenvalues --    1.43626   1.43892   1.44309   1.44923   1.45021
 Alpha virt. eigenvalues --    1.45525   1.45977   1.46065   1.46676   1.47039
 Alpha virt. eigenvalues --    1.47497   1.47590   1.47834   1.48778   1.49600
 Alpha virt. eigenvalues --    1.50238   1.50438   1.51323   1.51777   1.53181
 Alpha virt. eigenvalues --    1.53660   1.54586   1.55194   1.55667   1.56278
 Alpha virt. eigenvalues --    1.56624   1.57810   1.58428   1.59547   1.60345
 Alpha virt. eigenvalues --    1.61388   1.62297   1.63442   1.63561   1.64717
 Alpha virt. eigenvalues --    1.66260   1.66342   1.66843   1.68100   1.68176
 Alpha virt. eigenvalues --    1.68727   1.69343   1.70119   1.70429   1.70812
 Alpha virt. eigenvalues --    1.70821   1.72828   1.73045   1.73221   1.73588
 Alpha virt. eigenvalues --    1.74439   1.74627   1.74647   1.75912   1.76967
 Alpha virt. eigenvalues --    1.77051   1.78659   1.80369   1.80412   1.80756
 Alpha virt. eigenvalues --    1.81658   1.83555   1.83764   1.83803   1.85285
 Alpha virt. eigenvalues --    1.85886   1.86088   1.87667   1.88078   1.89117
 Alpha virt. eigenvalues --    1.90089   1.91166   1.91731   1.91864   1.93282
 Alpha virt. eigenvalues --    1.93734   1.94753   1.95587   1.96541   1.96698
 Alpha virt. eigenvalues --    1.97004   1.97837   2.00259   2.01024   2.01841
 Alpha virt. eigenvalues --    2.02411   2.04240   2.06053   2.06063   2.07750
 Alpha virt. eigenvalues --    2.08115   2.11077   2.12229   2.12466   2.17510
 Alpha virt. eigenvalues --    2.18461   2.18675   2.19238   2.20411   2.20903
 Alpha virt. eigenvalues --    2.20985   2.22489   2.22668   2.22886   2.23584
 Alpha virt. eigenvalues --    2.24556   2.24668   2.25149   2.25588   2.25789
 Alpha virt. eigenvalues --    2.26827   2.27514   2.27773   2.28482   2.28772
 Alpha virt. eigenvalues --    2.29066   2.29652   2.30014   2.31947   2.34263
 Alpha virt. eigenvalues --    2.34322   2.35805   2.36845   2.37999   2.40749
 Alpha virt. eigenvalues --    2.41040   2.42348   2.42698   2.44145   2.44529
 Alpha virt. eigenvalues --    2.44770   2.45490   2.46113   2.47623   2.47906
 Alpha virt. eigenvalues --    2.48063   2.48522   2.49097   2.49202   2.50915
 Alpha virt. eigenvalues --    2.54127   2.54783   2.55324   2.56113   2.57434
 Alpha virt. eigenvalues --    2.57773   2.57994   2.59283   2.59770   2.61467
 Alpha virt. eigenvalues --    2.61524   2.62540   2.62947   2.63999   2.64320
 Alpha virt. eigenvalues --    2.64943   2.65472   2.65948   2.66576   2.68619
 Alpha virt. eigenvalues --    2.69634   2.72137   2.74477   2.74719   2.75553
 Alpha virt. eigenvalues --    2.75614   2.76194   2.77529   2.83243   2.91054
 Alpha virt. eigenvalues --    2.92828   2.93231   2.96713   2.97703   2.98514
 Alpha virt. eigenvalues --    2.98927   2.99723   2.99974   3.01716   3.02289
 Alpha virt. eigenvalues --    3.03913   3.04386   3.04670   3.07380   3.08395
 Alpha virt. eigenvalues --    3.09322   3.12227   3.12836   3.14910   3.15840
 Alpha virt. eigenvalues --    3.17891   3.18921   3.19245   3.19455   3.20185
 Alpha virt. eigenvalues --    3.21637   3.22514   3.24839   3.26371   3.27368
 Alpha virt. eigenvalues --    3.28249   3.29189   3.30881   3.34060   3.34184
 Alpha virt. eigenvalues --    3.34792   3.35275   3.47441   3.52622   3.56125
 Alpha virt. eigenvalues --    3.61237   3.68830   3.69549   3.75419   3.86600
 Alpha virt. eigenvalues --   21.08124  21.23823  21.39449  21.46761  21.57972
 Alpha virt. eigenvalues --   21.60826  21.61247  21.65427  21.70089  21.78269
 Alpha virt. eigenvalues --   21.81335  21.84898  21.85214  21.86430  21.88752
 Alpha virt. eigenvalues --   21.96394  22.00044  22.02983  22.04360  31.53408
 Alpha virt. eigenvalues --   31.68488
          Condensed to atoms (all electrons):
               1          2          3          4          5          6
     1  C    4.951486   0.475554   0.403405  -0.003498  -0.000423  -0.104863
     2  C    0.475554   4.944962  -0.025784   0.475554  -0.070029  -0.025801
     3  C    0.403405  -0.025784   5.188800  -0.104876   0.386263  -0.049605
     4  C   -0.003498   0.475554  -0.104876   4.951471  -0.000427   0.403438
     5  C   -0.000423  -0.070029   0.386263  -0.000427   5.524806   0.386314
     6  C   -0.104863  -0.025801  -0.049605   0.403438   0.386314   5.188740
     7  H   -0.054667   0.416390   0.017943  -0.054668  -0.004318   0.017943
     8  H   -0.015876   0.009091   0.393629  -0.001015  -0.062941   0.011442
     9  H    0.011976  -0.049970   0.000001   0.411939   0.014755  -0.050624
    10  H   -0.001016   0.009091   0.011444  -0.015878  -0.062938   0.393628
    11  C    0.014290   0.009699  -0.056134   0.014291   0.087453  -0.056164
    12  C   -0.000560  -0.000363   0.027686   0.004080  -0.128401  -0.024424
    13  C    0.004079  -0.000364  -0.024440  -0.000558  -0.128342   0.027688
    14  C    0.000471  -0.000045  -0.001386  -0.000765   0.046837   0.001392
    15  C   -0.000765  -0.000045   0.001398   0.000471   0.046802  -0.001388
    16  C   -0.000024   0.000018   0.001196  -0.000024  -0.012056   0.001198
    17  H    0.000025  -0.000039  -0.000241   0.001383  -0.014836   0.001979
    18  H    0.001382  -0.000039   0.001978   0.000025  -0.014832  -0.000241
    19  H   -0.000001  -0.000000  -0.000013  -0.000002  -0.000755   0.000018
    20  H   -0.000002  -0.000000   0.000018  -0.000001  -0.000756  -0.000013
    21  H    0.411941  -0.049971  -0.050626   0.011977   0.014756   0.000001
    22  C   -0.000005   0.000001   0.000187  -0.000005  -0.004794   0.000187
    23  C    0.000000   0.000000   0.000017  -0.000000  -0.000092  -0.000004
    24  C   -0.000000   0.000000  -0.000004   0.000000  -0.000092   0.000017
    25  N    0.000000   0.000000   0.000000  -0.000000  -0.000000   0.000000
    26  N   -0.000000   0.000000   0.000000   0.000000  -0.000000   0.000000
    27  C    0.000000   0.000000   0.000000  -0.000000  -0.000004  -0.000000
    28  H   -0.000000  -0.000000  -0.000000   0.000000   0.000000  -0.000000
    29  H   -0.000000   0.000000   0.000003   0.000000  -0.000028   0.000000
    30  H    0.000000   0.000000   0.000000  -0.000000   0.000000   0.000000
    31  C    0.000000   0.000000   0.000000  -0.000000  -0.000000  -0.000000
    32  H   -0.000000  -0.000000  -0.000000   0.000000   0.000000   0.000000
    33  H    0.000000  -0.000000  -0.000000  -0.000000   0.000000  -0.000000
    34  H    0.000000   0.000000   0.000000  -0.000000  -0.000000   0.000000
    35  C   -0.000000   0.000000  -0.000000   0.000000  -0.000004   0.000000
    36  H    0.000000  -0.000000  -0.000000  -0.000000   0.000000  -0.000000
    37  H    0.000000   0.000000   0.000000  -0.000000  -0.000028   0.000003
    38  H   -0.000000   0.000000   0.000000   0.000000   0.000000   0.000000
    39  C   -0.000000   0.000000  -0.000000   0.000000  -0.000000   0.000000
    40  H    0.000000  -0.000000   0.000000  -0.000000   0.000000  -0.000000
    41  H   -0.000000  -0.000000  -0.000000   0.000000   0.000000  -0.000000
    42  H   -0.000000   0.000000   0.000000   0.000000  -0.000000   0.000000
               7          8          9         10         11         12
     1  C   -0.054667  -0.015876   0.011976  -0.001016   0.014290  -0.000560
     2  C    0.416390   0.009091  -0.049970   0.009091   0.009699  -0.000363
     3  C    0.017943   0.393629   0.000001   0.011444  -0.056134   0.027686
     4  C   -0.054668  -0.001015   0.411939  -0.015878   0.014291   0.004080
     5  C   -0.004318  -0.062941   0.014755  -0.062938   0.087453  -0.128401
     6  C    0.017943   0.011442  -0.050624   0.393628  -0.056164  -0.024424
     7  H    0.543837  -0.000195  -0.006745  -0.000195  -0.000247  -0.000007
     8  H   -0.000195   0.541624   0.000033  -0.000166  -0.014451  -0.000055
     9  H   -0.006745   0.000033   0.550777  -0.005953  -0.001703   0.000030
    10  H   -0.000195  -0.000166  -0.005953   0.541626  -0.014455   0.004000
    11  C   -0.000247  -0.014451  -0.001703  -0.014455   5.316509   0.430103
    12  C   -0.000007  -0.000055   0.000030   0.004000   0.430103   5.354945
    13  C   -0.000007   0.004000   0.000014  -0.000056   0.430064  -0.093979
    14  C    0.000000  -0.000212  -0.000005   0.001322  -0.016907   0.185182
    15  C    0.000000   0.001322  -0.000001  -0.000212  -0.016928  -0.056636
    16  C   -0.000000   0.000217  -0.000000   0.000217  -0.047532   0.015776
    17  H   -0.000003  -0.000017   0.000008   0.000504  -0.045351   0.392750
    18  H   -0.000003   0.000505   0.000000  -0.000017  -0.045364   0.008899
    19  H    0.000000  -0.000001  -0.000000  -0.000042   0.010622  -0.003804
    20  H    0.000000  -0.000042   0.000000  -0.000001   0.010630   0.002840
    21  H   -0.006745  -0.005953  -0.000188   0.000033  -0.001703   0.000014
    22  C   -0.000000   0.000033  -0.000000   0.000033  -0.016870   0.033864
    23  C   -0.000000   0.000000   0.000000   0.000001  -0.001928  -0.008858
    24  C   -0.000000   0.000001  -0.000000   0.000000  -0.001930   0.013935
    25  N   -0.000000  -0.000000  -0.000000   0.000000  -0.000024  -0.000014
    26  N   -0.000000   0.000000  -0.000000  -0.000000  -0.000024   0.000188
    27  C   -0.000000  -0.000001  -0.000000  -0.000000  -0.000061  -0.000017
    28  H    0.000000   0.000000   0.000000  -0.000000   0.000005   0.000005
    29  H    0.000000   0.000003  -0.000000  -0.000000  -0.000111   0.000181
    30  H   -0.000000   0.000000   0.000000   0.000000   0.000000  -0.000004
    31  C   -0.000000  -0.000000   0.000000   0.000000  -0.000001  -0.000005
    32  H    0.000000   0.000000   0.000000  -0.000000   0.000000   0.000000
    33  H    0.000000  -0.000000  -0.000000   0.000000  -0.000000  -0.000000
    34  H    0.000000  -0.000000  -0.000000  -0.000000   0.000000  -0.000000
    35  C   -0.000000  -0.000000  -0.000000  -0.000001  -0.000061   0.000255
    36  H    0.000000  -0.000000   0.000000   0.000000   0.000005  -0.000095
    37  H    0.000000  -0.000000  -0.000000   0.000003  -0.000111  -0.000054
    38  H   -0.000000   0.000000   0.000000   0.000000   0.000000   0.000038
    39  C   -0.000000   0.000000  -0.000000  -0.000000  -0.000001   0.000017
    40  H    0.000000  -0.000000   0.000000   0.000000   0.000000  -0.000002
    41  H    0.000000   0.000000   0.000000  -0.000000  -0.000000   0.000001
    42  H    0.000000  -0.000000  -0.000000  -0.000000   0.000000   0.000001
              13         14         15         16         17         18
     1  C    0.004079   0.000471  -0.000765  -0.000024   0.000025   0.001382
     2  C   -0.000364  -0.000045  -0.000045   0.000018  -0.000039  -0.000039
     3  C   -0.024440  -0.001386   0.001398   0.001196  -0.000241   0.001978
     4  C   -0.000558  -0.000765   0.000471  -0.000024   0.001383   0.000025
     5  C   -0.128342   0.046837   0.046802  -0.012056  -0.014836  -0.014832
     6  C    0.027688   0.001392  -0.001388   0.001198   0.001979  -0.000241
     7  H   -0.000007   0.000000   0.000000  -0.000000  -0.000003  -0.000003
     8  H    0.004000  -0.000212   0.001322   0.000217  -0.000017   0.000505
     9  H    0.000014  -0.000005  -0.000001  -0.000000   0.000008   0.000000
    10  H   -0.000056   0.001322  -0.000212   0.000217   0.000504  -0.000017
    11  C    0.430064  -0.016907  -0.016928  -0.047532  -0.045351  -0.045364
    12  C   -0.093979   0.185182  -0.056636   0.015776   0.392750   0.008899
    13  C    5.354853  -0.056634   0.185304   0.015707   0.008899   0.392757
    14  C   -0.056634   5.385643  -0.127148   0.377758  -0.024219   0.001935
    15  C    0.185304  -0.127148   5.385359   0.378029   0.001935  -0.024224
    16  C    0.015707   0.377758   0.378029   5.699615   0.011247   0.011250
    17  H    0.008899  -0.024219   0.001935   0.011247   0.513323  -0.000158
    18  H    0.392757   0.001935  -0.024224   0.011250  -0.000158   0.513336
    19  H    0.002842   0.406130   0.001270  -0.097707  -0.005275   0.000049
    20  H   -0.003800   0.001280   0.406128  -0.097687   0.000049  -0.005277
    21  H    0.000030  -0.000001  -0.000005  -0.000000   0.000000   0.000008
    22  C    0.033890  -0.066594  -0.066582   0.109140  -0.000154  -0.000155
    23  C    0.013926   0.045554  -0.062933  -0.218675   0.000081   0.000178
    24  C   -0.008853  -0.062940   0.045515  -0.218758   0.000178   0.000081
    25  N    0.000187   0.000132   0.000711  -0.013032   0.000000   0.000002
    26  N   -0.000014   0.000705   0.000134  -0.013020   0.000002   0.000000
    27  C    0.000254   0.000004  -0.003639  -0.014728  -0.000000   0.000004
    28  H   -0.000095  -0.000034   0.000136  -0.000170   0.000000  -0.000003
    29  H   -0.000050  -0.000786   0.006560  -0.020430   0.000000  -0.000018
    30  H    0.000038   0.000032  -0.000130   0.001039  -0.000000   0.000000
    31  C    0.000017   0.000065  -0.000018  -0.002731   0.000000   0.000000
    32  H   -0.000002  -0.000002   0.000004   0.000001   0.000000  -0.000000
    33  H    0.000001   0.000001  -0.000018   0.000117  -0.000000   0.000000
    34  H    0.000001   0.000011   0.000011  -0.000280  -0.000000  -0.000000
    35  C   -0.000017  -0.003663   0.000006  -0.014699   0.000004  -0.000000
    36  H    0.000005   0.000135  -0.000034  -0.000169  -0.000003   0.000000
    37  H    0.000181   0.006582  -0.000788  -0.020454  -0.000018   0.000000
    38  H   -0.000004  -0.000130   0.000032   0.001041   0.000000  -0.000000
    39  C   -0.000005  -0.000020   0.000066  -0.002732   0.000000   0.000000
    40  H    0.000000   0.000004  -0.000002   0.000001  -0.000000   0.000000
    41  H   -0.000000  -0.000018   0.000001   0.000117   0.000000  -0.000000
    42  H   -0.000000   0.000011   0.000011  -0.000277  -0.000000  -0.000000
              19         20         21         22         23         24
     1  C   -0.000001  -0.000002   0.411941  -0.000005   0.000000  -0.000000
     2  C   -0.000000  -0.000000  -0.049971   0.000001   0.000000   0.000000
     3  C   -0.000013   0.000018  -0.050626   0.000187   0.000017  -0.000004
     4  C   -0.000002  -0.000001   0.011977  -0.000005  -0.000000   0.000000
     5  C   -0.000755  -0.000756   0.014756  -0.004794  -0.000092  -0.000092
     6  C    0.000018  -0.000013   0.000001   0.000187  -0.000004   0.000017
     7  H    0.000000   0.000000  -0.006745  -0.000000  -0.000000  -0.000000
     8  H   -0.000001  -0.000042  -0.005953   0.000033   0.000000   0.000001
     9  H   -0.000000   0.000000  -0.000188  -0.000000   0.000000  -0.000000
    10  H   -0.000042  -0.000001   0.000033   0.000033   0.000001   0.000000
    11  C    0.010622   0.010630  -0.001703  -0.016870  -0.001928  -0.001930
    12  C   -0.003804   0.002840   0.000014   0.033864  -0.008858   0.013935
    13  C    0.002842  -0.003800   0.000030   0.033890   0.013926  -0.008853
    14  C    0.406130   0.001280  -0.000001  -0.066594   0.045554  -0.062940
    15  C    0.001270   0.406128  -0.000005  -0.066582  -0.062933   0.045515
    16  C   -0.097707  -0.097687  -0.000000   0.109140  -0.218675  -0.218758
    17  H   -0.005275   0.000049   0.000000  -0.000154   0.000081   0.000178
    18  H    0.000049  -0.005277   0.000008  -0.000155   0.000178   0.000081
    19  H    0.545800  -0.000236   0.000000  -0.001116   0.005233  -0.001055
    20  H   -0.000236   0.545839  -0.000000  -0.001156  -0.001048   0.005225
    21  H    0.000000  -0.000000   0.550776  -0.000000  -0.000000   0.000000
    22  C   -0.001116  -0.001156  -0.000000   6.712285  -0.000556   0.000332
    23  C    0.005233  -0.001048  -0.000000  -0.000556   6.040674  -0.208393
    24  C   -0.001055   0.005225   0.000000   0.000332  -0.208393   6.040100
    25  N    0.000028  -0.000080  -0.000000  -0.142498   0.551735  -0.086571
    26  N   -0.000077   0.000028  -0.000000  -0.142492  -0.086562   0.551607
    27  C   -0.000002  -0.001651  -0.000000  -0.000236  -0.046689  -0.002073
    28  H    0.000000   0.000191   0.000000   0.005590  -0.001676  -0.001501
    29  H   -0.000018   0.000483  -0.000000   0.012372  -0.019928   0.018655
    30  H    0.000000   0.000245   0.000000  -0.003287   0.006798  -0.001101
    31  C    0.000004   0.000020  -0.000000  -0.012494  -0.058318  -0.006685
    32  H    0.000000   0.000010   0.000000   0.001051   0.008552  -0.001255
    33  H   -0.000000  -0.000001   0.000000  -0.002302  -0.003199   0.003134
    34  H   -0.000001   0.000000  -0.000000   0.007331  -0.012939  -0.000300
    35  C   -0.001659  -0.000002  -0.000000  -0.000335  -0.002100  -0.046612
    36  H    0.000191   0.000000   0.000000   0.005579  -0.001495  -0.001603
    37  H    0.000481  -0.000018  -0.000000   0.012465   0.018670  -0.019950
    38  H    0.000244   0.000000   0.000000  -0.003292  -0.001109   0.006715
    39  C    0.000019   0.000004   0.000000  -0.012537  -0.006619  -0.058404
    40  H    0.000010   0.000000   0.000000   0.001044  -0.001244   0.008668
    41  H   -0.000001  -0.000000  -0.000000  -0.002304   0.003153  -0.003333
    42  H    0.000000  -0.000001  -0.000000   0.007246  -0.000396  -0.012983
              25         26         27         28         29         30
     1  C    0.000000  -0.000000   0.000000  -0.000000  -0.000000   0.000000
     2  C    0.000000   0.000000   0.000000  -0.000000   0.000000   0.000000
     3  C    0.000000   0.000000   0.000000  -0.000000   0.000003   0.000000
     4  C   -0.000000   0.000000  -0.000000   0.000000   0.000000  -0.000000
     5  C   -0.000000  -0.000000  -0.000004   0.000000  -0.000028   0.000000
     6  C    0.000000   0.000000  -0.000000  -0.000000   0.000000   0.000000
     7  H   -0.000000  -0.000000  -0.000000   0.000000   0.000000  -0.000000
     8  H   -0.000000   0.000000  -0.000001   0.000000   0.000003   0.000000
     9  H   -0.000000  -0.000000  -0.000000   0.000000  -0.000000   0.000000
    10  H    0.000000  -0.000000  -0.000000  -0.000000  -0.000000   0.000000
    11  C   -0.000024  -0.000024  -0.000061   0.000005  -0.000111   0.000000
    12  C   -0.000014   0.000188  -0.000017   0.000005   0.000181  -0.000004
    13  C    0.000187  -0.000014   0.000254  -0.000095  -0.000050   0.000038
    14  C    0.000132   0.000705   0.000004  -0.000034  -0.000786   0.000032
    15  C    0.000711   0.000134  -0.003639   0.000136   0.006560  -0.000130
    16  C   -0.013032  -0.013020  -0.014728  -0.000170  -0.020430   0.001039
    17  H    0.000000   0.000002  -0.000000   0.000000   0.000000  -0.000000
    18  H    0.000002   0.000000   0.000004  -0.000003  -0.000018   0.000000
    19  H    0.000028  -0.000077  -0.000002   0.000000  -0.000018   0.000000
    20  H   -0.000080   0.000028  -0.001651   0.000191   0.000483   0.000245
    21  H   -0.000000  -0.000000  -0.000000   0.000000  -0.000000   0.000000
    22  C   -0.142498  -0.142492  -0.000236   0.005590   0.012372  -0.003287
    23  C    0.551735  -0.086562  -0.046689  -0.001676  -0.019928   0.006798
    24  C   -0.086571   0.551607  -0.002073  -0.001501   0.018655  -0.001101
    25  N    6.420202  -0.000864   0.226761  -0.035547  -0.024942  -0.041515
    26  N   -0.000864   6.420429  -0.000649   0.000002   0.000086  -0.000005
    27  C    0.226761  -0.000649   4.932131   0.408254   0.390607   0.409188
    28  H   -0.035547   0.000002   0.408254   0.508546  -0.016983  -0.030775
    29  H   -0.024942   0.000086   0.390607  -0.016983   0.518006  -0.021494
    30  H   -0.041515  -0.000005   0.409188  -0.030775  -0.021494   0.513341
    31  C    0.240825   0.000343  -0.059721  -0.009738   0.008350   0.001168
    32  H   -0.038537  -0.000013  -0.001625   0.005643   0.000447  -0.003019
    33  H   -0.038774  -0.000081  -0.006368  -0.000943  -0.000269   0.004843
    34  H   -0.026843  -0.001858   0.009456  -0.000093  -0.000502   0.000144
    35  C   -0.000650   0.226709   0.000011  -0.000002   0.000007  -0.000000
    36  H    0.000002  -0.035516  -0.000002  -0.000000  -0.000000   0.000000
    37  H    0.000086  -0.024997   0.000007  -0.000000  -0.000002   0.000000
    38  H   -0.000005  -0.041546  -0.000000   0.000000   0.000000  -0.000000
    39  C    0.000340   0.240681  -0.000150   0.000003   0.000029  -0.000004
    40  H   -0.000013  -0.038422   0.000000  -0.000000  -0.000001   0.000000
    41  H   -0.000082  -0.038822   0.000007   0.000001   0.000000  -0.000000
    42  H   -0.001836  -0.026720  -0.000010   0.000002   0.000006  -0.000001
              31         32         33         34         35         36
     1  C    0.000000  -0.000000   0.000000   0.000000  -0.000000   0.000000
     2  C    0.000000  -0.000000  -0.000000   0.000000   0.000000  -0.000000
     3  C    0.000000  -0.000000  -0.000000   0.000000  -0.000000  -0.000000
     4  C   -0.000000   0.000000  -0.000000  -0.000000   0.000000  -0.000000
     5  C   -0.000000   0.000000   0.000000  -0.000000  -0.000004   0.000000
     6  C   -0.000000   0.000000  -0.000000   0.000000   0.000000  -0.000000
     7  H   -0.000000   0.000000   0.000000   0.000000  -0.000000   0.000000
     8  H   -0.000000   0.000000  -0.000000  -0.000000  -0.000000  -0.000000
     9  H    0.000000   0.000000  -0.000000  -0.000000  -0.000000   0.000000
    10  H    0.000000  -0.000000   0.000000  -0.000000  -0.000001   0.000000
    11  C   -0.000001   0.000000  -0.000000   0.000000  -0.000061   0.000005
    12  C   -0.000005   0.000000  -0.000000  -0.000000   0.000255  -0.000095
    13  C    0.000017  -0.000002   0.000001   0.000001  -0.000017   0.000005
    14  C    0.000065  -0.000002   0.000001   0.000011  -0.003663   0.000135
    15  C   -0.000018   0.000004  -0.000018   0.000011   0.000006  -0.000034
    16  C   -0.002731   0.000001   0.000117  -0.000280  -0.014699  -0.000169
    17  H    0.000000   0.000000  -0.000000  -0.000000   0.000004  -0.000003
    18  H    0.000000  -0.000000   0.000000  -0.000000  -0.000000   0.000000
    19  H    0.000004   0.000000  -0.000000  -0.000001  -0.001659   0.000191
    20  H    0.000020   0.000010  -0.000001   0.000000  -0.000002   0.000000
    21  H   -0.000000   0.000000   0.000000  -0.000000  -0.000000   0.000000
    22  C   -0.012494   0.001051  -0.002302   0.007331  -0.000335   0.005579
    23  C   -0.058318   0.008552  -0.003199  -0.012939  -0.002100  -0.001495
    24  C   -0.006685  -0.001255   0.003134  -0.000300  -0.046612  -0.001603
    25  N    0.240825  -0.038537  -0.038774  -0.026843  -0.000650   0.000002
    26  N    0.000343  -0.000013  -0.000081  -0.001858   0.226709  -0.035516
    27  C   -0.059721  -0.001625  -0.006368   0.009456   0.000011  -0.000002
    28  H   -0.009738   0.005643  -0.000943  -0.000093  -0.000002  -0.000000
    29  H    0.008350   0.000447  -0.000269  -0.000502   0.000007  -0.000000
    30  H    0.001168  -0.003019   0.004843   0.000144  -0.000000   0.000000
    31  C    4.935191   0.400713   0.417297   0.394420  -0.000153   0.000003
    32  H    0.400713   0.510906  -0.028891  -0.020335   0.000000  -0.000000
    33  H    0.417297  -0.028891   0.504134  -0.022862   0.000007   0.000001
    34  H    0.394420  -0.020335  -0.022862   0.535775  -0.000008   0.000002
    35  C   -0.000153   0.000000   0.000007  -0.000008   4.932161   0.408199
    36  H    0.000003  -0.000000   0.000001   0.000002   0.408199   0.508457
    37  H    0.000029  -0.000001   0.000000   0.000006   0.390581  -0.016950
    38  H   -0.000004   0.000000  -0.000000  -0.000001   0.409283  -0.030753
    39  C   -0.003421   0.000174  -0.000086  -0.002511  -0.059538  -0.009809
    40  H    0.000174  -0.000006   0.000012   0.000285  -0.001636   0.005623
    41  H   -0.000087   0.000013  -0.000018  -0.000216  -0.006342  -0.000929
    42  H   -0.002603   0.000285  -0.000205   0.002227   0.009433  -0.000089
              37         38         39         40         41         42
     1  C    0.000000  -0.000000  -0.000000   0.000000  -0.000000  -0.000000
     2  C    0.000000   0.000000   0.000000  -0.000000  -0.000000   0.000000
     3  C    0.000000   0.000000  -0.000000   0.000000  -0.000000   0.000000
     4  C   -0.000000   0.000000   0.000000  -0.000000   0.000000   0.000000
     5  C   -0.000028   0.000000  -0.000000   0.000000   0.000000  -0.000000
     6  C    0.000003   0.000000   0.000000  -0.000000  -0.000000   0.000000
     7  H    0.000000  -0.000000  -0.000000   0.000000   0.000000   0.000000
     8  H   -0.000000   0.000000   0.000000  -0.000000   0.000000  -0.000000
     9  H   -0.000000   0.000000  -0.000000   0.000000   0.000000  -0.000000
    10  H    0.000003   0.000000  -0.000000   0.000000  -0.000000  -0.000000
    11  C   -0.000111   0.000000  -0.000001   0.000000  -0.000000   0.000000
    12  C   -0.000054   0.000038   0.000017  -0.000002   0.000001   0.000001
    13  C    0.000181  -0.000004  -0.000005   0.000000  -0.000000  -0.000000
    14  C    0.006582  -0.000130  -0.000020   0.000004  -0.000018   0.000011
    15  C   -0.000788   0.000032   0.000066  -0.000002   0.000001   0.000011
    16  C   -0.020454   0.001041  -0.002732   0.000001   0.000117  -0.000277
    17  H   -0.000018   0.000000   0.000000  -0.000000   0.000000  -0.000000
    18  H    0.000000  -0.000000   0.000000   0.000000  -0.000000  -0.000000
    19  H    0.000481   0.000244   0.000019   0.000010  -0.000001   0.000000
    20  H   -0.000018   0.000000   0.000004   0.000000  -0.000000  -0.000001
    21  H   -0.000000   0.000000   0.000000   0.000000  -0.000000  -0.000000
    22  C    0.012465  -0.003292  -0.012537   0.001044  -0.002304   0.007246
    23  C    0.018670  -0.001109  -0.006619  -0.001244   0.003153  -0.000396
    24  C   -0.019950   0.006715  -0.058404   0.008668  -0.003333  -0.012983
    25  N    0.000086  -0.000005   0.000340  -0.000013  -0.000082  -0.001836
    26  N   -0.024997  -0.041546   0.240681  -0.038422  -0.038822  -0.026720
    27  C    0.000007  -0.000000  -0.000150   0.000000   0.000007  -0.000010
    28  H   -0.000000   0.000000   0.000003  -0.000000   0.000001   0.000002
    29  H   -0.000002   0.000000   0.000029  -0.000001   0.000000   0.000006
    30  H    0.000000  -0.000000  -0.000004   0.000000  -0.000000  -0.000001
    31  C    0.000029  -0.000004  -0.003421   0.000174  -0.000087  -0.002603
    32  H   -0.000001   0.000000   0.000174  -0.000006   0.000013   0.000285
    33  H    0.000000  -0.000000  -0.000086   0.000012  -0.000018  -0.000205
    34  H    0.000006  -0.000001  -0.002511   0.000285  -0.000216   0.002227
    35  C    0.390581   0.409283  -0.059538  -0.001636  -0.006342   0.009433
    36  H   -0.016950  -0.030753  -0.009809   0.005623  -0.000929  -0.000089
    37  H    0.518123  -0.021546   0.008335   0.000455  -0.000273  -0.000501
    38  H   -0.021546   0.513295   0.001255  -0.003032   0.004808   0.000142
    39  C    0.008335   0.001255   4.935665   0.400458   0.417459   0.394649
    40  H    0.000455  -0.003032   0.400458   0.510785  -0.028788  -0.020312
    41  H   -0.000273   0.004808   0.417459  -0.028788   0.504010  -0.022977
    42  H   -0.000501   0.000142   0.394649  -0.020312  -0.022977   0.535465
 Mulliken charges:
               1
     1  C   -0.092912
     2  C   -0.117911
     3  C   -0.120858
     4  C   -0.092910
     5  C   -0.001889
     6  C   -0.120862
     7  H    0.131686
     8  H    0.139026
     9  H    0.125656
    10  H    0.139026
    11  C    0.014391
    12  C   -0.157509
    13  C   -0.157515
    14  C   -0.099676
    15  C   -0.099708
    16  C    0.171500
    17  H    0.157947
    18  H    0.157940
    19  H    0.138824
    20  H    0.138783
    21  H    0.125656
    22  C   -0.462865
    23  C    0.050186
    24  C    0.050233
    25  N    0.010816
    26  N    0.010769
    27  C   -0.239059
    28  H    0.169181
    29  H    0.149764
    30  H    0.164497
    31  C   -0.242638
    32  H    0.165885
    33  H    0.174472
    34  H    0.139082
    35  C   -0.239177
    36  H    0.169243
    37  H    0.149682
    38  H    0.164570
    39  C   -0.243319
    40  H    0.165938
    41  H    0.174621
    42  H    0.139435
 Sum of Mulliken charges =   1.00000
 Mulliken charges with hydrogens summed into heavy atoms:
               1
     1  C    0.032744
     2  C    0.013775
     3  C    0.018167
     4  C    0.032746
     5  C   -0.001889
     6  C    0.018164
    11  C    0.014391
    12  C    0.000438
    13  C    0.000425
    14  C    0.039148
    15  C    0.039075
    16  C    0.171500
    22  C   -0.462865
    23  C    0.050186
    24  C    0.050233
    25  N    0.010816
    26  N    0.010769
    27  C    0.244383
    31  C    0.236801
    35  C    0.244318
    39  C    0.236675
 Electronic spatial extent (au):  <R**2>=           9905.0025
 Charge=              1.0000 electrons
 Dipole moment (field-independent basis, Debye):
    X=             11.6708    Y=              0.0004    Z=              0.0017  Tot=             11.6708
 Quadrupole moment (field-independent basis, Debye-Ang):
   XX=            -23.6512   YY=            -84.5148   ZZ=           -126.0699
   XY=              0.0018   XZ=              0.0060   YZ=             -0.3166
 Traceless Quadrupole moment (field-independent basis, Debye-Ang):
   XX=             54.4274   YY=             -6.4362   ZZ=            -47.9912
   XY=              0.0018   XZ=              0.0060   YZ=             -0.3166
 Octapole moment (field-independent basis, Debye-Ang**2):
  XXX=            193.3283  YYY=              0.0208  ZZZ=              0.0149  XYY=             91.4008
  XXY=              0.0080  XXZ=              0.0354  XZZ=             36.6427  YZZ=             -0.0062
  YYZ=             -0.0021  XYZ=             -6.2545
 Hexadecapole moment (field-independent basis, Debye-Ang**3):
 XXXX=          -7969.7390 YYYY=          -1725.5385 ZZZZ=           -224.7460 XXXY=              0.0715
 XXXZ=              0.0009 YYYX=              0.0953 YYYZ=             -0.8508 ZZZX=              0.0829
 ZZZY=              0.8078 XXYY=          -1636.8779 XXZZ=          -1988.2675 YYZZ=           -356.8366
 XXYZ=             58.8866 YYXZ=             -0.0393 ZZXY=             -0.0563
 N-N= 1.487460204840D+03 E-N=-4.918284905902D+03  KE= 8.407858556312D+02
 No NMR shielding tensors so no spin-rotation constants.
 Leave Link  601 at Thu Jan 21 06:50:17 2021, MaxMem=  4026531840 cpu:               2.3 elap:               0.3
 (Enter /opt/ohpc/pub/libs/gaussian/g16-A.03/sandybridge/g16/l9999.exe)

 Test job not archived.
 1\1\GINC-CASCADEB025\SP\RLC-wHPBE\TZVP\C19H21N2(1+)\RDU230\21-Jan-2021
 \0\\#P LC-wHPBE/TZVP iop(3/107=0208400000, 3/108=0208400000) scf=(conv
 er=6,fermi,ndamp=35,noincfock,novaracc,vshift=500,xqc)\\H21 C19 N2\\1,
 1\C,0,5.924302,-1.175178,0.28256\C,0,6.625626,0.000025,-0.000251\C,0,4
 .530324,-1.177472,0.278212\C,0,5.924206,1.175202,-0.282951\C,0,3.81093
 6,-0.000036,-0.000021\C,0,4.530233,1.177435,-0.278371\H,0,7.716547,0.0
 00056,-0.000331\H,0,3.994064,-2.094974,0.527939\H,0,6.466302,2.09321,-
 0.514746\H,0,3.99388,2.094904,-0.52801\C,0,2.333716,-0.000062,0.000109
 \C,0,1.604784,1.119278,0.452707\C,0,1.604752,-1.119433,-0.452341\C,0,0
 .21685,1.12577,0.449243\C,0,0.216813,-1.125977,-0.44867\C,0,-0.504919,
 -0.000106,0.000309\H,0,2.141671,1.985727,0.840835\H,0,2.141597,-1.9858
 91,-0.840507\H,0,-0.315693,1.995203,0.838189\H,0,-0.315745,-1.995465,-
 0.837475\H,0,6.466484,-2.093156,0.514265\C,0,-1.942874,-0.000086,0.000
 402\C,0,-3.143323,-0.702637,-0.003392\C,0,-3.143127,0.702801,0.003915\
 N,0,-3.78708,-1.855019,0.001668\N,0,-3.786774,1.855252,-0.001097\C,0,-
 3.068411,-3.12252,0.167733\H,0,-3.187886,-3.74858,-0.728596\H,0,-2.005
 788,-2.927607,0.341041\H,0,-3.471162,-3.663551,1.036238\C,0,-5.245121,
 -1.94416,-0.100275\H,0,-5.509149,-2.713998,-0.838669\H,0,-5.688951,-2.
 217262,0.869111\H,0,-5.659251,-0.989594,-0.439085\C,0,-3.068047,3.1226
 16,-0.16813\H,0,-3.188116,3.749602,0.727455\H,0,-2.005304,2.927538,-0.
 340531\H,0,-3.470192,3.662707,-1.037509\C,0,-5.24495,1.944232,0.099391
 \H,0,-5.509538,2.71844,0.832954\H,0,-5.688631,2.211256,-0.871774\H,0,-
 5.658779,0.991638,0.444142\\Version=EM64L-G16RevA.03\State=1-A\HF=-845
 .3757566\RMSD=6.350e-07\Dipole=-4.5916369,0.0001647,-0.0006544\Quadrup
 ole=40.4654658,-4.7851638,-35.680302,-0.0013395,0.004433,0.2353967\PG=
 C01 [X(C19H21N2)]\\@


 ERWIN WITH HIS PSI CAN DO
 CALCULATIONS QUITE A FEW.
 BUT ONE THING HAS NOT BEEN SEEN
 JUST WHAT DOES PSI REALLY MEAN.
 -- WALTER HUCKEL, TRANS. BY FELIX BLOCH
 Job cpu time:       0 days  1 hours  0 minutes 17.6 seconds.
 Elapsed time:       0 days  0 hours  7 minutes 33.7 seconds.
 File lengths (MBytes):  RWF=    136 Int=      0 D2E=      0 Chk=     24 Scr=      8
 Normal termination of Gaussian 16 at Thu Jan 21 06:50:17 2021.
