 Entering Gaussian System, Link 0=g16
 Input=mol_bp_cp_half_tune_c3.gjf
 Output=mol_bp_cp_half_tune_c3.log
 Initial command:
 /opt/ohpc/pub/libs/gaussian/g16-A.03/sandybridge/g16/l1.exe "/mnt/gpfs2_4m/scratch/rdu230/ondemand/projects/init_structures/wtuning/mol_bp_cp_half/tuning_mol_bp_cp_half_ocycle0/Gau-249241.inp" -scrdir="/mnt/gpfs2_4m/scratch/rdu230/ondemand/projects/init_structures/wtuning/mol_bp_cp_half/tuning_mol_bp_cp_half_ocycle0/"
 Entering Link 1 = /opt/ohpc/pub/libs/gaussian/g16-A.03/sandybridge/g16/l1.exe PID=    249242.
  
 Copyright (c) 1988,1990,1992,1993,1995,1998,2003,2009,2016,
            Gaussian, Inc.  All Rights Reserved.
  
 This is part of the Gaussian(R) 16 program.  It is based on
 the Gaussian(R) 09 system (copyright 2009, Gaussian, Inc.),
 the Gaussian(R) 03 system (copyright 2003, Gaussian, Inc.),
 the Gaussian(R) 98 system (copyright 1998, Gaussian, Inc.),
 the Gaussian(R) 94 system (copyright 1995, Gaussian, Inc.),
 the Gaussian 92(TM) system (copyright 1992, Gaussian, Inc.),
 the Gaussian 90(TM) system (copyright 1990, Gaussian, Inc.),
 the Gaussian 88(TM) system (copyright 1988, Gaussian, Inc.),
 the Gaussian 86(TM) system (copyright 1986, Carnegie Mellon
 University), and the Gaussian 82(TM) system (copyright 1983,
 Carnegie Mellon University). Gaussian is a federally registered
 trademark of Gaussian, Inc.
  
 This software contains proprietary and confidential information,
 including trade secrets, belonging to Gaussian, Inc.
  
 This software is provided under written license and may be
 used, copied, transmitted, or stored only in accord with that
 written license.
  
 The following legend is applicable only to US Government
 contracts under FAR:
  
                    RESTRICTED RIGHTS LEGEND
  
 Use, reproduction and disclosure by the US Government is
 subject to restrictions as set forth in subparagraphs (a)
 and (c) of the Commercial Computer Software - Restricted
 Rights clause in FAR 52.227-19.
  
 Gaussian, Inc.
 340 Quinnipiac St., Bldg. 40, Wallingford CT 06492
  
  
 ---------------------------------------------------------------
 Warning -- This program may not be used in any manner that
 competes with the business of Gaussian, Inc. or will provide
 assistance to any competitor of Gaussian, Inc.  The licensee
 of this program is prohibited from giving any competitor of
 Gaussian, Inc. access to this program.  By using this program,
 the user acknowledges that Gaussian, Inc. is engaged in the
 business of creating and licensing software in the field of
 computational chemistry and represents and warrants to the
 licensee that it is not a competitor of Gaussian, Inc. and that
 it will not use this program in any manner prohibited above.
 ---------------------------------------------------------------
  

 Cite this work as:
 Gaussian 16, Revision A.03,
 M. J. Frisch, G. W. Trucks, H. B. Schlegel, G. E. Scuseria, 
 M. A. Robb, J. R. Cheeseman, G. Scalmani, V. Barone, 
 G. A. Petersson, H. Nakatsuji, X. Li, M. Caricato, A. V. Marenich, 
 J. Bloino, B. G. Janesko, R. Gomperts, B. Mennucci, H. P. Hratchian, 
 J. V. Ortiz, A. F. Izmaylov, J. L. Sonnenberg, D. Williams-Young, 
 F. Ding, F. Lipparini, F. Egidi, J. Goings, B. Peng, A. Petrone, 
 T. Henderson, D. Ranasinghe, V. G. Zakrzewski, J. Gao, N. Rega, 
 G. Zheng, W. Liang, M. Hada, M. Ehara, K. Toyota, R. Fukuda, 
 J. Hasegawa, M. Ishida, T. Nakajima, Y. Honda, O. Kitao, H. Nakai, 
 T. Vreven, K. Throssell, J. A. Montgomery, Jr., J. E. Peralta, 
 F. Ogliaro, M. J. Bearpark, J. J. Heyd, E. N. Brothers, K. N. Kudin, 
 V. N. Staroverov, T. A. Keith, R. Kobayashi, J. Normand, 
 K. Raghavachari, A. P. Rendell, J. C. Burant, S. S. Iyengar, 
 J. Tomasi, M. Cossi, J. M. Millam, M. Klene, C. Adamo, R. Cammi, 
 J. W. Ochterski, R. L. Martin, K. Morokuma, O. Farkas, 
 J. B. Foresman, and D. J. Fox, Gaussian, Inc., Wallingford CT, 2016.
 
 ******************************************
 Gaussian 16:  EM64L-G16RevA.03 25-Dec-2016
                21-Jan-2021 
 ******************************************
 %mem=30GB
 %nproc=8
 Will use up to    8 processors via shared memory.
 ----------------------------------------------------------------------
 #P LC-wHPBE/TZVP iop(3/107=0230500000, 3/108=0230500000) scf=(conver=6
 ,fermi,ndamp=35,noincfock,novaracc,vshift=500,xqc)
 ----------------------------------------------------------------------
 1/38=1,172=1/1;
 2/12=2,17=6,18=5,40=1/2;
 3/5=19,7=101,11=2,25=1,30=1,74=-71,107=230500000,108=230500000/1,2,3;
 4//1;
 5/5=100002,6=6,8=3,10=500,13=1,18=-1,22=13,38=1,93=35/2,8;
 6/7=2,8=2,9=2,10=2,28=1/1;
 99/5=1,9=1/99;
 Leave Link    1 at Thu Jan 21 01:59:40 2021, MaxMem=  4026531840 cpu:               0.7 elap:               0.1
 (Enter /opt/ohpc/pub/libs/gaussian/g16-A.03/sandybridge/g16/l101.exe)
 ----------
 H21 C19 N2
 ----------
 Symbolic Z-matrix:
 Charge =  2 Multiplicity = 2
 C                     5.9243   -1.17518   0.28256 
 C                     6.62563   0.00003  -0.00025 
 C                     4.53032  -1.17747   0.27821 
 C                     5.92421   1.1752   -0.28295 
 C                     3.81094  -0.00004  -0.00002 
 C                     4.53023   1.17744  -0.27837 
 H                     7.71655   0.00006  -0.00033 
 H                     3.99406  -2.09497   0.52794 
 H                     6.4663    2.09321  -0.51475 
 H                     3.99388   2.0949   -0.52801 
 C                     2.33372  -0.00006   0.00011 
 C                     1.60478   1.11928   0.45271 
 C                     1.60475  -1.11943  -0.45234 
 C                     0.21685   1.12577   0.44924 
 C                     0.21681  -1.12598  -0.44867 
 C                    -0.50492  -0.00011   0.00031 
 H                     2.14167   1.98573   0.84084 
 H                     2.1416   -1.98589  -0.84051 
 H                    -0.31569   1.9952    0.83819 
 H                    -0.31575  -1.99547  -0.83748 
 H                     6.46648  -2.09316   0.51427 
 C                    -1.94287  -0.00009   0.0004 
 C                    -3.14332  -0.70264  -0.00339 
 C                    -3.14313   0.7028    0.00392 
 N                    -3.78708  -1.85502   0.00167 
 N                    -3.78677   1.85525  -0.0011 
 C                    -3.06841  -3.12252   0.16773 
 H                    -3.18789  -3.74858  -0.7286 
 H                    -2.00579  -2.92761   0.34104 
 H                    -3.47116  -3.66355   1.03624 
 C                    -5.24512  -1.94416  -0.10028 
 H                    -5.50915  -2.714    -0.83867 
 H                    -5.68895  -2.21726   0.86911 
 H                    -5.65925  -0.98959  -0.43909 
 C                    -3.06805   3.12262  -0.16813 
 H                    -3.18812   3.7496    0.72746 
 H                    -2.0053    2.92754  -0.34053 
 H                    -3.47019   3.66271  -1.03751 
 C                    -5.24495   1.94423   0.09939 
 H                    -5.50954   2.71844   0.83295 
 H                    -5.68863   2.21126  -0.87177 
 H                    -5.65878   0.99164   0.44414 
 
 ITRead=  0  0  0  0  0  0  0  0  0  0  0  0  0  0  0  0  0  0  0  0
 ITRead=  0  0  0  0  0  0  0  0  0  0  0  0  0  0  0  0  0  0  0  0
 ITRead=  0  0
 MicOpt= -1 -1 -1 -1 -1 -1 -1 -1 -1 -1 -1 -1 -1 -1 -1 -1 -1 -1 -1 -1
 MicOpt= -1 -1 -1 -1 -1 -1 -1 -1 -1 -1 -1 -1 -1 -1 -1 -1 -1 -1 -1 -1
 MicOpt= -1 -1
 NAtoms=     42 NQM=       42 NQMF=       0 NMMI=      0 NMMIF=      0
                NMic=       0 NMicF=      0.
                    Isotopes and Nuclear Properties:
 (Nuclear quadrupole moments (NQMom) in fm**2, nuclear magnetic moments (NMagM)
  in nuclear magnetons)

  Atom         1           2           3           4           5           6           7           8           9          10
 IAtWgt=          12          12          12          12          12          12           1           1           1           1
 AtmWgt=  12.0000000  12.0000000  12.0000000  12.0000000  12.0000000  12.0000000   1.0078250   1.0078250   1.0078250   1.0078250
 NucSpn=           0           0           0           0           0           0           1           1           1           1
 AtZEff=  -0.0000000  -0.0000000  -0.0000000  -0.0000000  -0.0000000  -0.0000000  -0.0000000  -0.0000000  -0.0000000  -0.0000000
 NQMom=    0.0000000   0.0000000   0.0000000   0.0000000   0.0000000   0.0000000   0.0000000   0.0000000   0.0000000   0.0000000
 NMagM=    0.0000000   0.0000000   0.0000000   0.0000000   0.0000000   0.0000000   2.7928460   2.7928460   2.7928460   2.7928460
 AtZNuc=   6.0000000   6.0000000   6.0000000   6.0000000   6.0000000   6.0000000   1.0000000   1.0000000   1.0000000   1.0000000

  Atom        11          12          13          14          15          16          17          18          19          20
 IAtWgt=          12          12          12          12          12          12           1           1           1           1
 AtmWgt=  12.0000000  12.0000000  12.0000000  12.0000000  12.0000000  12.0000000   1.0078250   1.0078250   1.0078250   1.0078250
 NucSpn=           0           0           0           0           0           0           1           1           1           1
 AtZEff=  -0.0000000  -0.0000000  -0.0000000  -0.0000000  -0.0000000  -0.0000000  -0.0000000  -0.0000000  -0.0000000  -0.0000000
 NQMom=    0.0000000   0.0000000   0.0000000   0.0000000   0.0000000   0.0000000   0.0000000   0.0000000   0.0000000   0.0000000
 NMagM=    0.0000000   0.0000000   0.0000000   0.0000000   0.0000000   0.0000000   2.7928460   2.7928460   2.7928460   2.7928460
 AtZNuc=   6.0000000   6.0000000   6.0000000   6.0000000   6.0000000   6.0000000   1.0000000   1.0000000   1.0000000   1.0000000

  Atom        21          22          23          24          25          26          27          28          29          30
 IAtWgt=           1          12          12          12          14          14          12           1           1           1
 AtmWgt=   1.0078250  12.0000000  12.0000000  12.0000000  14.0030740  14.0030740  12.0000000   1.0078250   1.0078250   1.0078250
 NucSpn=           1           0           0           0           2           2           0           1           1           1
 AtZEff=  -0.0000000  -0.0000000  -0.0000000  -0.0000000  -0.0000000  -0.0000000  -0.0000000  -0.0000000  -0.0000000  -0.0000000
 NQMom=    0.0000000   0.0000000   0.0000000   0.0000000   2.0440000   2.0440000   0.0000000   0.0000000   0.0000000   0.0000000
 NMagM=    2.7928460   0.0000000   0.0000000   0.0000000   0.4037610   0.4037610   0.0000000   2.7928460   2.7928460   2.7928460
 AtZNuc=   1.0000000   6.0000000   6.0000000   6.0000000   7.0000000   7.0000000   6.0000000   1.0000000   1.0000000   1.0000000

  Atom        31          32          33          34          35          36          37          38          39          40
 IAtWgt=          12           1           1           1          12           1           1           1          12           1
 AtmWgt=  12.0000000   1.0078250   1.0078250   1.0078250  12.0000000   1.0078250   1.0078250   1.0078250  12.0000000   1.0078250
 NucSpn=           0           1           1           1           0           1           1           1           0           1
 AtZEff=  -0.0000000  -0.0000000  -0.0000000  -0.0000000  -0.0000000  -0.0000000  -0.0000000  -0.0000000  -0.0000000  -0.0000000
 NQMom=    0.0000000   0.0000000   0.0000000   0.0000000   0.0000000   0.0000000   0.0000000   0.0000000   0.0000000   0.0000000
 NMagM=    0.0000000   2.7928460   2.7928460   2.7928460   0.0000000   2.7928460   2.7928460   2.7928460   0.0000000   2.7928460
 AtZNuc=   6.0000000   1.0000000   1.0000000   1.0000000   6.0000000   1.0000000   1.0000000   1.0000000   6.0000000   1.0000000

  Atom        41          42
 IAtWgt=           1           1
 AtmWgt=   1.0078250   1.0078250
 NucSpn=           1           1
 AtZEff=  -0.0000000  -0.0000000
 NQMom=    0.0000000   0.0000000
 NMagM=    2.7928460   2.7928460
 AtZNuc=   1.0000000   1.0000000
 Leave Link  101 at Thu Jan 21 01:59:40 2021, MaxMem=  4026531840 cpu:               0.7 elap:               0.1
 (Enter /opt/ohpc/pub/libs/gaussian/g16-A.03/sandybridge/g16/l202.exe)
                          Input orientation:                          
 ---------------------------------------------------------------------
 Center     Atomic      Atomic             Coordinates (Angstroms)
 Number     Number       Type             X           Y           Z
 ---------------------------------------------------------------------
      1          6           0        5.924302   -1.175178    0.282560
      2          6           0        6.625626    0.000025   -0.000251
      3          6           0        4.530324   -1.177472    0.278212
      4          6           0        5.924206    1.175202   -0.282951
      5          6           0        3.810936   -0.000036   -0.000021
      6          6           0        4.530233    1.177435   -0.278371
      7          1           0        7.716547    0.000056   -0.000331
      8          1           0        3.994064   -2.094974    0.527939
      9          1           0        6.466302    2.093210   -0.514746
     10          1           0        3.993880    2.094904   -0.528010
     11          6           0        2.333716   -0.000062    0.000109
     12          6           0        1.604784    1.119278    0.452707
     13          6           0        1.604752   -1.119433   -0.452341
     14          6           0        0.216850    1.125770    0.449243
     15          6           0        0.216813   -1.125977   -0.448670
     16          6           0       -0.504919   -0.000106    0.000309
     17          1           0        2.141671    1.985727    0.840835
     18          1           0        2.141597   -1.985891   -0.840507
     19          1           0       -0.315693    1.995203    0.838189
     20          1           0       -0.315745   -1.995465   -0.837475
     21          1           0        6.466484   -2.093156    0.514265
     22          6           0       -1.942874   -0.000086    0.000402
     23          6           0       -3.143323   -0.702637   -0.003392
     24          6           0       -3.143127    0.702801    0.003915
     25          7           0       -3.787080   -1.855019    0.001668
     26          7           0       -3.786774    1.855252   -0.001097
     27          6           0       -3.068411   -3.122520    0.167733
     28          1           0       -3.187886   -3.748580   -0.728596
     29          1           0       -2.005788   -2.927607    0.341041
     30          1           0       -3.471162   -3.663551    1.036238
     31          6           0       -5.245121   -1.944160   -0.100275
     32          1           0       -5.509149   -2.713998   -0.838669
     33          1           0       -5.688951   -2.217262    0.869111
     34          1           0       -5.659251   -0.989594   -0.439085
     35          6           0       -3.068047    3.122616   -0.168130
     36          1           0       -3.188116    3.749602    0.727455
     37          1           0       -2.005304    2.927538   -0.340531
     38          1           0       -3.470192    3.662707   -1.037509
     39          6           0       -5.244950    1.944232    0.099391
     40          1           0       -5.509538    2.718440    0.832954
     41          1           0       -5.688631    2.211256   -0.871774
     42          1           0       -5.658779    0.991638    0.444142
 ---------------------------------------------------------------------
                    Distance matrix (angstroms):
                    1          2          3          4          5
     1  C    0.000000
     2  C    1.397476   0.000000
     3  C    1.393987   2.419573   0.000000
     4  C    2.417455   1.397480   2.791574   0.000000
     5  C    2.434569   2.814690   1.407582   2.434573   0.000000
     6  C    2.791569   2.419570   2.419788   1.393982   1.407588
     7  H    2.161792   1.090921   3.408251   2.161788   3.905611
     8  H    2.152221   3.404868   1.091672   3.882917   2.168189
     9  H    3.407612   2.161368   3.882545   1.091025   3.420174
    10  H    3.882910   3.404869   3.412655   2.152223   2.168182
    11  C    3.788533   4.291910   2.507733   3.788534   1.477220
    12  C    4.894049   5.163986   3.723479   4.381977   2.514942
    13  C    4.381974   5.163986   3.015965   4.894050   2.514934
    14  C    6.156066   6.522404   4.892876   5.754343   3.792985
    15  C    5.754350   6.522411   4.374630   6.156072   3.792987
    16  C    6.541815   7.130545   5.178522   6.541807   4.315855
    17  H    4.960977   4.975569   4.003503   4.028327   2.727039
    18  H    4.028324   4.975581   2.758820   4.960999   2.727037
    19  H    7.021223   7.270875   5.819220   6.392628   4.659683
    20  H    6.392616   7.270870   5.039668   7.021226   4.659674
    21  H    1.091023   2.161356   2.154742   3.407607   3.420172
    22  C    7.959454   8.568500   6.585265   7.959431   5.753810
    23  C    9.084431   9.794187   7.693480   9.264152   6.989662
    24  C    9.264055   9.794001   7.905221   9.084161   6.989491
    25  N    9.739200  10.576655   8.349536  10.177049   7.821177
    26  N   10.176884  10.576386   8.857175   9.738842   7.820952
    27  C    9.201859  10.185915   7.844501   9.977008   7.556683
    28  H    9.522437  10.530315   8.197257  10.366892   7.972823
    29  H    8.121623   9.120790   6.766659   8.950263   6.520834
    30  H    9.748578  10.790794   8.413024  10.650199   8.217307
    31  C   11.202406  12.029318   9.812767  11.598175   9.262928
    32  H   11.590898  12.462810  10.217600  12.089512   9.743352
    33  H   11.674657  12.542765  10.289019  12.153250   9.793842
    34  H   11.607494  12.332482  10.216519  11.785041   9.531865
    35  C    9.976798  10.185581   8.742152   9.201425   7.556429
    36  H   10.367620  10.530832   9.167998   9.522755   7.973439
    37  H    8.949814   9.120256   7.742634   8.121030   6.520375
    38  H   10.649142  10.789656   9.442813   9.747397   8.216258
    39  C   11.598123  12.029150  10.263186  11.202127   9.262782
    40  H   12.091149  12.463796  10.783538  11.591261   9.744496
    41  H   12.151569  12.541532  10.827418  11.673821   9.792423
    42  H   11.785116  12.332372  10.418752  11.607235   9.531852
                    6          7          8          9         10
     6  C    0.000000
     7  H    3.408244   0.000000
     8  H    3.412664   4.304079   0.000000
     9  H    2.154734   2.491792   4.973936   0.000000
    10  H    1.091670   4.304077   4.320892   2.472458   0.000000
    11  C    2.507735   5.382831   2.724705   4.661022   2.724690
    12  C    3.015976   6.229892   4.005713   5.051620   2.760694
    13  C    3.723481   6.229896   2.760696   5.827490   4.005699
    14  C    4.374627   7.597026   4.964547   6.396942   4.019975
    15  C    4.892883   7.597037   4.019993   7.030195   4.964535
    16  C    5.178515   8.221466   4.990763   7.296929   4.990729
    17  H    2.758838   5.977432   4.492370   4.533386   2.305718
    18  H    4.003525   5.977453   2.305684   5.953844   4.492382
    19  H    5.039687   8.318690   5.949774   6.916321   4.522042
    20  H    5.819226   8.318692   4.522025   7.925754   5.949769
    21  H    3.882539   2.491787   2.472458   4.310977   4.973927
    22  C    6.585240   9.659421   6.317759   8.681101   6.317693
    23  C    7.905299  10.882581   7.291310  10.021134   7.683822
    24  C    7.693206  10.882389   7.683856   9.723342   7.290937
    25  N    8.857307  11.652242   7.802611  10.999411   8.742184
    26  N    8.349187  11.651959   8.742174  10.268692   7.802157
    27  C    8.742312  11.229160   7.145919  10.889461   8.808038
    28  H    9.167207  11.553757   7.476209  11.286079   9.260902
    29  H    7.743036  10.159308   6.060234   9.885205   7.872540
    30  H    9.443816  11.817839   7.645155  11.588746   9.556858
    31  C   10.263217  13.107052   9.261746  12.394740  10.092380
    32  H   10.781761  13.527303   9.620908  12.908354  10.655027
    33  H   10.829238  13.615425   9.689795  12.970945  10.691302
    34  H   10.418610  13.419534   9.764399  12.511532  10.134346
    35  C    7.844090  11.228802   8.808017   9.596022   7.145384
    36  H    8.197600  11.554239   9.261889   9.873930   7.476315
    37  H    6.766090  10.158754   7.872248   8.514374   6.059590
    38  H    8.411877  11.816678   9.555974  10.073257   7.643950
    39  C    9.812486  13.106875  10.092483  11.728290   9.261334
    40  H   10.217962  13.528241  10.657412  12.067641   9.620602
    41  H   10.288153  13.614243  10.689125  12.160748   9.689310
    42  H   10.216287  13.419394  10.134672  12.212719   9.764021
                   11         12         13         14         15
    11  C    0.000000
    12  C    1.410358   0.000000
    13  C    1.410351   2.414734   0.000000
    14  C    2.439332   1.387954   2.789276   0.000000
    15  C    2.439337   2.789286   1.387959   2.424172   0.000000
    16  C    2.838635   2.430747   2.430740   1.410705   1.410697
    17  H    2.164962   1.090699   3.406260   2.144250   3.879511
    18  H    2.164962   3.406266   1.090699   3.879503   2.144244
    19  H    3.420940   2.145710   3.880017   1.091235   3.417797
    20  H    3.420939   3.880029   2.145709   3.417808   1.091236
    21  H    4.661027   5.827491   5.051624   7.030195   6.396958
    22  C    4.276590   3.747457   3.747474   2.476574   2.476599
    23  C    5.521918   5.106067   4.787430   3.852105   3.415846
    24  C    5.521761   4.787225   5.105983   3.415650   3.852072
    25  N    6.395703   6.174308   5.460683   5.011675   4.094565
    26  N    6.395513   5.460448   6.174214   4.094381   5.011662
    27  C    6.241860   6.317659   5.122041   5.377746   3.893435
    28  H    6.713456   6.932619   5.473400   6.061256   4.306783
    29  H    5.245765   5.424572   4.115209   4.624034   2.968075
    30  H    6.941997   6.998656   5.869694   6.073186   4.716502
    31  C    7.824856   7.524071   6.908320   6.289640   5.533853
    32  H    8.341434   8.183502   7.300649   7.013530   5.954876
    33  H    8.368651   8.031467   7.493301   6.799312   6.148618
    34  H    8.065952   7.616353   7.265175   6.308126   5.877654
    35  C    6.241672   5.121928   6.317500   3.893468   5.377690
    36  H    6.714137   5.474119   6.933326   4.307632   6.062020
    37  H    5.245376   4.114823   5.424295   2.967841   4.623903
    38  H    6.941028   5.869000   6.997595   4.716011   6.072251
    39  C    7.824725   6.908273   7.523887   5.533854   6.289468
    40  H    8.342692   7.301745   8.185009   5.956119   7.015212
    41  H    8.367088   7.492701   8.028876   6.148014   6.796353
    42  H    8.066016   7.264689   7.617033   5.877162   6.309040
                   16         17         18         19         20
    16  C    0.000000
    17  H    3.413862   0.000000
    18  H    3.413848   4.312848   0.000000
    19  H    2.172351   2.457384   4.970453   0.000000
    20  H    2.172355   4.970464   2.457363   4.328196   0.000000
    21  H    7.296949   5.953817   4.533383   7.925751   6.916312
    22  C    1.437955   4.618797   4.618815   2.707542   2.707605
    23  C    2.730337   5.989256   5.502534   3.997761   3.219052
    24  C    2.730244   5.502311   5.989192   3.218804   3.997833
    25  N    3.770051   7.113763   5.989624   5.251143   3.574081
    26  N    3.770004   5.989352   7.113689   3.573848   5.251247
    27  C    4.043389   7.327497   5.427030   5.849620   3.139724
    28  H    4.666977   7.984333   5.614533   6.610246   3.366669
    29  H    3.307411   6.449191   4.414033   5.228540   2.261423
    30  H    4.826238   7.965954   6.151405   6.482107   4.031125
    31  C    5.124351   8.419881   7.423832   6.379542   4.984460
    32  H    5.754252   9.134725   7.685314   7.208357   5.242875
    33  H    5.704804   8.887326   8.018342   6.827717   5.642072
    34  H    5.266810   8.446604   7.874451   6.252524   5.451931
    35  C    4.043438   5.426941   7.327300   3.139935   5.849610
    36  H    4.667826   5.615224   7.985000   3.367639   6.611000
    37  H    3.307329   4.413619   6.448918   2.261286   5.228530
    38  H    4.825568   6.150890   7.964775   4.031089   6.481162
    39  C    5.124272   7.423856   8.419641   4.984576   6.379341
    40  H    5.755867   7.686217   9.136250   5.243961   7.210182
    41  H    5.702764   8.018574   8.884227   5.642616   6.823898
    42  H    5.267145   7.873538   8.447595   5.450778   6.254066
                   21         22         23         24         25
    21  H    0.000000
    22  C    8.681146   0.000000
    23  C    9.723677   1.390924   0.000000
    24  C   10.021101   1.390924   1.405457   0.000000
    25  N   10.269130   2.615698   1.320012   2.637636   0.000000
    26  N   10.999310   2.615769   2.637580   1.320019   3.710272
    27  C    9.596557   3.323316   2.427082   3.829556   1.466500
    28  H    9.873803   4.016553   3.131402   4.511471   2.116103
    29  H    8.515028   2.947944   2.522521   3.819300   2.106803
    30  H   10.074493   4.102389   3.155205   4.498703   2.107351
    31  C   11.728664   3.833327   2.443015   3.381662   1.464316
    32  H   12.067794   4.559350   3.215648   4.240581   2.099889
    33  H   12.161247   4.438876   3.087972   3.969452   2.121507
    34  H   12.213115   3.870883   2.569449   3.064528   2.109087
    35  C   10.889317   3.323505   3.829539   2.427085   5.032166
    36  H   11.286920   4.017386   4.512048   3.131857   5.683071
    37  H    9.884798   2.948070   3.819283   2.522447   5.115142
    38  H   11.587730   4.101952   4.498052   3.154771   5.623665
    39  C   12.394769   3.833259   3.381319   2.442934   4.070533
    40  H   12.910388   4.561208   4.242902   3.217143   4.957260
    41  H   12.969036   4.436375   3.965281   3.085751   4.573116
    42  H   12.511709   3.871482   3.065677   2.570162   3.435476
                   26         27         28         29         30
    26  N    0.000000
    27  C    5.032173   0.000000
    28  H    5.682504   1.099832   0.000000
    29  H    5.115145   1.094164   1.793175   0.000000
    30  H    5.624310   1.099647   1.789445   1.781076   0.000000
    31  C    4.070890   2.489664   2.807656   3.413972   2.719356
    32  H    4.954407   2.671505   2.543765   3.702821   2.927511
    33  H    4.578309   2.859834   3.339600   3.788026   2.652974
    34  H    3.433825   3.410286   3.715302   4.208596   3.756908
    35  C    1.466520   6.254161   6.895058   6.163834   6.903989
    36  H    2.116067   6.895918   7.638247   6.792079   7.424978
    37  H    2.106810   6.163743   6.791145   5.894681   6.891058
    38  H    2.107432   6.903140   7.423092   6.890364   7.614098
    39  C    1.464340   5.514886   6.109434   5.855372   5.955773
    40  H    2.099679   6.365409   7.046336   6.663039   6.702694
    41  H    2.121763   6.032851   6.464818   6.437559   6.562853
    42  H    2.109140   4.869569   5.472686   5.358680   5.177551
                   31         32         33         34         35
    31  C    0.000000
    32  H    1.098903   0.000000
    33  H    1.100581   1.787621   0.000000
    34  H    1.094300   1.776448   1.794276   0.000000
    35  C    5.515113   6.361970   6.038154   4.868062   0.000000
    36  H    6.110264   7.044009   6.471299   5.470585   1.099818
    37  H    5.855560   6.659730   6.442162   5.357701   1.094166
    38  H    5.955312   6.697705   6.567505   5.176292   1.099654
    39  C    3.893515   4.759082   4.255307   3.011468   2.489792
    40  H    4.762423   5.683811   4.939094   3.923011   2.669533
    41  H    4.249635   4.928634   4.758409   3.230097   2.862368
    42  H    3.014368   3.924249   3.237059   2.169187   3.409961
                   36         37         38         39         40
    36  H    0.000000
    37  H    1.793161   0.000000
    38  H    1.789474   1.781053   0.000000
    39  C    2.807916   3.414049   2.719460   0.000000
    40  H    2.542327   3.701411   2.923902   1.098872   0.000000
    41  H    3.343145   3.789746   2.656247   1.100598   1.787570
    42  H    3.713598   4.208480   3.757634   1.094323   1.776314
                   41         42
    41  H    0.000000
    42  H    1.794434   0.000000
 Stoichiometry    C19H21N2(2+,2)
 Framework group  C1[X(C19H21N2)]
 Deg. of freedom   120
 Full point group                 C1      NOp   1
 Largest Abelian subgroup         C1      NOp   1
 Largest concise Abelian subgroup C1      NOp   1
                         Standard orientation:                         
 ---------------------------------------------------------------------
 Center     Atomic      Atomic             Coordinates (Angstroms)
 Number     Number       Type             X           Y           Z
 ---------------------------------------------------------------------
      1          6           0       -5.924302   -1.175178   -0.282560
      2          6           0       -6.625626    0.000025    0.000251
      3          6           0       -4.530324   -1.177472   -0.278212
      4          6           0       -5.924206    1.175202    0.282951
      5          6           0       -3.810936   -0.000036    0.000021
      6          6           0       -4.530233    1.177435    0.278371
      7          1           0       -7.716547    0.000056    0.000331
      8          1           0       -3.994064   -2.094974   -0.527939
      9          1           0       -6.466302    2.093210    0.514746
     10          1           0       -3.993880    2.094904    0.528010
     11          6           0       -2.333716   -0.000062   -0.000109
     12          6           0       -1.604784    1.119278   -0.452707
     13          6           0       -1.604752   -1.119433    0.452341
     14          6           0       -0.216850    1.125770   -0.449243
     15          6           0       -0.216813   -1.125977    0.448670
     16          6           0        0.504919   -0.000106   -0.000309
     17          1           0       -2.141671    1.985727   -0.840835
     18          1           0       -2.141597   -1.985891    0.840507
     19          1           0        0.315693    1.995203   -0.838189
     20          1           0        0.315745   -1.995465    0.837475
     21          1           0       -6.466484   -2.093156   -0.514265
     22          6           0        1.942874   -0.000086   -0.000402
     23          6           0        3.143323   -0.702637    0.003392
     24          6           0        3.143127    0.702801   -0.003915
     25          7           0        3.787080   -1.855019   -0.001668
     26          7           0        3.786774    1.855252    0.001097
     27          6           0        3.068411   -3.122520   -0.167733
     28          1           0        3.187886   -3.748580    0.728596
     29          1           0        2.005788   -2.927607   -0.341041
     30          1           0        3.471162   -3.663551   -1.036238
     31          6           0        5.245121   -1.944160    0.100275
     32          1           0        5.509149   -2.713998    0.838669
     33          1           0        5.688951   -2.217262   -0.869111
     34          1           0        5.659251   -0.989594    0.439085
     35          6           0        3.068047    3.122616    0.168130
     36          1           0        3.188116    3.749602   -0.727455
     37          1           0        2.005304    2.927538    0.340531
     38          1           0        3.470192    3.662707    1.037509
     39          6           0        5.244950    1.944232   -0.099391
     40          1           0        5.509538    2.718440   -0.832954
     41          1           0        5.688631    2.211256    0.871774
     42          1           0        5.658779    0.991638   -0.444142
 ---------------------------------------------------------------------
 Rotational constants (GHZ):           0.7037808           0.1205812           0.1040104
 Leave Link  202 at Thu Jan 21 01:59:40 2021, MaxMem=  4026531840 cpu:               0.1 elap:               0.0
 (Enter /opt/ohpc/pub/libs/gaussian/g16-A.03/sandybridge/g16/l301.exe)
 Standard basis: TZVP (5D, 7F)
 Ernie: Thresh=  0.10000D-02 Tol=  0.10000D-05 Strict=F.
 There are   546 symmetry adapted cartesian basis functions of A   symmetry.
 There are   525 symmetry adapted basis functions of A   symmetry.
   525 basis functions,   903 primitive gaussians,   546 cartesian basis functions
    74 alpha electrons       73 beta electrons
       nuclear repulsion energy      1487.4602048397 Hartrees.
 IExCor=33909 DFT=T Ex+Corr=LC-wHPBE ExCW=0 ScaHFX=  1.000000
 ScaDFX=  1.000000  1.000000  1.000000  1.000000 ScalE2=  1.000000  1.000000
 IRadAn=      5 IRanWt=     -1 IRanGd=            0 ICorTp=0 IEmpDi=  4
 HFx  wShort=  0.000000 wLong=  0.230500 cFull=  0.000000 cShort=  0.000000 cLong=  1.000000
 DFx  wShort=  0.000000 wLong=  0.230500 cFull=  0.000000 cShort=  1.000000 cLong=  0.000000
 NAtoms=   42 NActive=   42 NUniq=   42 SFac= 1.00D+00 NAtFMM=   60 NAOKFM=F Big=F
 Integral buffers will be    131072 words long.
 Raffenetti 2 integral format.
 Two-electron integral symmetry is turned on.
 Leave Link  301 at Thu Jan 21 01:59:40 2021, MaxMem=  4026531840 cpu:               0.4 elap:               0.1
 (Enter /opt/ohpc/pub/libs/gaussian/g16-A.03/sandybridge/g16/l302.exe)
 NPDir=0 NMtPBC=     1 NCelOv=     1 NCel=       1 NClECP=     1 NCelD=      1
         NCelK=      1 NCelE2=     1 NClLst=     1 CellRange=     0.0.
 One-electron integrals computed using PRISM.
 One-electron integral symmetry used in STVInt
 NBasis=   525 RedAO= T EigKep=  8.06D-06  NBF=   525
 NBsUse=   525 1.00D-06 EigRej= -1.00D+00 NBFU=   525
 Precomputing XC quadrature grid using
 IXCGrd= 4 IRadAn=           5 IRanWt=          -1 IRanGd=           0 AccXCQ= 0.00D+00.
 Generated NRdTot=       0 NPtTot=           0 NUsed=           0 NTot=          32
 NSgBfM=   523   523   523   523   523 MxSgAt=    42 MxSgA2=    42.
 Leave Link  302 at Thu Jan 21 01:59:41 2021, MaxMem=  4026531840 cpu:               6.9 elap:               0.9
 (Enter /opt/ohpc/pub/libs/gaussian/g16-A.03/sandybridge/g16/l303.exe)
 DipDrv:  MaxL=1.
 Leave Link  303 at Thu Jan 21 01:59:41 2021, MaxMem=  4026531840 cpu:               0.8 elap:               0.1
 (Enter /opt/ohpc/pub/libs/gaussian/g16-A.03/sandybridge/g16/l401.exe)
 ExpMin= 9.52D-02 ExpMax= 1.97D+04 ExpMxC= 6.73D+02 IAcc=3 IRadAn=         5 AccDes= 0.00D+00
 Harris functional with IExCor=33909 and IRadAn=       5 diagonalized for initial guess.
 HarFok:  IExCor=33909 AccDes= 0.00D+00 IRadAn=         5 IDoV= 1 UseB2=F ITyADJ=14
 ICtDFT=  3500011 ScaDFX=  1.000000  1.000000  1.000000  1.000000
 FoFCou: FMM=F IPFlag=           0 FMFlag=      100000 FMFlg1=           0
         NFxFlg=           0 DoJE=T BraDBF=F KetDBF=T FulRan=T
         wScrn=  0.000000 ICntrl=       500 IOpCl=  0 I1Cent=   200000004 NGrid=           0
         NMat0=    1 NMatS0=      1 NMatT0=    0 NMatD0=    1 NMtDS0=    0 NMtDT0=    0
 Petite list used in FoFCou.
 Harris En= -827.288340077222    
 JPrj=0 DoOrth=F DoCkMO=F.
 Initial guess <Sx>= 0.0000 <Sy>= 0.0000 <Sz>= 0.5000 <S**2>= 0.7500 S= 0.5000
 Leave Link  401 at Thu Jan 21 01:59:46 2021, MaxMem=  4026531840 cpu:              39.7 elap:               5.0
 (Enter /opt/ohpc/pub/libs/gaussian/g16-A.03/sandybridge/g16/l502.exe)
 Integral symmetry usage will be decided dynamically.
 UHF open shell SCF:
 Using DIIS extrapolation, IDIIS=    10.
 NGot=  4026531840 LenX=  4025925692 LenY=  4025627030
 Requested convergence on RMS density matrix=1.00D-06 within  32 cycles.
 Requested convergence on MAX density matrix=1.00D-04.
 Requested convergence on             energy=1.00D-04.
 Virtual orbitals will be shifted by   0.500 hartree.
 No special actions if energy rises.
 Dynamic level shift is on during FON iterations.

 Cycle   1  Pass 1  IDiag  1:
 FoFJK:  IHMeth= 1 ICntrl=       0 DoSepK=T KAlg= 0 I1Cent=           0 FoldK=F
 IRaf=         1 NMat=       1 IRICut=       1 DoRegI=T DoRafI=F ISym2E= 0 IDoP0=0 IntGTp=1.
 FoFCou: FMM=F IPFlag=           0 FMFlag=      100000 FMFlg1=           0
         NFxFlg=           0 DoJE=T BraDBF=F KetDBF=F FulRan=T
         wScrn=  0.000000 ICntrl=       500 IOpCl=  0 I1Cent=           0 NGrid=           0
         NMat0=    1 NMatS0=      1 NMatT0=    0 NMatD0=    1 NMtDS0=    0 NMtDT0=    0
 Symmetry not used in FoFCou.
 E= -844.673565071052    
 DIIS: error= 2.95D-02 at cycle   1 NSaved=   1.
 NSaved= 1 IEnMin= 1 EnMin= -844.673565071052     IErMin= 1 ErrMin= 2.95D-02
 ErrMax= 2.95D-02  0.00D+00 EMaxC= 1.00D+00 BMatC= 1.23D+00 BMatP= 1.23D+00
 IDIUse=1 WtCom= 1.00D+00 WtEn= 0.00D+00
 Coeff-Com:  0.100D+01
 Coeff:      0.100D+01
 Gap=     0.460 Goal=   None    Shift=    0.500
 T= 1485. Gap= 0.537 NK=0 IS=   75 IE=  525 IFin=   74
          NO(<0.9)=   0  NV(>0.1)=   0     74.00e < EF      0.00e >EF  Err=0.0D+00
 Gap=    -0.037 Goal=   None    Shift=    0.500
 T= 1485. Gap= 0.383 NK=0 IS=   74 IE=  525 IFin=   73
          NO(<0.9)=   0  NV(>0.1)=   0     73.00e < EF      0.00e >EF  Err=0.0D+00
 GapD=   -0.037 DampG=0.250 DampE=0.500 DampFc=0.1250 IDamp=-1.
 Damping current iteration by 1.25D-01
 RMSDP=3.01D-03 MaxDP=2.70D-01              OVMax= 1.03D-01

 Cycle   2  Pass 1  IDiag  1:
 E= -844.730384119001     Delta-E=       -0.056819047950 Rises=F Damp=T
 DIIS: error= 2.62D-02 at cycle   2 NSaved=   2.
 NSaved= 2 IEnMin= 2 EnMin= -844.730384119001     IErMin= 2 ErrMin= 2.62D-02
 ErrMax= 2.62D-02  0.00D+00 EMaxC= 1.00D+00 BMatC= 8.83D-01 BMatP= 1.23D+00
 IDIUse=1 WtCom= 1.00D+00 WtEn= 0.00D+00
 Coeff-Com: -0.518D+01 0.618D+01
 Coeff:     -0.518D+01 0.618D+01
 Gap=     0.196 Goal=   None    Shift=    0.500
 T= 1462. Gap= 0.687 NK=0 IS=   75 IE=  525 IFin=   74
          NO(<0.9)=   0  NV(>0.1)=   0     74.00e < EF      0.00e >EF  Err=0.0D+00
 Gap=     0.064 Goal=   None    Shift=    0.500
 T= 1462. Gap= 0.558 NK=0 IS=   74 IE=  525 IFin=   73
          NO(<0.9)=   0  NV(>0.1)=   0     73.00e < EF      0.00e >EF  Err=0.0D+00
 GapD=    0.064 DampG=0.500 DampE=0.500 DampFc=0.2500 IDamp=-1.
 Damping current iteration by 2.50D-01
 RMSDP=2.81D-03 MaxDP=2.37D-01 DE=-5.68D-02 OVMax= 4.05D-02

 Cycle   3  Pass 1  IDiag  1:
 E= -844.814767599520     Delta-E=       -0.084383480518 Rises=F Damp=T
 DIIS: error= 2.04D-02 at cycle   3 NSaved=   3.
 NSaved= 3 IEnMin= 3 EnMin= -844.814767599520     IErMin= 3 ErrMin= 2.04D-02
 ErrMax= 2.04D-02  0.00D+00 EMaxC= 1.00D+00 BMatC= 4.72D-01 BMatP= 8.83D-01
 IDIUse=1 WtCom= 1.00D+00 WtEn= 0.00D+00
 Coeff-Com:  0.240D+00-0.307D+01 0.383D+01
 Coeff:      0.240D+00-0.307D+01 0.383D+01
 Gap=     0.219 Goal=   None    Shift=    0.500
 T= 1395. Gap= 0.718 NK=0 IS=   75 IE=  525 IFin=   74
          NO(<0.9)=   0  NV(>0.1)=   0     74.00e < EF      0.00e >EF  Err=0.0D+00
 Gap=     0.083 Goal=   None    Shift=    0.500
 T= 1395. Gap= 0.584 NK=0 IS=   74 IE=  525 IFin=   73
          NO(<0.9)=   0  NV(>0.1)=   0     73.00e < EF      0.00e >EF  Err=0.0D+00
 GapD=    0.083 DampG=0.500 DampE=0.500 DampFc=0.2500 IDamp=-1.
 Damping current iteration by 2.50D-01
 RMSDP=2.04D-03 MaxDP=1.56D-01 DE=-8.44D-02 OVMax= 3.30D-02

 Cycle   4  Pass 1  IDiag  1:
 E= -844.869419777169     Delta-E=       -0.054652177649 Rises=F Damp=T
 DIIS: error= 1.59D-02 at cycle   4 NSaved=   4.
 NSaved= 4 IEnMin= 4 EnMin= -844.869419777169     IErMin= 4 ErrMin= 1.59D-02
 ErrMax= 1.59D-02  0.00D+00 EMaxC= 1.00D+00 BMatC= 2.59D-01 BMatP= 4.72D-01
 IDIUse=1 WtCom= 1.00D+00 WtEn= 0.00D+00
 Coeff-Com:  0.661D+00-0.911D+00-0.284D+01 0.409D+01
 Coeff:      0.661D+00-0.911D+00-0.284D+01 0.409D+01
 Gap=     0.226 Goal=   None    Shift=    0.500
 T= 1277. Gap= 0.726 NK=0 IS=   75 IE=  525 IFin=   74
          NO(<0.9)=   0  NV(>0.1)=   0     74.00e < EF      0.00e >EF  Err=0.0D+00
 Gap=     0.095 Goal=   None    Shift=    0.500
 T= 1277. Gap= 0.596 NK=0 IS=   74 IE=  525 IFin=   73
          NO(<0.9)=   0  NV(>0.1)=   0     73.00e < EF      0.00e >EF  Err=0.0D+00
 GapD=    0.095 DampG=0.500 DampE=0.500 DampFc=0.2500 IDamp=-1.
 Damping current iteration by 2.50D-01
 RMSDP=1.52D-03 MaxDP=9.99D-02 DE=-5.47D-02 OVMax= 3.06D-02

 Cycle   5  Pass 1  IDiag  1:
 E= -844.906437220981     Delta-E=       -0.037017443812 Rises=F Damp=T
 DIIS: error= 1.24D-02 at cycle   5 NSaved=   5.
 NSaved= 5 IEnMin= 5 EnMin= -844.906437220981     IErMin= 5 ErrMin= 1.24D-02
 ErrMax= 1.24D-02  0.00D+00 EMaxC= 1.00D+00 BMatC= 1.44D-01 BMatP= 2.59D-01
 IDIUse=1 WtCom= 1.00D+00 WtEn= 0.00D+00
 Coeff-Com: -0.632D-01 0.824D+00 0.420D+00-0.713D+01 0.695D+01
 Coeff:     -0.632D-01 0.824D+00 0.420D+00-0.713D+01 0.695D+01
 Gap=     0.238 Goal=   None    Shift=    0.500
 T= 1127. Gap= 0.738 NK=4 IS=   75 IE=   88 IFin=   74
          NO(<0.9)=   0  NV(>0.1)=   0     74.00e < EF      0.00e >EF  Err=0.0D+00
 Gap=     0.105 Goal=   None    Shift=    0.500
 T= 1127. Gap= 0.607 NK=4 IS=   74 IE=   87 IFin=   73
          NO(<0.9)=   0  NV(>0.1)=   0     73.00e < EF      0.00e >EF  Err=0.0D+00
 GapD=    0.105 DampG=1.000 DampE=0.500 DampFc=0.5000 IDamp=-1.
 Damping current iteration by 5.00D-01
 RMSDP=1.12D-03 MaxDP=5.96D-02 DE=-3.70D-02 OVMax= 3.23D-02

 Cycle   6  Pass 1  IDiag  1:
 E= -844.956542278366     Delta-E=       -0.050105057386 Rises=F Damp=T
 DIIS: error= 8.86D-03 at cycle   6 NSaved=   6.
 NSaved= 6 IEnMin= 6 EnMin= -844.956542278366     IErMin= 6 ErrMin= 8.86D-03
 ErrMax= 8.86D-03  0.00D+00 EMaxC= 1.00D+00 BMatC= 3.68D-02 BMatP= 1.44D-01
 IDIUse=1 WtCom= 1.00D+00 WtEn= 0.00D+00
 Coeff-Com: -0.346D+00 0.526D+00 0.147D+01-0.620D+00-0.420D+01 0.418D+01
 Coeff:     -0.346D+00 0.526D+00 0.147D+01-0.620D+00-0.420D+01 0.418D+01
 Gap=     0.244 Goal=   None    Shift=    0.500
 T=  964. Gap= 0.744 NK=4 IS=   75 IE=   88 IFin=   74
          NO(<0.9)=   0  NV(>0.1)=   0     74.00e < EF      0.00e >EF  Err=0.0D+00
 Gap=     0.113 Goal=   None    Shift=    0.500
 T=  964. Gap= 0.615 NK=4 IS=   74 IE=   87 IFin=   73
          NO(<0.9)=   0  NV(>0.1)=   0     73.00e < EF      0.00e >EF  Err=0.0D+00
 GapD=    0.113 DampG=1.000 DampE=1.000 DampFc=1.0000 IDamp=-1.
 RMSDP=5.77D-04 MaxDP=2.09D-02 DE=-5.01D-02 OVMax= 3.43D-02

 Cycle   7  Pass 1  IDiag  1:
 E= -845.002323620784     Delta-E=       -0.045781342417 Rises=F Damp=F
 DIIS: error= 4.89D-03 at cycle   7 NSaved=   7.
 NSaved= 7 IEnMin= 7 EnMin= -845.002323620784     IErMin= 7 ErrMin= 4.89D-03
 ErrMax= 4.89D-03  0.00D+00 EMaxC= 1.00D+00 BMatC= 8.67D-04 BMatP= 3.68D-02
 IDIUse=1 WtCom= 1.00D+00 WtEn= 0.00D+00
 Coeff-Com: -0.152D+00 0.678D-01 0.255D+00 0.240D+01-0.350D+01 0.162D+00
 Coeff-Com:  0.177D+01
 Coeff:     -0.152D+00 0.678D-01 0.255D+00 0.240D+01-0.350D+01 0.162D+00
 Coeff:      0.177D+01
 Gap=     0.248 Goal=   None    Shift=    0.500
 T=  753. Gap= 0.748 NK=4 IS=   75 IE=   88 IFin=   74
          NO(<0.9)=   0  NV(>0.1)=   0     74.00e < EF      0.00e >EF  Err=0.0D+00
 Gap=     0.117 Goal=   None    Shift=    0.500
 T=  753. Gap= 0.619 NK=4 IS=   74 IE=   87 IFin=   73
          NO(<0.9)=   0  NV(>0.1)=   0     73.00e < EF      0.00e >EF  Err=0.0D+00
 GapD=    0.117 DampG=1.000 DampE=1.000 DampFc=1.0000 IDamp=-1.
 RMSDP=1.51D-04 MaxDP=1.12D-02 DE=-4.58D-02 OVMax= 3.35D-02

 Cycle   8  Pass 1  IDiag  1:
 E= -845.004022968014     Delta-E=       -0.001699347231 Rises=F Damp=F
 DIIS: error= 4.45D-03 at cycle   8 NSaved=   8.
 NSaved= 8 IEnMin= 8 EnMin= -845.004022968014     IErMin= 8 ErrMin= 4.45D-03
 ErrMax= 4.45D-03  0.00D+00 EMaxC= 1.00D+00 BMatC= 6.90D-04 BMatP= 8.67D-04
 IDIUse=1 WtCom= 1.00D+00 WtEn= 0.00D+00
 Coeff-Com: -0.212D-01 0.345D-01-0.480D+00 0.117D+01 0.232D+00-0.195D+01
 Coeff-Com: -0.127D+00 0.214D+01
 Coeff:     -0.212D-01 0.345D-01-0.480D+00 0.117D+01 0.232D+00-0.195D+01
 Coeff:     -0.127D+00 0.214D+01
 Gap=     0.255 Goal=   None    Shift=    0.500
 T=  537. Gap= 0.755 NK=4 IS=   75 IE=   87 IFin=   74
          NO(<0.9)=   0  NV(>0.1)=   0     74.00e < EF      0.00e >EF  Err=0.0D+00
 Gap=     0.124 Goal=   None    Shift=    0.500
 T=  537. Gap= 0.626 NK=4 IS=   74 IE=   87 IFin=   73
          NO(<0.9)=   0  NV(>0.1)=   0     73.00e < EF      0.00e >EF  Err=0.0D+00
 GapD=    0.124 DampG=1.000 DampE=1.000 DampFc=1.0000 IDamp=-1.
 RMSDP=1.69D-04 MaxDP=1.21D-02 DE=-1.70D-03 OVMax= 3.53D-02

 Cycle   9  Pass 1  IDiag  1:
 E= -845.005561563892     Delta-E=       -0.001538595878 Rises=F Damp=F
 DIIS: error= 4.16D-03 at cycle   9 NSaved=   9.
 NSaved= 9 IEnMin= 9 EnMin= -845.005561563892     IErMin= 9 ErrMin= 4.16D-03
 ErrMax= 4.16D-03  0.00D+00 EMaxC= 1.00D+00 BMatC= 6.25D-04 BMatP= 6.90D-04
 IDIUse=1 WtCom= 1.00D+00 WtEn= 0.00D+00
 Coeff-Com: -0.265D-01 0.454D-01-0.456D+00 0.109D+01 0.241D+00-0.185D+01
 Coeff-Com: -0.132D+00 0.196D+01 0.135D+00
 Coeff:     -0.265D-01 0.454D-01-0.456D+00 0.109D+01 0.241D+00-0.185D+01
 Coeff:     -0.132D+00 0.196D+01 0.135D+00
 Gap=     0.255 Goal=   None    Shift=    0.500
 T=  358. Gap= 0.755 NK=4 IS=   75 IE=   87 IFin=   74
          NO(<0.9)=   0  NV(>0.1)=   0     74.00e < EF      0.00e >EF  Err=0.0D+00
 Gap=     0.127 Goal=   None    Shift=    0.500
 T=  358. Gap= 0.628 NK=4 IS=   74 IE=   87 IFin=   73
          NO(<0.9)=   0  NV(>0.1)=   0     73.00e < EF      0.00e >EF  Err=0.0D+00
 GapD=    0.127 DampG=1.000 DampE=1.000 DampFc=1.0000 IDamp=-1.
 RMSDP=8.69D-05 MaxDP=7.03D-03 DE=-1.54D-03 OVMax= 2.77D-02

 Cycle  10  Pass 1  IDiag  1:
 E= -845.006621569389     Delta-E=       -0.001060005497 Rises=F Damp=F
 DIIS: error= 3.72D-03 at cycle  10 NSaved=  10.
 NSaved=10 IEnMin=10 EnMin= -845.006621569389     IErMin=10 ErrMin= 3.72D-03
 ErrMax= 3.72D-03  0.00D+00 EMaxC= 1.00D+00 BMatC= 5.03D-04 BMatP= 6.25D-04
 IDIUse=1 WtCom= 1.00D+00 WtEn= 0.00D+00
 Coeff-Com: -0.285D-02-0.125D+00 0.174D+00 0.905D+00-0.984D+00-0.452D+00
 Coeff-Com:  0.924D+00-0.533D+00-0.172D+01 0.282D+01
 Coeff:     -0.285D-02-0.125D+00 0.174D+00 0.905D+00-0.984D+00-0.452D+00
 Coeff:      0.924D+00-0.533D+00-0.172D+01 0.282D+01
 Gap=     0.261 Goal=   None    Shift=    0.500
 T=  303. Gap= 0.761 NK=4 IS=   75 IE=   87 IFin=   74
          NO(<0.9)=   0  NV(>0.1)=   0     74.00e < EF      0.00e >EF  Err=0.0D+00
 Gap=     0.131 Goal=   None    Shift=    0.500
 T=  303. Gap= 0.632 NK=4 IS=   74 IE=   87 IFin=   73
          NO(<0.9)=   0  NV(>0.1)=   0     73.00e < EF      0.00e >EF  Err=0.0D+00
 GapD=    0.131 DampG=1.000 DampE=1.000 DampFc=1.0000 IDamp=-1.
 RMSDP=1.20D-04 MaxDP=9.17D-03 DE=-1.06D-03 OVMax= 3.10D-02

 Cycle  11  Pass 1  IDiag  1:
 E= -845.007686040827     Delta-E=       -0.001064471438 Rises=F Damp=F
 DIIS: error= 3.54D-03 at cycle  11 NSaved=  11.
 NSaved=11 IEnMin=11 EnMin= -845.007686040827     IErMin=11 ErrMin= 3.54D-03
 ErrMax= 3.54D-03  0.00D+00 EMaxC= 1.00D+00 BMatC= 5.11D-04 BMatP= 5.03D-04
 IDIUse=1 WtCom= 1.00D+00 WtEn= 0.00D+00
 Coeff-Com: -0.305D-01-0.229D+00 0.570D+00 0.189D+01-0.350D+01 0.118D+01
 Coeff-Com:  0.231D+01-0.202D+01-0.424D+01 0.297D+01 0.209D+01
 Coeff:     -0.305D-01-0.229D+00 0.570D+00 0.189D+01-0.350D+01 0.118D+01
 Coeff:      0.231D+01-0.202D+01-0.424D+01 0.297D+01 0.209D+01
 Gap=     0.266 Goal=   None    Shift=    0.500
 T=  257. Gap= 0.766 NK=4 IS=   75 IE=   85 IFin=   74
          NO(<0.9)=   0  NV(>0.1)=   0     74.00e < EF      0.00e >EF  Err=0.0D+00
 Gap=     0.133 Goal=   None    Shift=    0.500
 T=  257. Gap= 0.635 NK=4 IS=   74 IE=   87 IFin=   73
          NO(<0.9)=   0  NV(>0.1)=   0     73.00e < EF      0.00e >EF  Err=0.0D+00
 GapD=    0.133 DampG=1.000 DampE=1.000 DampFc=1.0000 IDamp=-1.
 RMSDP=1.48D-04 MaxDP=1.21D-02 DE=-1.06D-03 OVMax= 3.57D-02

 Cycle  12  Pass 1  IDiag  1:
 E= -845.008800797858     Delta-E=       -0.001114757030 Rises=F Damp=F
 DIIS: error= 3.42D-03 at cycle  12 NSaved=  12.
 NSaved=12 IEnMin=12 EnMin= -845.008800797858     IErMin=12 ErrMin= 3.42D-03
 ErrMax= 3.42D-03  0.00D+00 EMaxC= 1.00D+00 BMatC= 5.66D-04 BMatP= 5.03D-04
 IDIUse=1 WtCom= 1.00D+00 WtEn= 0.00D+00
 Coeff-Com: -0.403D-01-0.135D+00-0.279D-01 0.276D+01-0.347D+01 0.533D+00
 Coeff-Com:  0.165D+01 0.919D+00-0.613D+01 0.284D+01-0.508D+00 0.260D+01
 Coeff:     -0.403D-01-0.135D+00-0.279D-01 0.276D+01-0.347D+01 0.533D+00
 Coeff:      0.165D+01 0.919D+00-0.613D+01 0.284D+01-0.508D+00 0.260D+01
 Gap=     0.270 Goal=   None    Shift=    0.500
 T=  217. Gap= 0.770 NK=4 IS=   75 IE=   85 IFin=   74
          NO(<0.9)=   0  NV(>0.1)=   0     74.00e < EF      0.00e >EF  Err=0.0D+00
 Gap=     0.136 Goal=   None    Shift=    0.500
 T=  217. Gap= 0.638 NK=4 IS=   74 IE=   87 IFin=   73
          NO(<0.9)=   0  NV(>0.1)=   0     73.00e < EF      0.00e >EF  Err=0.0D+00
 GapD=    0.136 DampG=1.000 DampE=1.000 DampFc=1.0000 IDamp=-1.
 RMSDP=1.56D-04 MaxDP=1.15D-02 DE=-1.11D-03 OVMax= 3.88D-02

 Cycle  13  Pass 1  IDiag  1:
 E= -845.009896822910     Delta-E=       -0.001096025052 Rises=F Damp=F
 DIIS: error= 3.29D-03 at cycle  13 NSaved=  13.
 NSaved=13 IEnMin=13 EnMin= -845.009896822910     IErMin=13 ErrMin= 3.29D-03
 ErrMax= 3.29D-03  0.00D+00 EMaxC= 1.00D+00 BMatC= 6.54D-04 BMatP= 5.03D-04
 IDIUse=1 WtCom= 1.00D+00 WtEn= 0.00D+00
 Coeff-Com: -0.282D-01-0.105D+00 0.199D-01 0.210D+01-0.260D+01 0.173D+00
 Coeff-Com:  0.125D+01 0.143D+01-0.593D+01 0.337D+01-0.259D+00-0.414D+00
 Coeff-Com:  0.199D+01
 Coeff:     -0.282D-01-0.105D+00 0.199D-01 0.210D+01-0.260D+01 0.173D+00
 Coeff:      0.125D+01 0.143D+01-0.593D+01 0.337D+01-0.259D+00-0.414D+00
 Coeff:      0.199D+01
 Gap=     0.272 Goal=   None    Shift=    0.500
 T=  192. Gap= 0.772 NK=4 IS=   75 IE=   85 IFin=   74
          NO(<0.9)=   0  NV(>0.1)=   0     74.00e < EF      0.00e >EF  Err=0.0D+00
 Gap=     0.140 Goal=   None    Shift=    0.500
 T=  192. Gap= 0.641 NK=4 IS=   74 IE=   87 IFin=   73
          NO(<0.9)=   0  NV(>0.1)=   0     73.00e < EF      0.00e >EF  Err=0.0D+00
 GapD=    0.140 DampG=1.000 DampE=1.000 DampFc=1.0000 IDamp=-1.
 RMSDP=1.16D-04 MaxDP=8.25D-03 DE=-1.10D-03 OVMax= 3.44D-02

 Cycle  14  Pass 1  IDiag  1:
 E= -845.010805019515     Delta-E=       -0.000908196606 Rises=F Damp=F
 DIIS: error= 3.03D-03 at cycle  14 NSaved=  14.
 NSaved=14 IEnMin=14 EnMin= -845.010805019515     IErMin=14 ErrMin= 3.03D-03
 ErrMax= 3.03D-03  0.00D+00 EMaxC= 1.00D+00 BMatC= 5.88D-04 BMatP= 5.03D-04
 IDIUse=1 WtCom= 1.00D+00 WtEn= 0.00D+00
 Coeff-Com: -0.128D-02-0.142D+00 0.276D+00 0.120D+01-0.173D+01-0.332D-01
 Coeff-Com:  0.123D+01 0.252D+00-0.336D+01 0.267D+01 0.129D+01-0.345D+01
 Coeff-Com: -0.506D+00 0.331D+01
 Coeff:     -0.128D-02-0.142D+00 0.276D+00 0.120D+01-0.173D+01-0.332D-01
 Coeff:      0.123D+01 0.252D+00-0.336D+01 0.267D+01 0.129D+01-0.345D+01
 Coeff:     -0.506D+00 0.331D+01
 Gap=     0.275 Goal=   None    Shift=    0.500
 T=  161. Gap= 0.775 NK=4 IS=   75 IE=   86 IFin=   74
          NO(<0.9)=   0  NV(>0.1)=   0     74.00e < EF      0.00e >EF  Err=0.0D+00
 Gap=     0.141 Goal=   None    Shift=    0.500
 T=  161. Gap= 0.643 NK=4 IS=   74 IE=   87 IFin=   73
          NO(<0.9)=   0  NV(>0.1)=   0     73.00e < EF      0.00e >EF  Err=0.0D+00
 GapD=    0.141 DampG=1.000 DampE=1.000 DampFc=1.0000 IDamp=-1.
 RMSDP=1.36D-04 MaxDP=8.62D-03 DE=-9.08D-04 OVMax= 3.65D-02

 Cycle  15  Pass 1  IDiag  1:
 E= -845.011663482628     Delta-E=       -0.000858463112 Rises=F Damp=F
 DIIS: error= 2.84D-03 at cycle  15 NSaved=  15.
 NSaved=15 IEnMin=15 EnMin= -845.011663482628     IErMin=15 ErrMin= 2.84D-03
 ErrMax= 2.84D-03  0.00D+00 EMaxC= 1.00D+00 BMatC= 6.32D-04 BMatP= 5.03D-04
 IDIUse=1 WtCom= 1.00D+00 WtEn= 0.00D+00
 Coeff-Com: -0.809D-02-0.134D+00 0.320D+00 0.113D+01-0.179D+01 0.107D+00
 Coeff-Com:  0.122D+01-0.393D+00-0.236D+01 0.224D+01 0.184D+01-0.295D+01
 Coeff-Com: -0.216D+01 0.266D+01 0.128D+01
 Coeff:     -0.809D-02-0.134D+00 0.320D+00 0.113D+01-0.179D+01 0.107D+00
 Coeff:      0.122D+01-0.393D+00-0.236D+01 0.224D+01 0.184D+01-0.295D+01
 Coeff:     -0.216D+01 0.266D+01 0.128D+01
 Gap=     0.275 Goal=   None    Shift=    0.500
 T=  125. Gap= 0.775 NK=4 IS=   75 IE=   86 IFin=   74
          NO(<0.9)=   0  NV(>0.1)=   0     74.00e < EF      0.00e >EF  Err=0.0D+00
 Gap=     0.143 Goal=   None    Shift=    0.500
 T=  125. Gap= 0.645 NK=4 IS=   74 IE=   87 IFin=   73
          NO(<0.9)=   0  NV(>0.1)=   0     73.00e < EF      0.00e >EF  Err=0.0D+00
 GapD=    0.143 DampG=1.000 DampE=1.000 DampFc=1.0000 IDamp=-1.
 RMSDP=9.65D-05 MaxDP=6.16D-03 DE=-8.58D-04 OVMax= 3.15D-02

 Cycle  16  Pass 1  IDiag  1:
 E= -845.012366367199     Delta-E=       -0.000702884572 Rises=F Damp=F
 DIIS: error= 2.56D-03 at cycle  16 NSaved=  16.
 NSaved=16 IEnMin=16 EnMin= -845.012366367199     IErMin=16 ErrMin= 2.56D-03
 ErrMax= 2.56D-03  0.00D+00 EMaxC= 1.00D+00 BMatC= 5.11D-04 BMatP= 5.03D-04
 IDIUse=1 WtCom= 1.00D+00 WtEn= 0.00D+00
 Coeff-Com: -0.275D-01-0.111D+00-0.315D-01 0.219D+01-0.283D+01 0.618D+00
 Coeff-Com:  0.130D+01-0.812D+00-0.154D+01 0.154D+00 0.944D+00 0.293D+01
 Coeff-Com: -0.352D+01-0.876D+00-0.212D+01 0.473D+01
 Coeff:     -0.275D-01-0.111D+00-0.315D-01 0.219D+01-0.283D+01 0.618D+00
 Coeff:      0.130D+01-0.812D+00-0.154D+01 0.154D+00 0.944D+00 0.293D+01
 Coeff:     -0.352D+01-0.876D+00-0.212D+01 0.473D+01
 Gap=     0.279 Goal=   None    Shift=    0.500
 T=   75. Gap= 0.777 NK=4 IS=   75 IE=   86 IFin=   74
          NO(<0.9)=   0  NV(>0.1)=   0     74.00e < EF      0.00e >EF  Err=0.0D+00
 Gap=     0.144 Goal=   None    Shift=    0.500
 T=   75. Gap= 0.646 NK=4 IS=   74 IE=   85 IFin=   73
          NO(<0.9)=   0  NV(>0.1)=   0     73.00e < EF      0.00e >EF  Err=0.0D+00
 GapD=    0.144 DampG=1.000 DampE=1.000 DampFc=1.0000 IDamp=-1.
 RMSDP=1.71D-04 MaxDP=1.13D-02 DE=-7.03D-04 OVMax= 4.04D-02

 Cycle  17  Pass 1  IDiag  1:
 E= -845.013077840888     Delta-E=       -0.000711473689 Rises=F Damp=F
 DIIS: error= 2.51D-03 at cycle  17 NSaved=  17.
 NSaved=17 IEnMin=17 EnMin= -845.013077840888     IErMin=17 ErrMin= 2.51D-03
 ErrMax= 2.51D-03  0.00D+00 EMaxC= 1.00D+00 BMatC= 7.68D-04 BMatP= 5.03D-04
 IDIUse=1 WtCom= 1.00D+00 WtEn= 0.00D+00
 Coeff-Com: -0.255D-01-0.111D+00-0.279D-01 0.211D+01-0.272D+01 0.590D+00
 Coeff-Com:  0.118D+01-0.480D+00-0.201D+01 0.413D+00 0.822D+00 0.279D+01
 Coeff-Com: -0.271D+01-0.851D+00-0.311D+01 0.472D+01 0.419D+00
 Coeff:     -0.255D-01-0.111D+00-0.279D-01 0.211D+01-0.272D+01 0.590D+00
 Coeff:      0.118D+01-0.480D+00-0.201D+01 0.413D+00 0.822D+00 0.279D+01
 Coeff:     -0.271D+01-0.851D+00-0.311D+01 0.472D+01 0.419D+00
 Gap=     0.277 Goal=   None    Shift=    0.500
 T=   37. Gap= 0.777 NK=4 IS=   75 IE=   86 IFin=   74
          NO(<0.9)=   0  NV(>0.1)=   0     74.00e < EF      0.00e >EF  Err=0.0D+00
 Gap=     0.147 Goal=   None    Shift=    0.500
 T=   37. Gap= 0.649 NK=4 IS=   74 IE=   85 IFin=   73
          NO(<0.9)=   0  NV(>0.1)=   0     73.00e < EF      0.00e >EF  Err=0.0D+00
 GapD=    0.147 DampG=1.000 DampE=1.000 DampFc=1.0000 IDamp=-1.
 RMSDP=9.46D-05 MaxDP=5.95D-03 DE=-7.11D-04 OVMax= 3.20D-02

 Cycle  18  Pass 1  IDiag  1:
 E= -845.013651365239     Delta-E=       -0.000573524350 Rises=F Damp=F
 DIIS: error= 2.22D-03 at cycle  18 NSaved=  18.
 NSaved=18 IEnMin=18 EnMin= -845.013651365239     IErMin=18 ErrMin= 2.22D-03
 ErrMax= 2.22D-03  0.00D+00 EMaxC= 1.00D+00 BMatC= 6.11D-04 BMatP= 5.03D-04
 IDIUse=1 WtCom= 1.00D+00 WtEn= 0.00D+00
 Coeff-Com:  0.180D-03-0.855D-01 0.155D-01 0.106D+01-0.121D+01-0.449D-01
 Coeff-Com:  0.587D+00 0.751D+00-0.229D+01 0.650D+00-0.774D-01 0.105D+01
 Coeff-Com:  0.944D+00-0.135D+01-0.841D+00 0.140D+01-0.440D+01 0.485D+01
 Coeff:      0.180D-03-0.855D-01 0.155D-01 0.106D+01-0.121D+01-0.449D-01
 Coeff:      0.587D+00 0.751D+00-0.229D+01 0.650D+00-0.774D-01 0.105D+01
 Coeff:      0.944D+00-0.135D+01-0.841D+00 0.140D+01-0.440D+01 0.485D+01
 Gap=     0.277 Goal=   None    Shift=    0.500
 Gap=     0.147 Goal=   None    Shift=    0.500
 GapD=    0.147 DampG=1.000 DampE=1.000 DampFc=1.0000 IDamp=-1.
 RMSDP=1.04D-04 MaxDP=6.77D-03 DE=-5.74D-04 OVMax= 3.14D-02

 Cycle  19  Pass 1  IDiag  1:
 E= -845.014131429240     Delta-E=       -0.000480064001 Rises=F Damp=F
 DIIS: error= 1.99D-03 at cycle  19 NSaved=  19.
 NSaved=19 IEnMin=19 EnMin= -845.014131429240     IErMin=19 ErrMin= 1.99D-03
 ErrMax= 1.99D-03  0.00D+00 EMaxC= 1.00D+00 BMatC= 5.60D-04 BMatP= 5.03D-04
 IDIUse=1 WtCom= 1.00D+00 WtEn= 0.00D+00
 Coeff-Com:  0.345D-03-0.795D-01 0.947D-01 0.811D+00-0.109D+01 0.411D-01
 Coeff-Com:  0.573D+00 0.259D+00-0.130D+01 0.227D+00 0.289D+00 0.410D+00
 Coeff-Com: -0.154D+00-0.468D+00 0.994D+00 0.690D+00-0.493D+01 0.288D+01
 Coeff-Com:  0.175D+01
 Coeff:      0.345D-03-0.795D-01 0.947D-01 0.811D+00-0.109D+01 0.411D-01
 Coeff:      0.573D+00 0.259D+00-0.130D+01 0.227D+00 0.289D+00 0.410D+00
 Coeff:     -0.154D+00-0.468D+00 0.994D+00 0.690D+00-0.493D+01 0.288D+01
 Coeff:      0.175D+01
 Gap=     0.277 Goal=   None    Shift=    0.500
 Gap=     0.148 Goal=   None    Shift=    0.500
 GapD=    0.148 DampG=1.000 DampE=1.000 DampFc=1.0000 IDamp=-1.
 RMSDP=7.46D-05 MaxDP=4.25D-03 DE=-4.80D-04 OVMax= 2.64D-02

 Cycle  20  Pass 1  IDiag  1:
 E= -845.014515725445     Delta-E=       -0.000384296205 Rises=F Damp=F
 DIIS: error= 1.73D-03 at cycle  20 NSaved=  20.
 NSaved=20 IEnMin=20 EnMin= -845.014515725445     IErMin=20 ErrMin= 1.73D-03
 ErrMax= 1.73D-03  0.00D+00 EMaxC= 1.00D+00 BMatC= 4.22D-04 BMatP= 5.03D-04
 IDIUse=1 WtCom= 1.00D+00 WtEn= 0.00D+00
 Coeff-Com: -0.245D-01 0.507D-02 0.991D-01 0.630D+00-0.123D+01 0.530D+00
 Coeff-Com:  0.416D+00-0.778D+00 0.454D+00-0.466D+00 0.122D+01 0.132D+00
 Coeff-Com: -0.312D+01 0.162D+01 0.214D+00 0.118D+01 0.205D+01-0.514D+01
 Coeff-Com: -0.227D+01 0.549D+01
 Coeff:     -0.245D-01 0.507D-02 0.991D-01 0.630D+00-0.123D+01 0.530D+00
 Coeff:      0.416D+00-0.778D+00 0.454D+00-0.466D+00 0.122D+01 0.132D+00
 Coeff:     -0.312D+01 0.162D+01 0.214D+00 0.118D+01 0.205D+01-0.514D+01
 Coeff:     -0.227D+01 0.549D+01
 Gap=     0.276 Goal=   None    Shift=    0.500
 Gap=     0.147 Goal=   None    Shift=    0.500
 GapD=    0.147 DampG=1.000 DampE=1.000 DampFc=1.0000 IDamp=-1.
 RMSDP=1.11D-04 MaxDP=6.97D-03 DE=-3.84D-04 OVMax= 2.89D-02

 Cycle  21  Pass 1  IDiag  1:
 E= -845.014826764048     Delta-E=       -0.000311038604 Rises=F Damp=F
 DIIS: error= 1.60D-03 at cycle  21 NSaved=  20.
 NSaved=20 IEnMin=20 EnMin= -845.014826764048     IErMin=20 ErrMin= 1.60D-03
 ErrMax= 1.60D-03  0.00D+00 EMaxC= 1.00D+00 BMatC= 5.20D-04 BMatP= 4.22D-04
 IDIUse=1 WtCom= 1.00D+00 WtEn= 0.00D+00
 Coeff-Com: -0.317D-01-0.877D-02 0.764D+00-0.110D+01 0.337D+00 0.357D+00
 Coeff-Com: -0.580D+00 0.320D+00-0.403D+00 0.117D+01 0.114D+00-0.286D+01
 Coeff-Com:  0.167D+01-0.797D+00 0.187D+01 0.198D+01-0.399D+01-0.329D+01
 Coeff-Com:  0.463D+01 0.844D+00
 Coeff:     -0.317D-01-0.877D-02 0.764D+00-0.110D+01 0.337D+00 0.357D+00
 Coeff:     -0.580D+00 0.320D+00-0.403D+00 0.117D+01 0.114D+00-0.286D+01
 Coeff:      0.167D+01-0.797D+00 0.187D+01 0.198D+01-0.399D+01-0.329D+01
 Coeff:      0.463D+01 0.844D+00
 Gap=     0.275 Goal=   None    Shift=    0.500
 Gap=     0.149 Goal=   None    Shift=    0.500
 GapD=    0.149 DampG=1.000 DampE=1.000 DampFc=1.0000 IDamp=-1.
 RMSDP=6.77D-05 MaxDP=3.62D-03 DE=-3.11D-04 OVMax= 2.32D-02

 Cycle  22  Pass 1  IDiag  1:
 E= -845.015087984804     Delta-E=       -0.000261220756 Rises=F Damp=F
 DIIS: error= 1.38D-03 at cycle  22 NSaved=  20.
 NSaved=20 IEnMin=20 EnMin= -845.015087984804     IErMin=20 ErrMin= 1.38D-03
 ErrMax= 1.38D-03  0.00D+00 EMaxC= 1.00D+00 BMatC= 4.11D-04 BMatP= 4.22D-04
 IDIUse=1 WtCom= 1.00D+00 WtEn= 0.00D+00
 Coeff-Com: -0.879D-01 0.504D+00-0.562D+00 0.894D-01 0.175D+00 0.114D+00
 Coeff-Com: -0.676D+00 0.161D+00 0.280D+00 0.102D+01-0.100D+01-0.330D+00
 Coeff-Com: -0.215D+01 0.245D+01 0.270D+01-0.914D+00-0.403D+01 0.198D+01
 Coeff-Com: -0.390D+01 0.519D+01
 Coeff:     -0.879D-01 0.504D+00-0.562D+00 0.894D-01 0.175D+00 0.114D+00
 Coeff:     -0.676D+00 0.161D+00 0.280D+00 0.102D+01-0.100D+01-0.330D+00
 Coeff:     -0.215D+01 0.245D+01 0.270D+01-0.914D+00-0.403D+01 0.198D+01
 Coeff:     -0.390D+01 0.519D+01
 Gap=     0.274 Goal=   None    Shift=    0.500
 Gap=     0.147 Goal=   None    Shift=    0.500
 GapD=    0.147 DampG=1.000 DampE=1.000 DampFc=1.0000 IDamp=-1.
 RMSDP=7.87D-05 MaxDP=3.75D-03 DE=-2.61D-04 OVMax= 2.27D-02

 Cycle  23  Pass 1  IDiag  1:
 E= -845.015293378392     Delta-E=       -0.000205393587 Rises=F Damp=F
 DIIS: error= 1.23D-03 at cycle  23 NSaved=  20.
 NSaved=20 IEnMin=20 EnMin= -845.015293378392     IErMin=20 ErrMin= 1.23D-03
 ErrMax= 1.23D-03  0.00D+00 EMaxC= 1.00D+00 BMatC= 3.98D-04 BMatP= 4.11D-04
 IDIUse=1 WtCom= 1.00D+00 WtEn= 0.00D+00
 Coeff-Com:  0.228D+00-0.373D+00 0.131D+00 0.116D+00 0.293D-01-0.520D+00
 Coeff-Com:  0.151D+00 0.239D+00 0.781D+00-0.627D+00-0.438D+00-0.176D+01
 Coeff-Com:  0.192D+01 0.240D+01-0.895D+00-0.297D+01 0.220D+01-0.524D+01
 Coeff-Com:  0.466D+01 0.975D+00
 Coeff:      0.228D+00-0.373D+00 0.131D+00 0.116D+00 0.293D-01-0.520D+00
 Coeff:      0.151D+00 0.239D+00 0.781D+00-0.627D+00-0.438D+00-0.176D+01
 Coeff:      0.192D+01 0.240D+01-0.895D+00-0.297D+01 0.220D+01-0.524D+01
 Coeff:      0.466D+01 0.975D+00
 Gap=     0.274 Goal=   None    Shift=    0.500
 Gap=     0.148 Goal=   None    Shift=    0.500
 GapD=    0.148 DampG=1.000 DampE=1.000 DampFc=1.0000 IDamp=-1.
 RMSDP=5.33D-05 MaxDP=2.23D-03 DE=-2.05D-04 OVMax= 1.86D-02

 Cycle  24  Pass 1  IDiag  1:
 E= -845.015455568578     Delta-E=       -0.000162190186 Rises=F Damp=F
 DIIS: error= 1.06D-03 at cycle  24 NSaved=  20.
 NSaved=20 IEnMin=20 EnMin= -845.015455568578     IErMin=20 ErrMin= 1.06D-03
 ErrMax= 1.06D-03  0.00D+00 EMaxC= 1.00D+00 BMatC= 3.08D-04 BMatP= 3.98D-04
 IDIUse=1 WtCom= 1.00D+00 WtEn= 0.00D+00
 Coeff-Com: -0.684D-02 0.107D-01-0.745D-01 0.161D+00-0.386D+00 0.115D+00
 Coeff-Com:  0.101D+00 0.628D+00-0.386D+00-0.313D+00-0.684D+00 0.415D+00
 Coeff-Com:  0.240D+01-0.262D+01-0.411D+00 0.253D+01-0.282D+01 0.164D+01
 Coeff-Com: -0.434D+01 0.504D+01
 Coeff:     -0.684D-02 0.107D-01-0.745D-01 0.161D+00-0.386D+00 0.115D+00
 Coeff:      0.101D+00 0.628D+00-0.386D+00-0.313D+00-0.684D+00 0.415D+00
 Coeff:      0.240D+01-0.262D+01-0.411D+00 0.253D+01-0.282D+01 0.164D+01
 Coeff:     -0.434D+01 0.504D+01
 Gap=     0.273 Goal=   None    Shift=    0.500
 Gap=     0.148 Goal=   None    Shift=    0.500
 GapD=    0.148 DampG=1.000 DampE=1.000 DampFc=1.0000 IDamp=-1.
 RMSDP=6.60D-05 MaxDP=3.10D-03 DE=-1.62D-04 OVMax= 1.84D-02

 Cycle  25  Pass 1  IDiag  1:
 E= -845.015561629223     Delta-E=       -0.000106060646 Rises=F Damp=F
 DIIS: error= 9.41D-04 at cycle  25 NSaved=  20.
 NSaved=20 IEnMin=20 EnMin= -845.015561629223     IErMin=20 ErrMin= 9.41D-04
 ErrMax= 9.41D-04  0.00D+00 EMaxC= 1.00D+00 BMatC= 3.21D-04 BMatP= 3.08D-04
 IDIUse=1 WtCom= 1.00D+00 WtEn= 0.00D+00
 Coeff-Com: -0.233D-02-0.418D-01 0.780D-01-0.283D+00 0.788D-01 0.331D+00
 Coeff-Com:  0.407D+00-0.933D+00 0.238D+00-0.434D+00 0.483D+00 0.184D+01
 Coeff-Com: -0.252D+01-0.881D+00 0.251D+01-0.370D+00 0.708D+00-0.590D+01
 Coeff-Com:  0.449D+01 0.120D+01
 Coeff:     -0.233D-02-0.418D-01 0.780D-01-0.283D+00 0.788D-01 0.331D+00
 Coeff:      0.407D+00-0.933D+00 0.238D+00-0.434D+00 0.483D+00 0.184D+01
 Coeff:     -0.252D+01-0.881D+00 0.251D+01-0.370D+00 0.708D+00-0.590D+01
 Coeff:      0.449D+01 0.120D+01
 Gap=     0.273 Goal=   None    Shift=    0.500
 Gap=     0.148 Goal=   None    Shift=    0.500
 RMSDP=3.88D-05 MaxDP=1.70D-03 DE=-1.06D-04 OVMax= 1.44D-02

 Cycle  26  Pass 1  IDiag  1:
 E= -845.015654757011     Delta-E=       -0.000093127788 Rises=F Damp=F
 DIIS: error= 7.88D-04 at cycle  26 NSaved=  20.
 NSaved=20 IEnMin=20 EnMin= -845.015654757011     IErMin=20 ErrMin= 7.88D-04
 ErrMax= 7.88D-04  0.00D+00 EMaxC= 1.00D+00 BMatC= 2.36D-04 BMatP= 3.08D-04
 IDIUse=1 WtCom= 1.00D+00 WtEn= 0.00D+00
 Coeff-Com:  0.678D-01-0.126D+00-0.220D+00 0.151D+00 0.248D+00 0.406D+00
 Coeff-Com: -0.794D+00 0.191D-01-0.681D+00 0.727D+00 0.219D+01-0.161D+01
 Coeff-Com: -0.213D+01 0.146D+01 0.173D+00 0.996D+00-0.845D+00 0.101D+01
 Coeff-Com: -0.574D+01 0.570D+01
 Coeff:      0.678D-01-0.126D+00-0.220D+00 0.151D+00 0.248D+00 0.406D+00
 Coeff:     -0.794D+00 0.191D-01-0.681D+00 0.727D+00 0.219D+01-0.161D+01
 Coeff:     -0.213D+01 0.146D+01 0.173D+00 0.996D+00-0.845D+00 0.101D+01
 Coeff:     -0.574D+01 0.570D+01
 Gap=     0.273 Goal=   None    Shift=    0.500
 Gap=     0.148 Goal=   None    Shift=    0.500
 RMSDP=3.12D-05 MaxDP=1.48D-03 DE=-9.31D-05 OVMax= 1.19D-02

 Cycle  27  Pass 1  IDiag  1:
 E= -845.015717433610     Delta-E=       -0.000062676599 Rises=F Damp=F
 DIIS: error= 6.57D-04 at cycle  27 NSaved=  20.
 NSaved=20 IEnMin=20 EnMin= -845.015717433610     IErMin=20 ErrMin= 6.57D-04
 ErrMax= 6.57D-04  0.00D+00 EMaxC= 1.00D+00 BMatC= 1.75D-04 BMatP= 2.36D-04
 IDIUse=1 WtCom= 1.00D+00 WtEn= 0.00D+00
 Coeff-Com:  0.724D-01-0.386D+00 0.239D+00-0.129D-01 0.542D+00-0.310D+00
 Coeff-Com: -0.303D+00-0.102D+01 0.786D+00 0.221D+01-0.104D+01-0.191D+01
 Coeff-Com:  0.982D+00-0.122D+01 0.150D+01 0.153D+01-0.763D-01-0.587D+01
 Coeff-Com:  0.343D+01 0.185D+01
 Coeff:      0.724D-01-0.386D+00 0.239D+00-0.129D-01 0.542D+00-0.310D+00
 Coeff:     -0.303D+00-0.102D+01 0.786D+00 0.221D+01-0.104D+01-0.191D+01
 Coeff:      0.982D+00-0.122D+01 0.150D+01 0.153D+01-0.763D-01-0.587D+01
 Coeff:      0.343D+01 0.185D+01
 Gap=     0.273 Goal=   None    Shift=    0.500
 Gap=     0.148 Goal=   None    Shift=    0.500
 RMSDP=2.21D-05 MaxDP=1.11D-03 DE=-6.27D-05 OVMax= 9.30D-03

 Cycle  28  Pass 1  IDiag  1:
 E= -845.015762524917     Delta-E=       -0.000045091307 Rises=F Damp=F
 DIIS: error= 5.38D-04 at cycle  28 NSaved=  20.
 NSaved=20 IEnMin=20 EnMin= -845.015762524917     IErMin=20 ErrMin= 5.38D-04
 ErrMax= 5.38D-04  0.00D+00 EMaxC= 1.00D+00 BMatC= 1.18D-04 BMatP= 1.75D-04
 IDIUse=1 WtCom= 1.00D+00 WtEn= 0.00D+00
 Coeff-Com: -0.232D+00 0.193D+00 0.458D-01 0.368D+00-0.234D+00-0.278D+00
 Coeff-Com: -0.674D+00 0.535D+00 0.142D+01-0.890D+00-0.610D+00 0.747D+00
 Coeff-Com: -0.190D+01 0.126D+01 0.739D+00 0.329D+00-0.731D+00-0.143D+01
 Coeff-Com: -0.438D+00 0.279D+01
 Coeff:     -0.232D+00 0.193D+00 0.458D-01 0.368D+00-0.234D+00-0.278D+00
 Coeff:     -0.674D+00 0.535D+00 0.142D+01-0.890D+00-0.610D+00 0.747D+00
 Coeff:     -0.190D+01 0.126D+01 0.739D+00 0.329D+00-0.731D+00-0.143D+01
 Coeff:     -0.438D+00 0.279D+01
 Gap=     0.273 Goal=   None    Shift=    0.500
 Gap=     0.148 Goal=   None    Shift=    0.500
 RMSDP=1.65D-05 MaxDP=8.22D-04 DE=-4.51D-05 OVMax= 7.28D-03

 Cycle  29  Pass 1  IDiag  1:
 E= -845.015794036544     Delta-E=       -0.000031511628 Rises=F Damp=F
 DIIS: error= 4.29D-04 at cycle  29 NSaved=  20.
 NSaved=20 IEnMin=20 EnMin= -845.015794036544     IErMin=20 ErrMin= 4.29D-04
 ErrMax= 4.29D-04  0.00D+00 EMaxC= 1.00D+00 BMatC= 7.35D-05 BMatP= 1.18D-04
 IDIUse=1 WtCom= 1.00D+00 WtEn= 0.00D+00
 Coeff-Com: -0.594D-01 0.858D-01 0.123D+00-0.137D+00-0.975D-01-0.143D-01
 Coeff-Com:  0.946D-01 0.141D+00-0.548D+00 0.429D+00 0.618D+00-0.106D+01
 Coeff-Com:  0.284D+00-0.115D+01 0.119D+01 0.264D+01-0.281D+01-0.195D+01
 Coeff-Com:  0.981D+00 0.225D+01
 Coeff:     -0.594D-01 0.858D-01 0.123D+00-0.137D+00-0.975D-01-0.143D-01
 Coeff:      0.946D-01 0.141D+00-0.548D+00 0.429D+00 0.618D+00-0.106D+01
 Coeff:      0.284D+00-0.115D+01 0.119D+01 0.264D+01-0.281D+01-0.195D+01
 Coeff:      0.981D+00 0.225D+01
 Gap=     0.273 Goal=   None    Shift=    0.500
 Gap=     0.148 Goal=   None    Shift=    0.500
 RMSDP=1.58D-05 MaxDP=7.44D-04 DE=-3.15D-05 OVMax= 6.36D-03

 Cycle  30  Pass 1  IDiag  1:
 E= -845.015813932391     Delta-E=       -0.000019895847 Rises=F Damp=F
 DIIS: error= 3.43D-04 at cycle  30 NSaved=  20.
 NSaved=20 IEnMin=20 EnMin= -845.015813932391     IErMin=20 ErrMin= 3.43D-04
 ErrMax= 3.43D-04  0.00D+00 EMaxC= 1.00D+00 BMatC= 4.82D-05 BMatP= 7.35D-05
 IDIUse=1 WtCom= 1.00D+00 WtEn= 0.00D+00
 Coeff-Com:  0.547D-01-0.148D+00 0.340D-01 0.139D+00-0.101D+00 0.128D+00
 Coeff-Com: -0.106D+00-0.704D-01-0.122D+00 0.276D+00 0.187D+00-0.134D+00
 Coeff-Com: -0.110D+01 0.783D+00 0.106D+01-0.326D+00-0.136D+01-0.100D+01
 Coeff-Com:  0.136D+01 0.144D+01
 Coeff:      0.547D-01-0.148D+00 0.340D-01 0.139D+00-0.101D+00 0.128D+00
 Coeff:     -0.106D+00-0.704D-01-0.122D+00 0.276D+00 0.187D+00-0.134D+00
 Coeff:     -0.110D+01 0.783D+00 0.106D+01-0.326D+00-0.136D+01-0.100D+01
 Coeff:      0.136D+01 0.144D+01
 Gap=     0.273 Goal=   None    Shift=    0.500
 Gap=     0.147 Goal=   None    Shift=    0.500
 RMSDP=1.02D-05 MaxDP=4.67D-04 DE=-1.99D-05 OVMax= 4.44D-03

 Cycle  31  Pass 1  IDiag  1:
 E= -845.015827627379     Delta-E=       -0.000013694988 Rises=F Damp=F
 DIIS: error= 2.70D-04 at cycle  31 NSaved=  20.
 NSaved=20 IEnMin=20 EnMin= -845.015827627379     IErMin=20 ErrMin= 2.70D-04
 ErrMax= 2.70D-04  0.00D+00 EMaxC= 1.00D+00 BMatC= 2.67D-05 BMatP= 4.82D-05
 IDIUse=1 WtCom= 1.00D+00 WtEn= 0.00D+00
 Coeff-Com: -0.779D-01 0.417D-01 0.163D+00-0.115D+00 0.348D-01-0.155D+00
 Coeff-Com:  0.151D+00-0.427D+00 0.196D+00 0.875D+00-0.262D+00-0.112D+01
 Coeff-Com:  0.452D+00-0.964D-01 0.105D+01-0.144D+00-0.153D+01 0.974D-01
 Coeff-Com: -0.378D+00 0.224D+01
 Coeff:     -0.779D-01 0.417D-01 0.163D+00-0.115D+00 0.348D-01-0.155D+00
 Coeff:      0.151D+00-0.427D+00 0.196D+00 0.875D+00-0.262D+00-0.112D+01
 Coeff:      0.452D+00-0.964D-01 0.105D+01-0.144D+00-0.153D+01 0.974D-01
 Coeff:     -0.378D+00 0.224D+01
 Gap=     0.273 Goal=   None    Shift=    0.500
 Gap=     0.148 Goal=   None    Shift=    0.500
 RMSDP=8.96D-06 MaxDP=4.08D-04 DE=-1.37D-05 OVMax= 3.76D-03

 Cycle  32  Pass 1  IDiag  1:
 E= -845.015834857865     Delta-E=       -0.000007230487 Rises=F Damp=F
 DIIS: error= 2.22D-04 at cycle  32 NSaved=  20.
 NSaved=20 IEnMin=20 EnMin= -845.015834857865     IErMin=20 ErrMin= 2.22D-04
 ErrMax= 2.22D-04  0.00D+00 EMaxC= 1.00D+00 BMatC= 1.86D-05 BMatP= 2.67D-05
 IDIUse=1 WtCom= 1.00D+00 WtEn= 0.00D+00
 Coeff-Com: -0.458D-01 0.726D-01-0.163D-01 0.610D-02 0.198D-01 0.103D+00
 Coeff-Com: -0.512D+00 0.221D+00 0.299D+00 0.602D-01-0.903D-01-0.140D+00
 Coeff-Com: -0.658D+00 0.887D+00 0.350D+00-0.694D+00-0.328D+00-0.902D+00
 Coeff-Com:  0.600D+00 0.177D+01
 Coeff:     -0.458D-01 0.726D-01-0.163D-01 0.610D-02 0.198D-01 0.103D+00
 Coeff:     -0.512D+00 0.221D+00 0.299D+00 0.602D-01-0.903D-01-0.140D+00
 Coeff:     -0.658D+00 0.887D+00 0.350D+00-0.694D+00-0.328D+00-0.902D+00
 Coeff:      0.600D+00 0.177D+01
 Gap=     0.273 Goal=   None    Shift=    0.500
 Gap=     0.147 Goal=   None    Shift=    0.500
 RMSDP=7.47D-06 MaxDP=3.40D-04 DE=-7.23D-06 OVMax= 3.09D-03

 >>>>>>>>>> Convergence criterion not met.
 SCF Done:  E(ULC-wHPBE) =  -845.015834858     A.U. after   33 cycles
            NFock= 32  Conv=0.75D-05     -V/T= 2.0054
 <Sx>= 0.0000 <Sy>= 0.0000 <Sz>= 0.5000 <S**2>= 0.7858 S= 0.5177
 <L.S>= 0.000000000000E+00
 KE= 8.405153735790D+02 PE=-4.898774864424D+03 EE= 1.725783451147D+03
 Annihilation of the first spin contaminant:
 S**2 before annihilation     0.7858,   after     0.7509
 Leave Link  502 at Thu Jan 21 02:18:41 2021, MaxMem=  4026531840 cpu:            9056.4 elap:            1134.9
 (Enter /opt/ohpc/pub/libs/gaussian/g16-A.03/sandybridge/g16/l508.exe)
 Integral symmetry usage will be decided dynamically.
 Tight linear equation convergence will be used.
 ULC-wHPBE wavefunction.
 Quadratic Convergence SCF Method.
 Line search only if initial step raises energy.
 FoFJK:  IHMeth= 1 ICntrl=       0 DoSepK=T KAlg= 0 I1Cent=           0 FoldK=F
 IRaf=         1 NMat=       1 IRICut=       1 DoRegI=T DoRafI=F ISym2E= 1 IDoP0=0 IntGTp=1.
 FoFCou: FMM=F IPFlag=           0 FMFlag=      100000 FMFlg1=           0
         NFxFlg=           0 DoJE=T BraDBF=F KetDBF=F FulRan=T
         wScrn=  0.000000 ICntrl=       500 IOpCl=  0 I1Cent=           0 NGrid=           0
         NMat0=    1 NMatS0=      1 NMatT0=    0 NMatD0=    1 NMtDS0=    0 NMtDT0=    0
 Petite list used in FoFCou.
 Iteration   1 EE= -845.015839837029                                    Grad=2.505D-03 Max rot=    0.0469 deg.
 QCNR:  CnvC1=2.51D-08 CnvC2=2.51D-07
 LinEq1:  Iter=  0 NonCon=     1 RMS=2.52D-05 Max=5.55D-03 NDo=     1
 AX will form     1 AO Fock derivatives at one time.
 LinEq1:  Iter=  1 NonCon=     1 RMS=1.14D-05 Max=1.00D-03 NDo=     1
 LinEq1:  Iter=  2 NonCon=     1 RMS=5.50D-06 Max=3.84D-04 NDo=     1
 LinEq1:  Iter=  3 NonCon=     1 RMS=4.62D-06 Max=5.17D-04 NDo=     1
 LinEq1:  Iter=  4 NonCon=     1 RMS=2.12D-06 Max=1.26D-04 NDo=     1
 LinEq1:  Iter=  5 NonCon=     1 RMS=1.55D-06 Max=1.78D-04 NDo=     1
 LinEq1:  Iter=  6 NonCon=     1 RMS=6.89D-07 Max=4.60D-05 NDo=     1
 LinEq1:  Iter=  7 NonCon=     1 RMS=4.69D-07 Max=4.02D-05 NDo=     1
 LinEq1:  Iter=  8 NonCon=     1 RMS=2.29D-07 Max=1.44D-05 NDo=     1
 LinEq1:  Iter=  9 NonCon=     1 RMS=1.54D-07 Max=1.37D-05 NDo=     1
 LinEq1:  Iter= 10 NonCon=     1 RMS=1.09D-07 Max=8.44D-06 NDo=     1
 LinEq1:  Iter= 11 NonCon=     1 RMS=6.36D-08 Max=4.68D-06 NDo=     1
 LinEq1:  Iter= 12 NonCon=     1 RMS=3.80D-08 Max=2.44D-06 NDo=     1
 LinEq1:  Iter= 13 NonCon=     1 RMS=1.65D-08 Max=1.03D-06 NDo=     1
 LinEq1:  Iter= 14 NonCon=     1 RMS=9.24D-09 Max=4.70D-07 NDo=     1
 LinEq1:  Iter= 15 NonCon=     1 RMS=4.63D-09 Max=3.23D-07 NDo=     1
 LinEq1:  Iter= 16 NonCon=     0 RMS=2.63D-09 Max=1.98D-07 NDo=     1
 Linear equations converged to 2.505D-08 2.505D-07 after    16 iterations.
 Angle between quadratic step and gradient=  68.37 degrees.
     ILin= 1 X=0.000D+00 Y=-8.450158398370D+02 DE= 0.00D+00 F= -1.75D-05
     ILin= 2 X=1.000D+00 Y=-8.450158486175D+02 DE=-8.78D-06
 Iteration   2 EE= -845.015848617544     Delta-E=       -0.000008780516 Grad=1.448D-05 Max rot=    0.0003 deg.
 Rotation gradient small -- convergence achieved.
 SCF Done:  E(ULC-wHPBE) =  -845.015848618     a.u. after    2 cycles
            Convg  =    0.1448D-04                    18 Fock formations.
              S**2 =  0.7862                  -V/T =  2.0054
 <Sx>= 0.0000 <Sy>= 0.0000 <Sz>= 0.5000 <S**2>= 0.7862 S= 0.5179
 <L.S>= 0.000000000000E+00
 Annihilation of the first spin contaminant:
 S**2 before annihilation     0.7862,   after     0.7509
 Leave Link  508 at Thu Jan 21 02:28:20 2021, MaxMem=  4026531840 cpu:            4611.8 elap:             578.7
 (Enter /opt/ohpc/pub/libs/gaussian/g16-A.03/sandybridge/g16/l601.exe)
 Copying SCF densities to generalized density rwf, IOpCl= 1 IROHF=0.

 **********************************************************************

            Population analysis using the SCF density.

 **********************************************************************

 Orbital symmetries:
 Alpha Orbitals:
       Occupied  (A) (A) (A) (A) (A) (A) (A) (A) (A) (A) (A) (A)
                 (A) (A) (A) (A) (A) (A) (A) (A) (A) (A) (A) (A)
                 (A) (A) (A) (A) (A) (A) (A) (A) (A) (A) (A) (A)
                 (A) (A) (A) (A) (A) (A) (A) (A) (A) (A) (A) (A)
                 (A) (A) (A) (A) (A) (A) (A) (A) (A) (A) (A) (A)
                 (A) (A) (A) (A) (A) (A) (A) (A) (A) (A) (A) (A)
                 (A) (A)
       Virtual   (A) (A) (A) (A) (A) (A) (A) (A) (A) (A) (A) (A)
                 (A) (A) (A) (A) (A) (A) (A) (A) (A) (A) (A) (A)
                 (A) (A) (A) (A) (A) (A) (A) (A) (A) (A) (A) (A)
                 (A) (A) (A) (A) (A) (A) (A) (A) (A) (A) (A) (A)
                 (A) (A) (A) (A) (A) (A) (A) (A) (A) (A) (A) (A)
                 (A) (A) (A) (A) (A) (A) (A) (A) (A) (A) (A) (A)
                 (A) (A) (A) (A) (A) (A) (A) (A) (A) (A) (A) (A)
                 (A) (A) (A) (A) (A) (A) (A) (A) (A) (A) (A) (A)
                 (A) (A) (A) (A) (A) (A) (A) (A) (A) (A) (A) (A)
                 (A) (A) (A) (A) (A) (A) (A) (A) (A) (A) (A) (A)
                 (A) (A) (A) (A) (A) (A) (A) (A) (A) (A) (A) (A)
                 (A) (A) (A) (A) (A) (A) (A) (A) (A) (A) (A) (A)
                 (A) (A) (A) (A) (A) (A) (A) (A) (A) (A) (A) (A)
                 (A) (A) (A) (A) (A) (A) (A) (A) (A) (A) (A) (A)
                 (A) (A) (A) (A) (A) (A) (A) (A) (A) (A) (A) (A)
                 (A) (A) (A) (A) (A) (A) (A) (A) (A) (A) (A) (A)
                 (A) (A) (A) (A) (A) (A) (A) (A) (A) (A) (A) (A)
                 (A) (A) (A) (A) (A) (A) (A) (A) (A) (A) (A) (A)
                 (A) (A) (A) (A) (A) (A) (A) (A) (A) (A) (A) (A)
                 (A) (A) (A) (A) (A) (A) (A) (A) (A) (A) (A) (A)
                 (A) (A) (A) (A) (A) (A) (A) (A) (A) (A) (A) (A)
                 (A) (A) (A) (A) (A) (A) (A) (A) (A) (A) (A) (A)
                 (A) (A) (A) (A) (A) (A) (A) (A) (A) (A) (A) (A)
                 (A) (A) (A) (A) (A) (A) (A) (A) (A) (A) (A) (A)
                 (A) (A) (A) (A) (A) (A) (A) (A) (A) (A) (A) (A)
                 (A) (A) (A) (A) (A) (A) (A) (A) (A) (A) (A) (A)
                 (A) (A) (A) (A) (A) (A) (A) (A) (A) (A) (A) (A)
                 (A) (A) (A) (A) (A) (A) (A) (A) (A) (A) (A) (A)
                 (A) (A) (A) (A) (A) (A) (A) (A) (A) (A) (A) (A)
                 (A) (A) (A) (A) (A) (A) (A) (A) (A) (A) (A) (A)
                 (A) (A) (A) (A) (A) (A) (A) (A) (A) (A) (A) (A)
                 (A) (A) (A) (A) (A) (A) (A) (A) (A) (A) (A) (A)
                 (A) (A) (A) (A) (A) (A) (A) (A) (A) (A) (A) (A)
                 (A) (A) (A) (A) (A) (A) (A) (A) (A) (A) (A) (A)
                 (A) (A) (A) (A) (A) (A) (A) (A) (A) (A) (A) (A)
                 (A) (A) (A) (A) (A) (A) (A) (A) (A) (A) (A) (A)
                 (A) (A) (A) (A) (A) (A) (A) (A) (A) (A) (A) (A)
                 (A) (A) (A) (A) (A) (A) (A)
 Beta  Orbitals:
       Occupied  (A) (A) (A) (A) (A) (A) (A) (A) (A) (A) (A) (A)
                 (A) (A) (A) (A) (A) (A) (A) (A) (A) (A) (A) (A)
                 (A) (A) (A) (A) (A) (A) (A) (A) (A) (A) (A) (A)
                 (A) (A) (A) (A) (A) (A) (A) (A) (A) (A) (A) (A)
                 (A) (A) (A) (A) (A) (A) (A) (A) (A) (A) (A) (A)
                 (A) (A) (A) (A) (A) (A) (A) (A) (A) (A) (A) (A)
                 (A)
       Virtual   (A) (A) (A) (A) (A) (A) (A) (A) (A) (A) (A) (A)
                 (A) (A) (A) (A) (A) (A) (A) (A) (A) (A) (A) (A)
                 (A) (A) (A) (A) (A) (A) (A) (A) (A) (A) (A) (A)
                 (A) (A) (A) (A) (A) (A) (A) (A) (A) (A) (A) (A)
                 (A) (A) (A) (A) (A) (A) (A) (A) (A) (A) (A) (A)
                 (A) (A) (A) (A) (A) (A) (A) (A) (A) (A) (A) (A)
                 (A) (A) (A) (A) (A) (A) (A) (A) (A) (A) (A) (A)
                 (A) (A) (A) (A) (A) (A) (A) (A) (A) (A) (A) (A)
                 (A) (A) (A) (A) (A) (A) (A) (A) (A) (A) (A) (A)
                 (A) (A) (A) (A) (A) (A) (A) (A) (A) (A) (A) (A)
                 (A) (A) (A) (A) (A) (A) (A) (A) (A) (A) (A) (A)
                 (A) (A) (A) (A) (A) (A) (A) (A) (A) (A) (A) (A)
                 (A) (A) (A) (A) (A) (A) (A) (A) (A) (A) (A) (A)
                 (A) (A) (A) (A) (A) (A) (A) (A) (A) (A) (A) (A)
                 (A) (A) (A) (A) (A) (A) (A) (A) (A) (A) (A) (A)
                 (A) (A) (A) (A) (A) (A) (A) (A) (A) (A) (A) (A)
                 (A) (A) (A) (A) (A) (A) (A) (A) (A) (A) (A) (A)
                 (A) (A) (A) (A) (A) (A) (A) (A) (A) (A) (A) (A)
                 (A) (A) (A) (A) (A) (A) (A) (A) (A) (A) (A) (A)
                 (A) (A) (A) (A) (A) (A) (A) (A) (A) (A) (A) (A)
                 (A) (A) (A) (A) (A) (A) (A) (A) (A) (A) (A) (A)
                 (A) (A) (A) (A) (A) (A) (A) (A) (A) (A) (A) (A)
                 (A) (A) (A) (A) (A) (A) (A) (A) (A) (A) (A) (A)
                 (A) (A) (A) (A) (A) (A) (A) (A) (A) (A) (A) (A)
                 (A) (A) (A) (A) (A) (A) (A) (A) (A) (A) (A) (A)
                 (A) (A) (A) (A) (A) (A) (A) (A) (A) (A) (A) (A)
                 (A) (A) (A) (A) (A) (A) (A) (A) (A) (A) (A) (A)
                 (A) (A) (A) (A) (A) (A) (A) (A) (A) (A) (A) (A)
                 (A) (A) (A) (A) (A) (A) (A) (A) (A) (A) (A) (A)
                 (A) (A) (A) (A) (A) (A) (A) (A) (A) (A) (A) (A)
                 (A) (A) (A) (A) (A) (A) (A) (A) (A) (A) (A) (A)
                 (A) (A) (A) (A) (A) (A) (A) (A) (A) (A) (A) (A)
                 (A) (A) (A) (A) (A) (A) (A) (A) (A) (A) (A) (A)
                 (A) (A) (A) (A) (A) (A) (A) (A) (A) (A) (A) (A)
                 (A) (A) (A) (A) (A) (A) (A) (A) (A) (A) (A) (A)
[...]
    27  C(13)             -0.00189      -2.12393      -0.75787      -0.70847
    28  H(1)               0.00180       8.06319       2.87715       2.68959
    29  H(1)               0.00004       0.19441       0.06937       0.06485
    30  H(1)               0.00171       7.64838       2.72913       2.55123
    31  C(13)             -0.00174      -1.95891      -0.69899      -0.65342
    32  H(1)               0.00147       6.55319       2.33834       2.18591
    33  H(1)               0.00180       8.03186       2.86597       2.67914
    34  H(1)               0.00011       0.48417       0.17276       0.16150
    35  C(13)             -0.00189      -2.12336      -0.75767      -0.70828
    36  H(1)               0.00180       8.05172       2.87306       2.68577
    37  H(1)               0.00004       0.19229       0.06862       0.06414
    38  H(1)               0.00171       7.66294       2.73433       2.55608
    39  C(13)             -0.00174      -1.96003      -0.69939      -0.65379
    40  H(1)               0.00145       6.49423       2.31730       2.16624
    41  H(1)               0.00181       8.06844       2.87902       2.69134
    42  H(1)               0.00011       0.50698       0.18090       0.16911
 --------------------------------------------------------
       Center         ----  Spin Dipole Couplings  ----
                      3XX-RR        3YY-RR        3ZZ-RR
 --------------------------------------------------------
     1   Atom        0.018179      0.016081     -0.034261
     2   Atom       -0.159914     -0.141932      0.301846
     3   Atom       -0.060855     -0.039657      0.100513
     4   Atom        0.018181      0.016080     -0.034262
     5   Atom       -0.117293     -0.114445      0.231738
     6   Atom       -0.060847     -0.039655      0.100502
     7   Atom        0.022789     -0.019095     -0.003693
     8   Atom       -0.006342      0.010527     -0.004186
     9   Atom       -0.001358      0.004493     -0.003135
    10   Atom       -0.006341      0.010527     -0.004186
    11   Atom       -0.039824     -0.045925      0.085749
    12   Atom       -0.062816     -0.019709      0.082525
    13   Atom       -0.062826     -0.019717      0.082543
    14   Atom        0.032765      0.017628     -0.050393
    15   Atom        0.032765      0.017632     -0.050397
    16   Atom       -0.108620     -0.074562      0.183182
    17   Atom       -0.004762      0.007808     -0.003046
    18   Atom       -0.004762      0.007808     -0.003046
    19   Atom        0.001744      0.000347     -0.002091
    20   Atom        0.001744      0.000347     -0.002091
    21   Atom       -0.001358      0.004494     -0.003135
    22   Atom        0.038168      0.019362     -0.057530
    23   Atom       -0.005285     -0.004374      0.009659
    24   Atom       -0.005279     -0.004383      0.009662
    25   Atom       -0.089867     -0.089278      0.179146
    26   Atom       -0.089876     -0.089264      0.179139
    27   Atom       -0.001144      0.000378      0.000766
    28   Atom       -0.000450      0.001337     -0.000887
    29   Atom        0.001226      0.000260     -0.001486
    30   Atom       -0.000318      0.001032     -0.000713
    31   Atom        0.001887     -0.002047      0.000160
    32   Atom        0.001031     -0.000185     -0.000846
    33   Atom        0.001396     -0.000725     -0.000671
    34   Atom        0.001374     -0.000243     -0.001130
    35   Atom       -0.001146      0.000376      0.000770
    36   Atom       -0.000451      0.001340     -0.000890
    37   Atom        0.001226      0.000259     -0.001486
    38   Atom       -0.000318      0.001028     -0.000710
    39   Atom        0.001889     -0.002042      0.000152
    40   Atom        0.001034     -0.000180     -0.000853
    41   Atom        0.001395     -0.000729     -0.000666
    42   Atom        0.001374     -0.000244     -0.001131
 --------------------------------------------------------
                        XY            XZ            YZ
 --------------------------------------------------------
     1   Atom        0.000010     -0.009500      0.008472
     2   Atom       -0.000008      0.000031     -0.109857
     3   Atom        0.007781     -0.020338     -0.051781
     4   Atom       -0.000009      0.009492      0.008472
     5   Atom       -0.000004      0.000032     -0.044742
     6   Atom       -0.007788      0.020362     -0.051778
     7   Atom       -0.000001     -0.000002     -0.004034
     8   Atom       -0.004485     -0.000471      0.002318
     9   Atom        0.000743      0.000248      0.002557
    10   Atom        0.004486      0.000471      0.002318
    11   Atom        0.000002      0.000013      0.019267
    12   Atom        0.010821      0.017059      0.077473
    13   Atom       -0.010808     -0.017036      0.077475
    14   Atom        0.002456      0.006961     -0.030399
    15   Atom       -0.002461     -0.006976     -0.030397
    16   Atom        0.000005      0.000015      0.108513
    17   Atom       -0.003417      0.000825     -0.003441
    18   Atom        0.003417     -0.000824     -0.003441
    19   Atom       -0.001460      0.000937     -0.001611
    20   Atom        0.001460     -0.000938     -0.001611
    21   Atom       -0.000742     -0.000248      0.002558
    22   Atom        0.000001     -0.000001     -0.001360
    23   Atom       -0.002957      0.013409      0.000859
    24   Atom        0.002961     -0.013432      0.000829
    25   Atom        0.000841     -0.012335     -0.022432
    26   Atom       -0.000835      0.012223     -0.022523
    27   Atom        0.001048      0.000881      0.000918
    28   Atom        0.000204     -0.000056     -0.000964
    29   Atom        0.000061      0.000134      0.000279
    30   Atom       -0.000165     -0.000181      0.001136
    31   Atom       -0.000626      0.001010     -0.000647
    32   Atom       -0.000963      0.000762     -0.000560
    33   Atom       -0.000680     -0.000983      0.000402
    34   Atom        0.000403      0.000480      0.000032
    35   Atom       -0.001048     -0.000888      0.000927
    36   Atom       -0.000203      0.000056     -0.000962
    37   Atom       -0.000061     -0.000134      0.000279
    38   Atom        0.000164      0.000183      0.001138
    39   Atom        0.000625     -0.000996     -0.000652
    40   Atom        0.000968     -0.000757     -0.000554
    41   Atom        0.000673      0.000987      0.000399
    42   Atom       -0.000401     -0.000484      0.000032
 --------------------------------------------------------


 ---------------------------------------------------------------------------------
              Anisotropic Spin Dipole Couplings in Principal Axis System
 ---------------------------------------------------------------------------------

       Atom             a.u.   MegaHertz   Gauss  10(-4) cm-1        Axes

              Baa    -0.0372    -4.997    -1.783    -1.667  0.1670 -0.1548  0.9737
     1 C(13)  Bbb     0.0167     2.244     0.801     0.749  0.4365  0.8972  0.0678
              Bcc     0.0205     2.752     0.982     0.918  0.8841 -0.4137 -0.2173
 
              Baa    -0.1676   -22.495    -8.027    -7.504  0.0000  0.9737  0.2278
     2 C(13)  Bbb    -0.1599   -21.459    -7.657    -7.158  1.0000 -0.0000 -0.0001
              Bcc     0.3276    43.954    15.684    14.662  0.0001 -0.2278  0.9737
 
              Baa    -0.0636    -8.537    -3.046    -2.848  0.9822 -0.1757  0.0663
     3 C(13)  Bbb    -0.0566    -7.590    -2.708    -2.532  0.1451  0.9339  0.3267
              Bcc     0.1202    16.127     5.755     5.379 -0.1193 -0.3112  0.9428
 
              Baa    -0.0372    -4.996    -1.783    -1.667 -0.1668 -0.1548  0.9738
     4 C(13)  Bbb     0.0167     2.244     0.801     0.749 -0.4364  0.8972  0.0678
              Bcc     0.0205     2.752     0.982     0.918  0.8841  0.4137  0.2172
 
              Baa    -0.1201   -16.121    -5.752    -5.377  0.0000  0.9920  0.1261
     5 C(13)  Bbb    -0.1173   -15.740    -5.616    -5.250  1.0000 -0.0000 -0.0001
              Bcc     0.2374    31.860    11.369    10.627  0.0001 -0.1261  0.9920
 
              Baa    -0.0636    -8.537    -3.046    -2.848  0.9822  0.1757 -0.0664
     6 C(13)  Bbb    -0.0566    -7.590    -2.708    -2.532 -0.1450  0.9340  0.3267
              Bcc     0.1202    16.126     5.754     5.379  0.1194 -0.3112  0.9428
 
              Baa    -0.0201   -10.718    -3.824    -3.575  0.0000  0.9710  0.2389
     7 H(1)   Bbb    -0.0027    -1.441    -0.514    -0.481  0.0001 -0.2389  0.9710
              Bcc     0.0228    12.159     4.339     4.056  1.0000 -0.0000 -0.0001
 
              Baa    -0.0075    -3.982    -1.421    -1.328  0.9686  0.2460 -0.0349
     8 H(1)   Bbb    -0.0045    -2.416    -0.862    -0.806  0.0690 -0.1317  0.9889
              Bcc     0.0120     6.398     2.283     2.134 -0.2387  0.9603  0.1446
 
              Baa    -0.0039    -2.088    -0.745    -0.696 -0.0085 -0.2903  0.9569
     9 H(1)   Bbb    -0.0014    -0.773    -0.276    -0.258  0.9932 -0.1132 -0.0255
              Bcc     0.0054     2.861     1.021     0.954  0.1157  0.9502  0.2893
 
              Baa    -0.0075    -3.982    -1.421    -1.328  0.9686 -0.2460  0.0347
    10 H(1)   Bbb    -0.0045    -2.416    -0.862    -0.806 -0.0689 -0.1317  0.9889
              Bcc     0.0120     6.398     2.283     2.134  0.2387  0.9603  0.1445
 
              Baa    -0.0487    -6.533    -2.331    -2.179  0.0000  0.9899 -0.1419
    11 C(13)  Bbb    -0.0398    -5.344    -1.907    -1.783  1.0000 -0.0000 -0.0001
              Bcc     0.0885    11.877     4.238     3.962  0.0001  0.1419  0.9899
 
              Baa    -0.0655    -8.785    -3.135    -2.930  0.9376 -0.3407  0.0703
    12 C(13)  Bbb    -0.0609    -8.172    -2.916    -2.726  0.3313  0.8131 -0.4786
              Bcc     0.1264    16.958     6.051     5.657  0.1059  0.4720  0.8752
 
              Baa    -0.0655    -8.786    -3.135    -2.931  0.9376  0.3406 -0.0704
    13 C(13)  Bbb    -0.0609    -8.173    -2.916    -2.726 -0.3313  0.8132 -0.4785
              Bcc     0.1264    16.959     6.051     5.657 -0.1058  0.4720  0.8752
 
              Baa    -0.0626    -8.396    -2.996    -2.801 -0.0772  0.3554  0.9315
    14 C(13)  Bbb     0.0292     3.922     1.399     1.308  0.0455  0.9346 -0.3529
              Bcc     0.0333     4.475     1.597     1.493  0.9960 -0.0151  0.0883
 
              Baa    -0.0626    -8.397    -2.996    -2.801  0.0773  0.3554  0.9315
    15 C(13)  Bbb     0.0292     3.922     1.399     1.308 -0.0455  0.9346 -0.3528
              Bcc     0.0333     4.475     1.597     1.493  0.9960  0.0151 -0.0884
 
              Baa    -0.1142   -15.319    -5.466    -5.110  0.0000  0.9394 -0.3428
    16 C(13)  Bbb    -0.1086   -14.576    -5.201    -4.862  1.0000 -0.0000 -0.0000
              Bcc     0.2228    29.895    10.667     9.972  0.0000  0.3428  0.9394
 
              Baa    -0.0056    -3.005    -1.072    -1.002  0.9670  0.2532  0.0285
    17 H(1)   Bbb    -0.0040    -2.150    -0.767    -0.717 -0.0945  0.2526  0.9629
              Bcc     0.0097     5.155     1.839     1.720 -0.2366  0.9339 -0.2682
 
              Baa    -0.0056    -3.005    -1.072    -1.003  0.9670 -0.2532 -0.0286
    18 H(1)   Bbb    -0.0040    -2.150    -0.767    -0.717  0.0946  0.2526  0.9629
              Bcc     0.0097     5.155     1.840     1.720  0.2366  0.9339 -0.2682
 
              Baa    -0.0029    -1.548    -0.552    -0.516 -0.0482  0.4263  0.9033
    19 H(1)   Bbb    -0.0003    -0.159    -0.057    -0.053  0.6419  0.7061 -0.2990
              Bcc     0.0032     1.708     0.609     0.570  0.7653 -0.5654  0.3077
 
              Baa    -0.0029    -1.548    -0.552    -0.516  0.0483  0.4263  0.9033
    20 H(1)   Bbb    -0.0003    -0.159    -0.057    -0.053 -0.6419  0.7062 -0.2989
              Bcc     0.0032     1.708     0.609     0.570  0.7653  0.5654 -0.3078
 
              Baa    -0.0039    -2.088    -0.745    -0.696  0.0086 -0.2903  0.9569
    21 H(1)   Bbb    -0.0014    -0.773    -0.276    -0.258  0.9933  0.1131  0.0254
              Bcc     0.0054     2.861     1.021     0.954 -0.1156  0.9502  0.2894
 
              Baa    -0.0576    -7.723    -2.756    -2.576  0.0000  0.0177  0.9998
    22 C(13)  Bbb     0.0194     2.601     0.928     0.868 -0.0000  0.9998 -0.0177
              Bcc     0.0382     5.122     1.828     1.708  1.0000  0.0000 -0.0000
 
              Baa    -0.0141    -1.890    -0.674    -0.630  0.8275  0.2944 -0.4781
    23 C(13)  Bbb    -0.0035    -0.467    -0.167    -0.156 -0.2364  0.9551  0.1788
              Bcc     0.0176     2.357     0.841     0.786  0.5092 -0.0350  0.8599
 
              Baa    -0.0141    -1.891    -0.675    -0.631  0.8277 -0.2933  0.4783
    24 C(13)  Bbb    -0.0035    -0.470    -0.168    -0.157  0.2348  0.9553  0.1795
              Bcc     0.0176     2.360     0.842     0.787 -0.5096 -0.0362  0.8596
 
              Baa    -0.0912    -3.517    -1.255    -1.173  0.2345  0.9679  0.0910
    25 N(14)  Bbb    -0.0904    -3.486    -1.244    -1.163  0.9711 -0.2375  0.0247
              Bcc     0.1816     7.003     2.499     2.336 -0.0455 -0.0826  0.9955
 
              Baa    -0.0912    -3.517    -1.255    -1.173 -0.2344  0.9678  0.0912
    26 N(14)  Bbb    -0.0904    -3.486    -1.244    -1.163  0.9711  0.2375 -0.0242
              Bcc     0.1816     7.003     2.499     2.336  0.0451 -0.0829  0.9955
 
              Baa    -0.0017    -0.234    -0.084    -0.078  0.9108 -0.3692 -0.1846
    27 C(13)  Bbb    -0.0003    -0.044    -0.016    -0.015 -0.1416 -0.6995  0.7005
              Bcc     0.0021     0.279     0.099     0.093  0.3877  0.6119  0.6894
 
              Baa    -0.0012    -0.665    -0.237    -0.222 -0.0235  0.3510  0.9361
    28 H(1)   Bbb    -0.0005    -0.251    -0.089    -0.084  0.9950 -0.0824  0.0559
              Bcc     0.0017     0.916     0.327     0.306  0.0967  0.9328 -0.3473
 
              Baa    -0.0015    -0.819    -0.292    -0.273 -0.0444 -0.1520  0.9874
    29 H(1)   Bbb     0.0003     0.158     0.056     0.053 -0.0861  0.9853  0.1478
              Bcc     0.0012     0.661     0.236     0.220  0.9953  0.0785  0.0569
 
              Baa    -0.0013    -0.684    -0.244    -0.228  0.0947 -0.4334  0.8962
    30 H(1)   Bbb    -0.0003    -0.180    -0.064    -0.060  0.9886  0.1467 -0.0335
              Bcc     0.0016     0.864     0.308     0.288 -0.1170  0.8892  0.4424
 
              Baa    -0.0023    -0.303    -0.108    -0.101  0.0928  0.9708  0.2213
    31 C(13)  Bbb    -0.0003    -0.034    -0.012    -0.011 -0.4584 -0.1557  0.8750
              Bcc     0.0025     0.337     0.120     0.112  0.8839 -0.1827  0.4305
 
              Baa    -0.0012    -0.638    -0.228    -0.213 -0.1609  0.3563  0.9204
    32 H(1)   Bbb    -0.0007    -0.367    -0.131    -0.122  0.5483  0.8077 -0.2168
              Bcc     0.0019     1.005     0.359     0.335  0.8206 -0.4698  0.3254
 
              Baa    -0.0011    -0.606    -0.216    -0.202  0.1903 -0.5068  0.8408
    33 H(1)   Bbb    -0.0009    -0.468    -0.167    -0.156  0.4168  0.8172  0.3981
              Bcc     0.0020     1.074     0.383     0.358  0.8888 -0.2747 -0.3668
 
              Baa    -0.0012    -0.652    -0.232    -0.217 -0.1886  0.0458  0.9810
    34 H(1)   Bbb    -0.0003    -0.177    -0.063    -0.059 -0.2062  0.9748 -0.0851
              Bcc     0.0016     0.828     0.296     0.276  0.9602  0.2184  0.1744
 
              Baa    -0.0018    -0.235    -0.084    -0.078  0.9111  0.3682  0.1855
    35 C(13)  Bbb    -0.0003    -0.045    -0.016    -0.015 -0.1409  0.7009 -0.6992
              Bcc     0.0021     0.280     0.100     0.093 -0.3875  0.6109  0.6904
 
              Baa    -0.0012    -0.666    -0.238    -0.222  0.0233  0.3500  0.9364
    36 H(1)   Bbb    -0.0005    -0.251    -0.090    -0.084  0.9951  0.0823 -0.0555
              Bcc     0.0017     0.917     0.327     0.306 -0.0965  0.9331 -0.3464
 
              Baa    -0.0015    -0.819    -0.292    -0.273  0.0446 -0.1522  0.9873
    37 H(1)   Bbb     0.0003     0.158     0.056     0.053  0.0858  0.9853  0.1480
              Bcc     0.0012     0.661     0.236     0.220  0.9953 -0.0781 -0.0570
 
              Baa    -0.0013    -0.684    -0.244    -0.228 -0.0955 -0.4344  0.8956
    38 H(1)   Bbb    -0.0003    -0.179    -0.064    -0.060  0.9885 -0.1474  0.0339
              Bcc     0.0016     0.863     0.308     0.288  0.1173  0.8886  0.4435
 
              Baa    -0.0023    -0.302    -0.108    -0.101 -0.0923  0.9700  0.2247
    39 C(13)  Bbb    -0.0002    -0.033    -0.012    -0.011  0.4552 -0.1596  0.8760
              Bcc     0.0025     0.335     0.120     0.112  0.8856  0.1832 -0.4268
 
              Baa    -0.0012    -0.638    -0.228    -0.213  0.1616  0.3496  0.9228
    40 H(1)   Bbb    -0.0007    -0.368    -0.131    -0.123 -0.5474  0.8099 -0.2109
              Bcc     0.0019     1.006     0.359     0.336  0.8211  0.4711 -0.3223
 
              Baa    -0.0011    -0.605    -0.216    -0.202 -0.1915 -0.5099  0.8387
    41 H(1)   Bbb    -0.0009    -0.467    -0.167    -0.156 -0.4160  0.8161  0.4012
              Bcc     0.0020     1.072     0.383     0.358  0.8890  0.2721  0.3684
 
              Baa    -0.0012    -0.652    -0.233    -0.218  0.1897  0.0455  0.9808
    42 H(1)   Bbb    -0.0003    -0.176    -0.063    -0.059  0.2051  0.9750 -0.0849
              Bcc     0.0016     0.829     0.296     0.276  0.9602 -0.2173 -0.1756
 

 ---------------------------------------------------------------------------------

 No NMR shielding tensors so no spin-rotation constants.
 Leave Link  601 at Thu Jan 21 02:28:20 2021, MaxMem=  4026531840 cpu:               5.5 elap:               0.8
 (Enter /opt/ohpc/pub/libs/gaussian/g16-A.03/sandybridge/g16/l9999.exe)

 Test job not archived.
 1\1\GINC-CASCADEB025\SP\ULC-wHPBE\TZVP\C19H21N2(2+,2)\RDU230\21-Jan-20
 21\0\\#P LC-wHPBE/TZVP iop(3/107=0230500000, 3/108=0230500000) scf=(co
 nver=6,fermi,ndamp=35,noincfock,novaracc,vshift=500,xqc)\\H21 C19 N2\\
 2,2\C,0,5.924302,-1.175178,0.28256\C,0,6.625626,0.000025,-0.000251\C,0
 ,4.530324,-1.177472,0.278212\C,0,5.924206,1.175202,-0.282951\C,0,3.810
 936,-0.000036,-0.000021\C,0,4.530233,1.177435,-0.278371\H,0,7.716547,0
 .000056,-0.000331\H,0,3.994064,-2.094974,0.527939\H,0,6.466302,2.09321
 ,-0.514746\H,0,3.99388,2.094904,-0.52801\C,0,2.333716,-0.000062,0.0001
 09\C,0,1.604784,1.119278,0.452707\C,0,1.604752,-1.119433,-0.452341\C,0
 ,0.21685,1.12577,0.449243\C,0,0.216813,-1.125977,-0.44867\C,0,-0.50491
 9,-0.000106,0.000309\H,0,2.141671,1.985727,0.840835\H,0,2.141597,-1.98
 5891,-0.840507\H,0,-0.315693,1.995203,0.838189\H,0,-0.315745,-1.995465
 ,-0.837475\H,0,6.466484,-2.093156,0.514265\C,0,-1.942874,-0.000086,0.0
 00402\C,0,-3.143323,-0.702637,-0.003392\C,0,-3.143127,0.702801,0.00391
 5\N,0,-3.78708,-1.855019,0.001668\N,0,-3.786774,1.855252,-0.001097\C,0
 ,-3.068411,-3.12252,0.167733\H,0,-3.187886,-3.74858,-0.728596\H,0,-2.0
 05788,-2.927607,0.341041\H,0,-3.471162,-3.663551,1.036238\C,0,-5.24512
 1,-1.94416,-0.100275\H,0,-5.509149,-2.713998,-0.838669\H,0,-5.688951,-
 2.217262,0.869111\H,0,-5.659251,-0.989594,-0.439085\C,0,-3.068047,3.12
 2616,-0.16813\H,0,-3.188116,3.749602,0.727455\H,0,-2.005304,2.927538,-
 0.340531\H,0,-3.470192,3.662707,-1.037509\C,0,-5.24495,1.944232,0.0993
 91\H,0,-5.509538,2.71844,0.832954\H,0,-5.688631,2.211256,-0.871774\H,0
 ,-5.658779,0.991638,0.444142\\Version=EM64L-G16RevA.03\State=2-A\HF=-8
 45.0158486\S2=0.78622\S2-1=0.\S2A=0.750884\RMSD=5.620e-08\Dipole=-0.91
 77394,0.000049,-0.0008331\Quadrupole=87.5332923,-23.8658791,-63.667413
 3,-0.0002099,0.0044859,0.1969513\PG=C01 [X(C19H21N2)]\\@


 SCIENCE AND PEACE WILL TRIUMPH OVER IGNORANCE AND WAR

                          -- PASTEUR
 Job cpu time:       0 days  3 hours 48 minutes 43.4 seconds.
 Elapsed time:       0 days  0 hours 28 minutes 40.9 seconds.
 File lengths (MBytes):  RWF=    188 Int=      0 D2E=      0 Chk=     24 Scr=      8
 Normal termination of Gaussian 16 at Thu Jan 21 02:28:20 2021.
