 Entering Gaussian System, Link 0=g16
 Input=mol_bp_cp_half_tune_n9.gjf
 Output=mol_bp_cp_half_tune_n9.log
 Initial command:
 /opt/ohpc/pub/libs/gaussian/g16-A.03/sandybridge/g16/l1.exe "/mnt/gpfs2_4m/scratch/rdu230/ondemand/projects/init_structures/wtuning/mol_bp_cp_half/tuning_mol_bp_cp_half_ocycle0/Gau-288625.inp" -scrdir="/mnt/gpfs2_4m/scratch/rdu230/ondemand/projects/init_structures/wtuning/mol_bp_cp_half/tuning_mol_bp_cp_half_ocycle0/"
 Entering Link 1 = /opt/ohpc/pub/libs/gaussian/g16-A.03/sandybridge/g16/l1.exe PID=    288626.
  
 Copyright (c) 1988,1990,1992,1993,1995,1998,2003,2009,2016,
            Gaussian, Inc.  All Rights Reserved.
  
 This is part of the Gaussian(R) 16 program.  It is based on
 the Gaussian(R) 09 system (copyright 2009, Gaussian, Inc.),
 the Gaussian(R) 03 system (copyright 2003, Gaussian, Inc.),
 the Gaussian(R) 98 system (copyright 1998, Gaussian, Inc.),
 the Gaussian(R) 94 system (copyright 1995, Gaussian, Inc.),
 the Gaussian 92(TM) system (copyright 1992, Gaussian, Inc.),
 the Gaussian 90(TM) system (copyright 1990, Gaussian, Inc.),
 the Gaussian 88(TM) system (copyright 1988, Gaussian, Inc.),
 the Gaussian 86(TM) system (copyright 1986, Carnegie Mellon
 University), and the Gaussian 82(TM) system (copyright 1983,
 Carnegie Mellon University). Gaussian is a federally registered
 trademark of Gaussian, Inc.
  
 This software contains proprietary and confidential information,
 including trade secrets, belonging to Gaussian, Inc.
  
 This software is provided under written license and may be
 used, copied, transmitted, or stored only in accord with that
 written license.
  
 The following legend is applicable only to US Government
 contracts under FAR:
  
                    RESTRICTED RIGHTS LEGEND
  
 Use, reproduction and disclosure by the US Government is
 subject to restrictions as set forth in subparagraphs (a)
 and (c) of the Commercial Computer Software - Restricted
 Rights clause in FAR 52.227-19.
  
 Gaussian, Inc.
 340 Quinnipiac St., Bldg. 40, Wallingford CT 06492
  
  
 ---------------------------------------------------------------
 Warning -- This program may not be used in any manner that
 competes with the business of Gaussian, Inc. or will provide
 assistance to any competitor of Gaussian, Inc.  The licensee
 of this program is prohibited from giving any competitor of
 Gaussian, Inc. access to this program.  By using this program,
 the user acknowledges that Gaussian, Inc. is engaged in the
 business of creating and licensing software in the field of
 computational chemistry and represents and warrants to the
 licensee that it is not a competitor of Gaussian, Inc. and that
 it will not use this program in any manner prohibited above.
 ---------------------------------------------------------------
  

 Cite this work as:
 Gaussian 16, Revision A.03,
 M. J. Frisch, G. W. Trucks, H. B. Schlegel, G. E. Scuseria, 
 M. A. Robb, J. R. Cheeseman, G. Scalmani, V. Barone, 
 G. A. Petersson, H. Nakatsuji, X. Li, M. Caricato, A. V. Marenich, 
 J. Bloino, B. G. Janesko, R. Gomperts, B. Mennucci, H. P. Hratchian, 
 J. V. Ortiz, A. F. Izmaylov, J. L. Sonnenberg, D. Williams-Young, 
 F. Ding, F. Lipparini, F. Egidi, J. Goings, B. Peng, A. Petrone, 
 T. Henderson, D. Ranasinghe, V. G. Zakrzewski, J. Gao, N. Rega, 
 G. Zheng, W. Liang, M. Hada, M. Ehara, K. Toyota, R. Fukuda, 
 J. Hasegawa, M. Ishida, T. Nakajima, Y. Honda, O. Kitao, H. Nakai, 
 T. Vreven, K. Throssell, J. A. Montgomery, Jr., J. E. Peralta, 
 F. Ogliaro, M. J. Bearpark, J. J. Heyd, E. N. Brothers, K. N. Kudin, 
 V. N. Staroverov, T. A. Keith, R. Kobayashi, J. Normand, 
 K. Raghavachari, A. P. Rendell, J. C. Burant, S. S. Iyengar, 
 J. Tomasi, M. Cossi, J. M. Millam, M. Klene, C. Adamo, R. Cammi, 
 J. W. Ochterski, R. L. Martin, K. Morokuma, O. Farkas, 
 J. B. Foresman, and D. J. Fox, Gaussian, Inc., Wallingford CT, 2016.
 
 ******************************************
 Gaussian 16:  EM64L-G16RevA.03 25-Dec-2016
                21-Jan-2021 
 ******************************************
 %mem=30GB
 %nproc=8
 Will use up to    8 processors via shared memory.
 ----------------------------------------------------------------------
 #P LC-wHPBE/TZVP iop(3/107=0208100000, 3/108=0208100000) scf=(conver=6
 ,fermi,ndamp=35,noincfock,novaracc,vshift=500,xqc)
 ----------------------------------------------------------------------
 1/38=1,172=1/1;
 2/12=2,17=6,18=5,40=1/2;
 3/5=19,7=101,11=2,25=1,30=1,74=-71,107=208100000,108=208100000/1,2,3;
 4//1;
 5/5=100002,6=6,8=3,10=500,13=1,18=-1,22=13,38=1,93=35/2,8;
 6/7=2,8=2,9=2,10=2,28=1/1;
 99/5=1,9=1/99;
 Leave Link    1 at Thu Jan 21 05:30:20 2021, MaxMem=  4026531840 cpu:               1.3 elap:               0.2
 (Enter /opt/ohpc/pub/libs/gaussian/g16-A.03/sandybridge/g16/l101.exe)
 ----------
 H21 C19 N2
 ----------
 Symbolic Z-matrix:
 Charge =  1 Multiplicity = 1
 C                     5.9243   -1.17518   0.28256 
 C                     6.62563   0.00003  -0.00025 
 C                     4.53032  -1.17747   0.27821 
 C                     5.92421   1.1752   -0.28295 
 C                     3.81094  -0.00004  -0.00002 
 C                     4.53023   1.17744  -0.27837 
 H                     7.71655   0.00006  -0.00033 
 H                     3.99406  -2.09497   0.52794 
 H                     6.4663    2.09321  -0.51475 
 H                     3.99388   2.0949   -0.52801 
 C                     2.33372  -0.00006   0.00011 
 C                     1.60478   1.11928   0.45271 
 C                     1.60475  -1.11943  -0.45234 
 C                     0.21685   1.12577   0.44924 
 C                     0.21681  -1.12598  -0.44867 
 C                    -0.50492  -0.00011   0.00031 
 H                     2.14167   1.98573   0.84084 
 H                     2.1416   -1.98589  -0.84051 
 H                    -0.31569   1.9952    0.83819 
 H                    -0.31575  -1.99547  -0.83748 
 H                     6.46648  -2.09316   0.51427 
 C                    -1.94287  -0.00009   0.0004 
 C                    -3.14332  -0.70264  -0.00339 
 C                    -3.14313   0.7028    0.00392 
 N                    -3.78708  -1.85502   0.00167 
 N                    -3.78677   1.85525  -0.0011 
 C                    -3.06841  -3.12252   0.16773 
 H                    -3.18789  -3.74858  -0.7286 
 H                    -2.00579  -2.92761   0.34104 
 H                    -3.47116  -3.66355   1.03624 
 C                    -5.24512  -1.94416  -0.10028 
 H                    -5.50915  -2.714    -0.83867 
 H                    -5.68895  -2.21726   0.86911 
 H                    -5.65925  -0.98959  -0.43909 
 C                    -3.06805   3.12262  -0.16813 
 H                    -3.18812   3.7496    0.72746 
 H                    -2.0053    2.92754  -0.34053 
 H                    -3.47019   3.66271  -1.03751 
 C                    -5.24495   1.94423   0.09939 
 H                    -5.50954   2.71844   0.83295 
 H                    -5.68863   2.21126  -0.87177 
 H                    -5.65878   0.99164   0.44414 
 
 ITRead=  0  0  0  0  0  0  0  0  0  0  0  0  0  0  0  0  0  0  0  0
 ITRead=  0  0  0  0  0  0  0  0  0  0  0  0  0  0  0  0  0  0  0  0
 ITRead=  0  0
 MicOpt= -1 -1 -1 -1 -1 -1 -1 -1 -1 -1 -1 -1 -1 -1 -1 -1 -1 -1 -1 -1
 MicOpt= -1 -1 -1 -1 -1 -1 -1 -1 -1 -1 -1 -1 -1 -1 -1 -1 -1 -1 -1 -1
 MicOpt= -1 -1
 NAtoms=     42 NQM=       42 NQMF=       0 NMMI=      0 NMMIF=      0
                NMic=       0 NMicF=      0.
                    Isotopes and Nuclear Properties:
 (Nuclear quadrupole moments (NQMom) in fm**2, nuclear magnetic moments (NMagM)
  in nuclear magnetons)

  Atom         1           2           3           4           5           6           7           8           9          10
 IAtWgt=          12          12          12          12          12          12           1           1           1           1
 AtmWgt=  12.0000000  12.0000000  12.0000000  12.0000000  12.0000000  12.0000000   1.0078250   1.0078250   1.0078250   1.0078250
 NucSpn=           0           0           0           0           0           0           1           1           1           1
 AtZEff=  -0.0000000  -0.0000000  -0.0000000  -0.0000000  -0.0000000  -0.0000000  -0.0000000  -0.0000000  -0.0000000  -0.0000000
 NQMom=    0.0000000   0.0000000   0.0000000   0.0000000   0.0000000   0.0000000   0.0000000   0.0000000   0.0000000   0.0000000
 NMagM=    0.0000000   0.0000000   0.0000000   0.0000000   0.0000000   0.0000000   2.7928460   2.7928460   2.7928460   2.7928460
 AtZNuc=   6.0000000   6.0000000   6.0000000   6.0000000   6.0000000   6.0000000   1.0000000   1.0000000   1.0000000   1.0000000

  Atom        11          12          13          14          15          16          17          18          19          20
 IAtWgt=          12          12          12          12          12          12           1           1           1           1
 AtmWgt=  12.0000000  12.0000000  12.0000000  12.0000000  12.0000000  12.0000000   1.0078250   1.0078250   1.0078250   1.0078250
 NucSpn=           0           0           0           0           0           0           1           1           1           1
 AtZEff=  -0.0000000  -0.0000000  -0.0000000  -0.0000000  -0.0000000  -0.0000000  -0.0000000  -0.0000000  -0.0000000  -0.0000000
 NQMom=    0.0000000   0.0000000   0.0000000   0.0000000   0.0000000   0.0000000   0.0000000   0.0000000   0.0000000   0.0000000
 NMagM=    0.0000000   0.0000000   0.0000000   0.0000000   0.0000000   0.0000000   2.7928460   2.7928460   2.7928460   2.7928460
 AtZNuc=   6.0000000   6.0000000   6.0000000   6.0000000   6.0000000   6.0000000   1.0000000   1.0000000   1.0000000   1.0000000

  Atom        21          22          23          24          25          26          27          28          29          30
 IAtWgt=           1          12          12          12          14          14          12           1           1           1
 AtmWgt=   1.0078250  12.0000000  12.0000000  12.0000000  14.0030740  14.0030740  12.0000000   1.0078250   1.0078250   1.0078250
 NucSpn=           1           0           0           0           2           2           0           1           1           1
 AtZEff=  -0.0000000  -0.0000000  -0.0000000  -0.0000000  -0.0000000  -0.0000000  -0.0000000  -0.0000000  -0.0000000  -0.0000000
 NQMom=    0.0000000   0.0000000   0.0000000   0.0000000   2.0440000   2.0440000   0.0000000   0.0000000   0.0000000   0.0000000
 NMagM=    2.7928460   0.0000000   0.0000000   0.0000000   0.4037610   0.4037610   0.0000000   2.7928460   2.7928460   2.7928460
 AtZNuc=   1.0000000   6.0000000   6.0000000   6.0000000   7.0000000   7.0000000   6.0000000   1.0000000   1.0000000   1.0000000

  Atom        31          32          33          34          35          36          37          38          39          40
 IAtWgt=          12           1           1           1          12           1           1           1          12           1
 AtmWgt=  12.0000000   1.0078250   1.0078250   1.0078250  12.0000000   1.0078250   1.0078250   1.0078250  12.0000000   1.0078250
 NucSpn=           0           1           1           1           0           1           1           1           0           1
 AtZEff=  -0.0000000  -0.0000000  -0.0000000  -0.0000000  -0.0000000  -0.0000000  -0.0000000  -0.0000000  -0.0000000  -0.0000000
 NQMom=    0.0000000   0.0000000   0.0000000   0.0000000   0.0000000   0.0000000   0.0000000   0.0000000   0.0000000   0.0000000
 NMagM=    0.0000000   2.7928460   2.7928460   2.7928460   0.0000000   2.7928460   2.7928460   2.7928460   0.0000000   2.7928460
 AtZNuc=   6.0000000   1.0000000   1.0000000   1.0000000   6.0000000   1.0000000   1.0000000   1.0000000   6.0000000   1.0000000

  Atom        41          42
 IAtWgt=           1           1
 AtmWgt=   1.0078250   1.0078250
 NucSpn=           1           1
 AtZEff=  -0.0000000  -0.0000000
 NQMom=    0.0000000   0.0000000
 NMagM=    2.7928460   2.7928460
 AtZNuc=   1.0000000   1.0000000
 Leave Link  101 at Thu Jan 21 05:30:20 2021, MaxMem=  4026531840 cpu:               0.6 elap:               0.1
 (Enter /opt/ohpc/pub/libs/gaussian/g16-A.03/sandybridge/g16/l202.exe)
                          Input orientation:                          
 ---------------------------------------------------------------------
 Center     Atomic      Atomic             Coordinates (Angstroms)
 Number     Number       Type             X           Y           Z
 ---------------------------------------------------------------------
      1          6           0        5.924302   -1.175178    0.282560
      2          6           0        6.625626    0.000025   -0.000251
      3          6           0        4.530324   -1.177472    0.278212
      4          6           0        5.924206    1.175202   -0.282951
      5          6           0        3.810936   -0.000036   -0.000021
      6          6           0        4.530233    1.177435   -0.278371
      7          1           0        7.716547    0.000056   -0.000331
      8          1           0        3.994064   -2.094974    0.527939
      9          1           0        6.466302    2.093210   -0.514746
     10          1           0        3.993880    2.094904   -0.528010
     11          6           0        2.333716   -0.000062    0.000109
     12          6           0        1.604784    1.119278    0.452707
     13          6           0        1.604752   -1.119433   -0.452341
     14          6           0        0.216850    1.125770    0.449243
     15          6           0        0.216813   -1.125977   -0.448670
     16          6           0       -0.504919   -0.000106    0.000309
     17          1           0        2.141671    1.985727    0.840835
     18          1           0        2.141597   -1.985891   -0.840507
     19          1           0       -0.315693    1.995203    0.838189
     20          1           0       -0.315745   -1.995465   -0.837475
     21          1           0        6.466484   -2.093156    0.514265
     22          6           0       -1.942874   -0.000086    0.000402
     23          6           0       -3.143323   -0.702637   -0.003392
     24          6           0       -3.143127    0.702801    0.003915
     25          7           0       -3.787080   -1.855019    0.001668
     26          7           0       -3.786774    1.855252   -0.001097
     27          6           0       -3.068411   -3.122520    0.167733
     28          1           0       -3.187886   -3.748580   -0.728596
     29          1           0       -2.005788   -2.927607    0.341041
     30          1           0       -3.471162   -3.663551    1.036238
     31          6           0       -5.245121   -1.944160   -0.100275
     32          1           0       -5.509149   -2.713998   -0.838669
     33          1           0       -5.688951   -2.217262    0.869111
     34          1           0       -5.659251   -0.989594   -0.439085
     35          6           0       -3.068047    3.122616   -0.168130
     36          1           0       -3.188116    3.749602    0.727455
     37          1           0       -2.005304    2.927538   -0.340531
     38          1           0       -3.470192    3.662707   -1.037509
     39          6           0       -5.244950    1.944232    0.099391
     40          1           0       -5.509538    2.718440    0.832954
     41          1           0       -5.688631    2.211256   -0.871774
     42          1           0       -5.658779    0.991638    0.444142
 ---------------------------------------------------------------------
                    Distance matrix (angstroms):
                    1          2          3          4          5
     1  C    0.000000
     2  C    1.397476   0.000000
     3  C    1.393987   2.419573   0.000000
     4  C    2.417455   1.397480   2.791574   0.000000
     5  C    2.434569   2.814690   1.407582   2.434573   0.000000
     6  C    2.791569   2.419570   2.419788   1.393982   1.407588
     7  H    2.161792   1.090921   3.408251   2.161788   3.905611
     8  H    2.152221   3.404868   1.091672   3.882917   2.168189
     9  H    3.407612   2.161368   3.882545   1.091025   3.420174
    10  H    3.882910   3.404869   3.412655   2.152223   2.168182
    11  C    3.788533   4.291910   2.507733   3.788534   1.477220
    12  C    4.894049   5.163986   3.723479   4.381977   2.514942
    13  C    4.381974   5.163986   3.015965   4.894050   2.514934
    14  C    6.156066   6.522404   4.892876   5.754343   3.792985
    15  C    5.754350   6.522411   4.374630   6.156072   3.792987
    16  C    6.541815   7.130545   5.178522   6.541807   4.315855
    17  H    4.960977   4.975569   4.003503   4.028327   2.727039
    18  H    4.028324   4.975581   2.758820   4.960999   2.727037
    19  H    7.021223   7.270875   5.819220   6.392628   4.659683
    20  H    6.392616   7.270870   5.039668   7.021226   4.659674
    21  H    1.091023   2.161356   2.154742   3.407607   3.420172
    22  C    7.959454   8.568500   6.585265   7.959431   5.753810
    23  C    9.084431   9.794187   7.693480   9.264152   6.989662
    24  C    9.264055   9.794001   7.905221   9.084161   6.989491
    25  N    9.739200  10.576655   8.349536  10.177049   7.821177
    26  N   10.176884  10.576386   8.857175   9.738842   7.820952
    27  C    9.201859  10.185915   7.844501   9.977008   7.556683
    28  H    9.522437  10.530315   8.197257  10.366892   7.972823
    29  H    8.121623   9.120790   6.766659   8.950263   6.520834
    30  H    9.748578  10.790794   8.413024  10.650199   8.217307
    31  C   11.202406  12.029318   9.812767  11.598175   9.262928
    32  H   11.590898  12.462810  10.217600  12.089512   9.743352
    33  H   11.674657  12.542765  10.289019  12.153250   9.793842
    34  H   11.607494  12.332482  10.216519  11.785041   9.531865
    35  C    9.976798  10.185581   8.742152   9.201425   7.556429
    36  H   10.367620  10.530832   9.167998   9.522755   7.973439
    37  H    8.949814   9.120256   7.742634   8.121030   6.520375
    38  H   10.649142  10.789656   9.442813   9.747397   8.216258
    39  C   11.598123  12.029150  10.263186  11.202127   9.262782
    40  H   12.091149  12.463796  10.783538  11.591261   9.744496
    41  H   12.151569  12.541532  10.827418  11.673821   9.792423
    42  H   11.785116  12.332372  10.418752  11.607235   9.531852
                    6          7          8          9         10
     6  C    0.000000
     7  H    3.408244   0.000000
     8  H    3.412664   4.304079   0.000000
     9  H    2.154734   2.491792   4.973936   0.000000
    10  H    1.091670   4.304077   4.320892   2.472458   0.000000
    11  C    2.507735   5.382831   2.724705   4.661022   2.724690
    12  C    3.015976   6.229892   4.005713   5.051620   2.760694
    13  C    3.723481   6.229896   2.760696   5.827490   4.005699
    14  C    4.374627   7.597026   4.964547   6.396942   4.019975
    15  C    4.892883   7.597037   4.019993   7.030195   4.964535
    16  C    5.178515   8.221466   4.990763   7.296929   4.990729
    17  H    2.758838   5.977432   4.492370   4.533386   2.305718
    18  H    4.003525   5.977453   2.305684   5.953844   4.492382
    19  H    5.039687   8.318690   5.949774   6.916321   4.522042
    20  H    5.819226   8.318692   4.522025   7.925754   5.949769
    21  H    3.882539   2.491787   2.472458   4.310977   4.973927
    22  C    6.585240   9.659421   6.317759   8.681101   6.317693
    23  C    7.905299  10.882581   7.291310  10.021134   7.683822
    24  C    7.693206  10.882389   7.683856   9.723342   7.290937
    25  N    8.857307  11.652242   7.802611  10.999411   8.742184
    26  N    8.349187  11.651959   8.742174  10.268692   7.802157
    27  C    8.742312  11.229160   7.145919  10.889461   8.808038
    28  H    9.167207  11.553757   7.476209  11.286079   9.260902
    29  H    7.743036  10.159308   6.060234   9.885205   7.872540
    30  H    9.443816  11.817839   7.645155  11.588746   9.556858
    31  C   10.263217  13.107052   9.261746  12.394740  10.092380
    32  H   10.781761  13.527303   9.620908  12.908354  10.655027
    33  H   10.829238  13.615425   9.689795  12.970945  10.691302
    34  H   10.418610  13.419534   9.764399  12.511532  10.134346
    35  C    7.844090  11.228802   8.808017   9.596022   7.145384
    36  H    8.197600  11.554239   9.261889   9.873930   7.476315
    37  H    6.766090  10.158754   7.872248   8.514374   6.059590
    38  H    8.411877  11.816678   9.555974  10.073257   7.643950
    39  C    9.812486  13.106875  10.092483  11.728290   9.261334
    40  H   10.217962  13.528241  10.657412  12.067641   9.620602
    41  H   10.288153  13.614243  10.689125  12.160748   9.689310
    42  H   10.216287  13.419394  10.134672  12.212719   9.764021
                   11         12         13         14         15
    11  C    0.000000
    12  C    1.410358   0.000000
    13  C    1.410351   2.414734   0.000000
    14  C    2.439332   1.387954   2.789276   0.000000
    15  C    2.439337   2.789286   1.387959   2.424172   0.000000
    16  C    2.838635   2.430747   2.430740   1.410705   1.410697
    17  H    2.164962   1.090699   3.406260   2.144250   3.879511
    18  H    2.164962   3.406266   1.090699   3.879503   2.144244
    19  H    3.420940   2.145710   3.880017   1.091235   3.417797
    20  H    3.420939   3.880029   2.145709   3.417808   1.091236
    21  H    4.661027   5.827491   5.051624   7.030195   6.396958
    22  C    4.276590   3.747457   3.747474   2.476574   2.476599
    23  C    5.521918   5.106067   4.787430   3.852105   3.415846
    24  C    5.521761   4.787225   5.105983   3.415650   3.852072
    25  N    6.395703   6.174308   5.460683   5.011675   4.094565
    26  N    6.395513   5.460448   6.174214   4.094381   5.011662
    27  C    6.241860   6.317659   5.122041   5.377746   3.893435
    28  H    6.713456   6.932619   5.473400   6.061256   4.306783
    29  H    5.245765   5.424572   4.115209   4.624034   2.968075
    30  H    6.941997   6.998656   5.869694   6.073186   4.716502
    31  C    7.824856   7.524071   6.908320   6.289640   5.533853
    32  H    8.341434   8.183502   7.300649   7.013530   5.954876
    33  H    8.368651   8.031467   7.493301   6.799312   6.148618
    34  H    8.065952   7.616353   7.265175   6.308126   5.877654
    35  C    6.241672   5.121928   6.317500   3.893468   5.377690
    36  H    6.714137   5.474119   6.933326   4.307632   6.062020
    37  H    5.245376   4.114823   5.424295   2.967841   4.623903
    38  H    6.941028   5.869000   6.997595   4.716011   6.072251
    39  C    7.824725   6.908273   7.523887   5.533854   6.289468
    40  H    8.342692   7.301745   8.185009   5.956119   7.015212
    41  H    8.367088   7.492701   8.028876   6.148014   6.796353
    42  H    8.066016   7.264689   7.617033   5.877162   6.309040
                   16         17         18         19         20
    16  C    0.000000
    17  H    3.413862   0.000000
    18  H    3.413848   4.312848   0.000000
    19  H    2.172351   2.457384   4.970453   0.000000
    20  H    2.172355   4.970464   2.457363   4.328196   0.000000
    21  H    7.296949   5.953817   4.533383   7.925751   6.916312
    22  C    1.437955   4.618797   4.618815   2.707542   2.707605
    23  C    2.730337   5.989256   5.502534   3.997761   3.219052
    24  C    2.730244   5.502311   5.989192   3.218804   3.997833
    25  N    3.770051   7.113763   5.989624   5.251143   3.574081
    26  N    3.770004   5.989352   7.113689   3.573848   5.251247
    27  C    4.043389   7.327497   5.427030   5.849620   3.139724
    28  H    4.666977   7.984333   5.614533   6.610246   3.366669
    29  H    3.307411   6.449191   4.414033   5.228540   2.261423
    30  H    4.826238   7.965954   6.151405   6.482107   4.031125
    31  C    5.124351   8.419881   7.423832   6.379542   4.984460
    32  H    5.754252   9.134725   7.685314   7.208357   5.242875
    33  H    5.704804   8.887326   8.018342   6.827717   5.642072
    34  H    5.266810   8.446604   7.874451   6.252524   5.451931
    35  C    4.043438   5.426941   7.327300   3.139935   5.849610
    36  H    4.667826   5.615224   7.985000   3.367639   6.611000
    37  H    3.307329   4.413619   6.448918   2.261286   5.228530
    38  H    4.825568   6.150890   7.964775   4.031089   6.481162
    39  C    5.124272   7.423856   8.419641   4.984576   6.379341
    40  H    5.755867   7.686217   9.136250   5.243961   7.210182
    41  H    5.702764   8.018574   8.884227   5.642616   6.823898
    42  H    5.267145   7.873538   8.447595   5.450778   6.254066
                   21         22         23         24         25
    21  H    0.000000
    22  C    8.681146   0.000000
    23  C    9.723677   1.390924   0.000000
    24  C   10.021101   1.390924   1.405457   0.000000
    25  N   10.269130   2.615698   1.320012   2.637636   0.000000
    26  N   10.999310   2.615769   2.637580   1.320019   3.710272
    27  C    9.596557   3.323316   2.427082   3.829556   1.466500
    28  H    9.873803   4.016553   3.131402   4.511471   2.116103
    29  H    8.515028   2.947944   2.522521   3.819300   2.106803
    30  H   10.074493   4.102389   3.155205   4.498703   2.107351
    31  C   11.728664   3.833327   2.443015   3.381662   1.464316
    32  H   12.067794   4.559350   3.215648   4.240581   2.099889
    33  H   12.161247   4.438876   3.087972   3.969452   2.121507
    34  H   12.213115   3.870883   2.569449   3.064528   2.109087
    35  C   10.889317   3.323505   3.829539   2.427085   5.032166
    36  H   11.286920   4.017386   4.512048   3.131857   5.683071
    37  H    9.884798   2.948070   3.819283   2.522447   5.115142
    38  H   11.587730   4.101952   4.498052   3.154771   5.623665
    39  C   12.394769   3.833259   3.381319   2.442934   4.070533
    40  H   12.910388   4.561208   4.242902   3.217143   4.957260
    41  H   12.969036   4.436375   3.965281   3.085751   4.573116
    42  H   12.511709   3.871482   3.065677   2.570162   3.435476
                   26         27         28         29         30
    26  N    0.000000
    27  C    5.032173   0.000000
    28  H    5.682504   1.099832   0.000000
    29  H    5.115145   1.094164   1.793175   0.000000
    30  H    5.624310   1.099647   1.789445   1.781076   0.000000
    31  C    4.070890   2.489664   2.807656   3.413972   2.719356
    32  H    4.954407   2.671505   2.543765   3.702821   2.927511
    33  H    4.578309   2.859834   3.339600   3.788026   2.652974
    34  H    3.433825   3.410286   3.715302   4.208596   3.756908
    35  C    1.466520   6.254161   6.895058   6.163834   6.903989
    36  H    2.116067   6.895918   7.638247   6.792079   7.424978
    37  H    2.106810   6.163743   6.791145   5.894681   6.891058
    38  H    2.107432   6.903140   7.423092   6.890364   7.614098
    39  C    1.464340   5.514886   6.109434   5.855372   5.955773
    40  H    2.099679   6.365409   7.046336   6.663039   6.702694
    41  H    2.121763   6.032851   6.464818   6.437559   6.562853
    42  H    2.109140   4.869569   5.472686   5.358680   5.177551
                   31         32         33         34         35
    31  C    0.000000
    32  H    1.098903   0.000000
    33  H    1.100581   1.787621   0.000000
    34  H    1.094300   1.776448   1.794276   0.000000
    35  C    5.515113   6.361970   6.038154   4.868062   0.000000
    36  H    6.110264   7.044009   6.471299   5.470585   1.099818
    37  H    5.855560   6.659730   6.442162   5.357701   1.094166
    38  H    5.955312   6.697705   6.567505   5.176292   1.099654
    39  C    3.893515   4.759082   4.255307   3.011468   2.489792
    40  H    4.762423   5.683811   4.939094   3.923011   2.669533
    41  H    4.249635   4.928634   4.758409   3.230097   2.862368
    42  H    3.014368   3.924249   3.237059   2.169187   3.409961
                   36         37         38         39         40
    36  H    0.000000
    37  H    1.793161   0.000000
    38  H    1.789474   1.781053   0.000000
    39  C    2.807916   3.414049   2.719460   0.000000
    40  H    2.542327   3.701411   2.923902   1.098872   0.000000
    41  H    3.343145   3.789746   2.656247   1.100598   1.787570
    42  H    3.713598   4.208480   3.757634   1.094323   1.776314
                   41         42
    41  H    0.000000
    42  H    1.794434   0.000000
 Stoichiometry    C19H21N2(1+)
 Framework group  C1[X(C19H21N2)]
 Deg. of freedom   120
 Full point group                 C1      NOp   1
 Largest Abelian subgroup         C1      NOp   1
 Largest concise Abelian subgroup C1      NOp   1
                         Standard orientation:                         
 ---------------------------------------------------------------------
 Center     Atomic      Atomic             Coordinates (Angstroms)
 Number     Number       Type             X           Y           Z
 ---------------------------------------------------------------------
      1          6           0       -5.924302   -1.175178   -0.282560
      2          6           0       -6.625626    0.000025    0.000251
      3          6           0       -4.530324   -1.177472   -0.278212
      4          6           0       -5.924206    1.175202    0.282951
      5          6           0       -3.810936   -0.000036    0.000021
      6          6           0       -4.530233    1.177435    0.278371
      7          1           0       -7.716547    0.000056    0.000331
      8          1           0       -3.994064   -2.094974   -0.527939
      9          1           0       -6.466302    2.093210    0.514746
     10          1           0       -3.993880    2.094904    0.528010
     11          6           0       -2.333716   -0.000062   -0.000109
     12          6           0       -1.604784    1.119278   -0.452707
     13          6           0       -1.604752   -1.119433    0.452341
     14          6           0       -0.216850    1.125770   -0.449243
     15          6           0       -0.216813   -1.125977    0.448670
     16          6           0        0.504919   -0.000106   -0.000309
     17          1           0       -2.141671    1.985727   -0.840835
     18          1           0       -2.141597   -1.985891    0.840507
     19          1           0        0.315693    1.995203   -0.838189
     20          1           0        0.315745   -1.995465    0.837475
     21          1           0       -6.466484   -2.093156   -0.514265
     22          6           0        1.942874   -0.000086   -0.000402
     23          6           0        3.143323   -0.702637    0.003392
     24          6           0        3.143127    0.702801   -0.003915
     25          7           0        3.787080   -1.855019   -0.001668
     26          7           0        3.786774    1.855252    0.001097
     27          6           0        3.068411   -3.122520   -0.167733
     28          1           0        3.187886   -3.748580    0.728596
     29          1           0        2.005788   -2.927607   -0.341041
     30          1           0        3.471162   -3.663551   -1.036238
     31          6           0        5.245121   -1.944160    0.100275
     32          1           0        5.509149   -2.713998    0.838669
     33          1           0        5.688951   -2.217262   -0.869111
     34          1           0        5.659251   -0.989594    0.439085
     35          6           0        3.068047    3.122616    0.168130
     36          1           0        3.188116    3.749602   -0.727455
     37          1           0        2.005304    2.927538    0.340531
     38          1           0        3.470192    3.662707    1.037509
     39          6           0        5.244950    1.944232   -0.099391
     40          1           0        5.509538    2.718440   -0.832954
     41          1           0        5.688631    2.211256    0.871774
     42          1           0        5.658779    0.991638   -0.444142
 ---------------------------------------------------------------------
 Rotational constants (GHZ):           0.7037808           0.1205812           0.1040104
 Leave Link  202 at Thu Jan 21 05:30:20 2021, MaxMem=  4026531840 cpu:               0.3 elap:               0.1
 (Enter /opt/ohpc/pub/libs/gaussian/g16-A.03/sandybridge/g16/l301.exe)
 Standard basis: TZVP (5D, 7F)
 Ernie: Thresh=  0.10000D-02 Tol=  0.10000D-05 Strict=F.
 There are   546 symmetry adapted cartesian basis functions of A   symmetry.
 There are   525 symmetry adapted basis functions of A   symmetry.
   525 basis functions,   903 primitive gaussians,   546 cartesian basis functions
    74 alpha electrons       74 beta electrons
       nuclear repulsion energy      1487.4602048397 Hartrees.
 IExCor=33909 DFT=T Ex+Corr=LC-wHPBE ExCW=0 ScaHFX=  1.000000
 ScaDFX=  1.000000  1.000000  1.000000  1.000000 ScalE2=  1.000000  1.000000
 IRadAn=      5 IRanWt=     -1 IRanGd=            0 ICorTp=0 IEmpDi=  4
 HFx  wShort=  0.000000 wLong=  0.208100 cFull=  0.000000 cShort=  0.000000 cLong=  1.000000
 DFx  wShort=  0.000000 wLong=  0.208100 cFull=  0.000000 cShort=  1.000000 cLong=  0.000000
 NAtoms=   42 NActive=   42 NUniq=   42 SFac= 1.00D+00 NAtFMM=   60 NAOKFM=F Big=F
 Integral buffers will be    131072 words long.
 Raffenetti 2 integral format.
 Two-electron integral symmetry is turned on.
 Leave Link  301 at Thu Jan 21 05:30:20 2021, MaxMem=  4026531840 cpu:               0.4 elap:               0.1
 (Enter /opt/ohpc/pub/libs/gaussian/g16-A.03/sandybridge/g16/l302.exe)
 NPDir=0 NMtPBC=     1 NCelOv=     1 NCel=       1 NClECP=     1 NCelD=      1
         NCelK=      1 NCelE2=     1 NClLst=     1 CellRange=     0.0.
 One-electron integrals computed using PRISM.
 One-electron integral symmetry used in STVInt
 NBasis=   525 RedAO= T EigKep=  8.06D-06  NBF=   525
 NBsUse=   525 1.00D-06 EigRej= -1.00D+00 NBFU=   525
 Precomputing XC quadrature grid using
 IXCGrd= 4 IRadAn=           5 IRanWt=          -1 IRanGd=           0 AccXCQ= 0.00D+00.
 Generated NRdTot=       0 NPtTot=           0 NUsed=           0 NTot=          32
 NSgBfM=   523   523   523   523   523 MxSgAt=    42 MxSgA2=    42.
 Leave Link  302 at Thu Jan 21 05:30:21 2021, MaxMem=  4026531840 cpu:               7.0 elap:               0.9
 (Enter /opt/ohpc/pub/libs/gaussian/g16-A.03/sandybridge/g16/l303.exe)
 DipDrv:  MaxL=1.
 Leave Link  303 at Thu Jan 21 05:30:21 2021, MaxMem=  4026531840 cpu:               0.8 elap:               0.2
 (Enter /opt/ohpc/pub/libs/gaussian/g16-A.03/sandybridge/g16/l401.exe)
 ExpMin= 9.52D-02 ExpMax= 1.97D+04 ExpMxC= 6.73D+02 IAcc=3 IRadAn=         5 AccDes= 0.00D+00
 Harris functional with IExCor=33909 and IRadAn=       5 diagonalized for initial guess.
 HarFok:  IExCor=33909 AccDes= 0.00D+00 IRadAn=         5 IDoV= 1 UseB2=F ITyADJ=14
 ICtDFT=  3500011 ScaDFX=  1.000000  1.000000  1.000000  1.000000
 FoFCou: FMM=F IPFlag=           0 FMFlag=      100000 FMFlg1=           0
         NFxFlg=           0 DoJE=T BraDBF=F KetDBF=T FulRan=T
         wScrn=  0.000000 ICntrl=       500 IOpCl=  0 I1Cent=   200000004 NGrid=           0
         NMat0=    1 NMatS0=      1 NMatT0=    0 NMatD0=    1 NMtDS0=    0 NMtDT0=    0
 Petite list used in FoFCou.
 Harris En= -829.059031200413    
 JPrj=0 DoOrth=F DoCkMO=F.
 Leave Link  401 at Thu Jan 21 05:30:26 2021, MaxMem=  4026531840 cpu:              39.1 elap:               4.9
 (Enter /opt/ohpc/pub/libs/gaussian/g16-A.03/sandybridge/g16/l502.exe)
 Integral symmetry usage will be decided dynamically.
 Closed shell SCF:
 Using DIIS extrapolation, IDIIS=    10.
 NGot=  4026531840 LenX=  4025925692 LenY=  4025627030
 Requested convergence on RMS density matrix=1.00D-06 within  32 cycles.
 Requested convergence on MAX density matrix=1.00D-04.
 Requested convergence on             energy=1.00D-04.
 Virtual orbitals will be shifted by   0.500 hartree.
 No special actions if energy rises.
 Dynamic level shift is on during FON iterations.

 Cycle   1  Pass 1  IDiag  1:
 FoFJK:  IHMeth= 1 ICntrl=       0 DoSepK=T KAlg= 0 I1Cent=           0 FoldK=F
 IRaf=         1 NMat=       1 IRICut=       1 DoRegI=T DoRafI=F ISym2E= 0 IDoP0=0 IntGTp=1.
 FoFCou: FMM=F IPFlag=           0 FMFlag=      100000 FMFlg1=           0
         NFxFlg=           0 DoJE=T BraDBF=F KetDBF=F FulRan=T
         wScrn=  0.000000 ICntrl=       500 IOpCl=  0 I1Cent=           0 NGrid=           0
         NMat0=    1 NMatS0=      1 NMatT0=    0 NMatD0=    1 NMtDS0=    0 NMtDT0=    0
 Symmetry not used in FoFCou.
 E= -845.071528301068    
 DIIS: error= 3.01D-02 at cycle   1 NSaved=   1.
 NSaved= 1 IEnMin= 1 EnMin= -845.071528301068     IErMin= 1 ErrMin= 3.01D-02
 ErrMax= 3.01D-02  0.00D+00 EMaxC= 1.00D+00 BMatC= 2.99D-01 BMatP= 2.99D-01
 IDIUse=1 WtCom= 1.00D+00 WtEn= 0.00D+00
 Coeff-Com:  0.100D+01
 Coeff:      0.100D+01
 Gap=     0.364 Goal=   None    Shift=    0.500
 T= 1498. Gap= 0.669 NK=0 IS=   75 IE=  525 IFin=   74
          NO(<0.9)=   0  NV(>0.1)=   0     74.00e < EF      0.00e >EF  Err=0.0D+00
 GapD=    0.364 DampG=1.000 DampE=0.500 DampFc=0.5000 IDamp=-1.
 Damping current iteration by 5.00D-01
 RMSDP=2.39D-03 MaxDP=1.05D-01              OVMax= 6.37D-02

 Cycle   2  Pass 1  IDiag  1:
 E= -845.253078311580     Delta-E=       -0.181550010512 Rises=F Damp=T
 DIIS: error= 1.25D-02 at cycle   2 NSaved=   2.
 NSaved= 2 IEnMin= 2 EnMin= -845.253078311580     IErMin= 2 ErrMin= 1.25D-02
 ErrMax= 1.25D-02  0.00D+00 EMaxC= 1.00D+00 BMatC= 5.53D-02 BMatP= 2.99D-01
 IDIUse=1 WtCom= 1.00D+00 WtEn= 0.00D+00
 Coeff-Com: -0.624D+00 0.162D+01
 Coeff:     -0.624D+00 0.162D+01
 Gap=     0.253 Goal=   None    Shift=    0.500
 T= 1368. Gap= 0.743 NK=0 IS=   75 IE=  525 IFin=   74
          NO(<0.9)=   0  NV(>0.1)=   0     74.00e < EF      0.00e >EF  Err=0.0D+00
 GapD=    0.253 DampG=1.000 DampE=0.500 DampFc=0.5000 IDamp=-1.
 Damping current iteration by 5.00D-01
 RMSDP=1.33D-03 MaxDP=5.39D-02 DE=-1.82D-01 OVMax= 1.89D-02

 Cycle   3  Pass 1  IDiag  1:
 E= -845.318242680886     Delta-E=       -0.065164369306 Rises=F Damp=T
 DIIS: error= 8.01D-03 at cycle   3 NSaved=   3.
 NSaved= 3 IEnMin= 3 EnMin= -845.318242680886     IErMin= 3 ErrMin= 8.01D-03
 ErrMax= 8.01D-03  0.00D+00 EMaxC= 1.00D+00 BMatC= 1.15D-02 BMatP= 5.53D-02
 IDIUse=1 WtCom= 1.00D+00 WtEn= 0.00D+00
 Coeff-Com:  0.761D-01-0.103D+01 0.195D+01
 Coeff:      0.761D-01-0.103D+01 0.195D+01
 Gap=     0.251 Goal=   None    Shift=    0.500
 T= 1151. Gap= 0.751 NK=0 IS=   75 IE=  525 IFin=   74
          NO(<0.9)=   0  NV(>0.1)=   0     74.00e < EF      0.00e >EF  Err=0.0D+00
 GapD=    0.251 DampG=1.000 DampE=1.000 DampFc=1.0000 IDamp=-1.
 RMSDP=7.42D-04 MaxDP=2.71D-02 DE=-6.52D-02 OVMax= 1.38D-02

 Cycle   4  Pass 1  IDiag  1:
 E= -845.373630581650     Delta-E=       -0.055387900764 Rises=F Damp=F
 DIIS: error= 3.31D-03 at cycle   4 NSaved=   4.
 NSaved= 4 IEnMin= 4 EnMin= -845.373630581650     IErMin= 4 ErrMin= 3.31D-03
 ErrMax= 3.31D-03  0.00D+00 EMaxC= 1.00D+00 BMatC= 4.41D-04 BMatP= 1.15D-02
 IDIUse=1 WtCom= 1.00D+00 WtEn= 0.00D+00
 Coeff-Com:  0.837D-01-0.269D+00 0.247D+00 0.938D+00
 Coeff:      0.837D-01-0.269D+00 0.247D+00 0.938D+00
 Gap=     0.253 Goal=   None    Shift=    0.500
 T=  698. Gap= 0.753 NK=0 IS=   75 IE=  525 IFin=   74
          NO(<0.9)=   0  NV(>0.1)=   0     74.00e < EF      0.00e >EF  Err=0.0D+00
 GapD=    0.253 DampG=1.000 DampE=1.000 DampFc=1.0000 IDamp=-1.
 RMSDP=1.18D-04 MaxDP=4.45D-03 DE=-5.54D-02 OVMax= 9.55D-03

 Cycle   5  Pass 1  IDiag  1:
 E= -845.374493432089     Delta-E=       -0.000862850439 Rises=F Damp=F
 DIIS: error= 2.63D-03 at cycle   5 NSaved=   5.
 NSaved= 5 IEnMin= 5 EnMin= -845.374493432089     IErMin= 5 ErrMin= 2.63D-03
 ErrMax= 2.63D-03  0.00D+00 EMaxC= 1.00D+00 BMatC= 1.10D-04 BMatP= 4.41D-04
 IDIUse=1 WtCom= 1.00D+00 WtEn= 0.00D+00
 Coeff-Com: -0.289D-02 0.146D+00-0.306D+00-0.267D+00 0.143D+01
 Coeff:     -0.289D-02 0.146D+00-0.306D+00-0.267D+00 0.143D+01
 Gap=     0.256 Goal=   None    Shift=    0.500
 T=  377. Gap= 0.756 NK=0 IS=   75 IE=  525 IFin=   74
          NO(<0.9)=   0  NV(>0.1)=   0     74.00e < EF      0.00e >EF  Err=0.0D+00
 GapD=    0.256 DampG=1.000 DampE=1.000 DampFc=1.0000 IDamp=-1.
 RMSDP=8.60D-05 MaxDP=2.64D-03 DE=-8.63D-04 OVMax= 8.33D-03

 Cycle   6  Pass 1  IDiag  1:
 E= -845.374914592535     Delta-E=       -0.000421160446 Rises=F Damp=F
 DIIS: error= 1.95D-03 at cycle   6 NSaved=   6.
 NSaved= 6 IEnMin= 6 EnMin= -845.374914592535     IErMin= 6 ErrMin= 1.95D-03
 ErrMax= 1.95D-03  0.00D+00 EMaxC= 1.00D+00 BMatC= 4.83D-05 BMatP= 1.10D-04
 IDIUse=1 WtCom= 1.00D+00 WtEn= 0.00D+00
 Coeff-Com: -0.315D-01 0.122D+00-0.145D+00-0.393D+00-0.674D-01 0.152D+01
 Coeff:     -0.315D-01 0.122D+00-0.145D+00-0.393D+00-0.674D-01 0.152D+01
 Gap=     0.257 Goal=   None    Shift=    0.500
 T=   36. Gap= 0.757 NK=0 IS=   75 IE=  525 IFin=   74
          NO(<0.9)=   0  NV(>0.1)=   0     74.00e < EF      0.00e >EF  Err=0.0D+00
 GapD=    0.257 DampG=1.000 DampE=1.000 DampFc=1.0000 IDamp=-1.
 RMSDP=5.74D-05 MaxDP=1.78D-03 DE=-4.21D-04 OVMax= 6.98D-03

 Cycle   7  Pass 1  IDiag  1:
 E= -845.375147569305     Delta-E=       -0.000232976770 Rises=F Damp=F
 DIIS: error= 1.39D-03 at cycle   7 NSaved=   7.
 NSaved= 7 IEnMin= 7 EnMin= -845.375147569305     IErMin= 7 ErrMin= 1.39D-03
 ErrMax= 1.39D-03  0.00D+00 EMaxC= 1.00D+00 BMatC= 2.25D-05 BMatP= 4.83D-05
 IDIUse=1 WtCom= 1.00D+00 WtEn= 0.00D+00
 Coeff-Com: -0.105D-01-0.146D-01 0.632D-01 0.928D-02-0.694D+00-0.235D+00
 Coeff-Com:  0.188D+01
 Coeff:     -0.105D-01-0.146D-01 0.632D-01 0.928D-02-0.694D+00-0.235D+00
 Coeff:      0.188D+01
 Gap=     0.258 Goal=   None    Shift=    0.500
 GapD=    0.258 DampG=1.000 DampE=1.000 DampFc=1.0000 IDamp=-1.
 RMSDP=4.04D-05 MaxDP=2.10D-03 DE=-2.33D-04 OVMax= 5.74D-03

 Cycle   8  Pass 1  IDiag  1:
 E= -845.375274680261     Delta-E=       -0.000127110955 Rises=F Damp=F
 DIIS: error= 9.68D-04 at cycle   8 NSaved=   8.
 NSaved= 8 IEnMin= 8 EnMin= -845.375274680261     IErMin= 8 ErrMin= 9.68D-04
 ErrMax= 9.68D-04  0.00D+00 EMaxC= 1.00D+00 BMatC= 1.09D-05 BMatP= 2.25D-05
 IDIUse=1 WtCom= 1.00D+00 WtEn= 0.00D+00
 Coeff-Com:  0.230D-02-0.159D-01 0.222D-01 0.162D+00-0.318D+00-0.594D+00
 Coeff-Com:  0.335D-01 0.171D+01
 Coeff:      0.230D-02-0.159D-01 0.222D-01 0.162D+00-0.318D+00-0.594D+00
 Coeff:      0.335D-01 0.171D+01
 Gap=     0.258 Goal=   None    Shift=    0.500
 RMSDP=2.52D-05 MaxDP=1.90D-03 DE=-1.27D-04 OVMax= 4.28D-03

 Cycle   9  Pass 1  IDiag  1:
 E= -845.375337078869     Delta-E=       -0.000062398608 Rises=F Damp=F
 DIIS: error= 6.55D-04 at cycle   9 NSaved=   9.
 NSaved= 9 IEnMin= 9 EnMin= -845.375337078869     IErMin= 9 ErrMin= 6.55D-04
 ErrMax= 6.55D-04  0.00D+00 EMaxC= 1.00D+00 BMatC= 5.25D-06 BMatP= 1.09D-05
 IDIUse=1 WtCom= 1.00D+00 WtEn= 0.00D+00
 Coeff-Com:  0.248D-02 0.194D-01-0.485D-01 0.939D-01 0.135D+00-0.254D+00
 Coeff-Com: -0.912D+00 0.194D+00 0.177D+01
 Coeff:      0.248D-02 0.194D-01-0.485D-01 0.939D-01 0.135D+00-0.254D+00
 Coeff:     -0.912D+00 0.194D+00 0.177D+01
 Gap=     0.258 Goal=   None    Shift=    0.500
 RMSDP=1.69D-05 MaxDP=1.49D-03 DE=-6.24D-05 OVMax= 3.19D-03

 Cycle  10  Pass 1  IDiag  1:
 E= -845.375366823851     Delta-E=       -0.000029744982 Rises=F Damp=F
 DIIS: error= 4.38D-04 at cycle  10 NSaved=  10.
 NSaved=10 IEnMin=10 EnMin= -845.375366823851     IErMin=10 ErrMin= 4.38D-04
 ErrMax= 4.38D-04  0.00D+00 EMaxC= 1.00D+00 BMatC= 2.51D-06 BMatP= 5.25D-06
 IDIUse=1 WtCom= 1.00D+00 WtEn= 0.00D+00
 Coeff-Com: -0.301D-02 0.255D-01-0.409D-01-0.174D-01 0.130D+00 0.123D+00
 Coeff-Com: -0.299D+00-0.690D+00-0.245D+00 0.202D+01
 Coeff:     -0.301D-02 0.255D-01-0.409D-01-0.174D-01 0.130D+00 0.123D+00
 Coeff:     -0.299D+00-0.690D+00-0.245D+00 0.202D+01
 Gap=     0.258 Goal=   None    Shift=    0.500
 RMSDP=1.06D-05 MaxDP=9.10D-04 DE=-2.97D-05 OVMax= 2.26D-03

 Cycle  11  Pass 1  IDiag  1:
 E= -845.375380192630     Delta-E=       -0.000013368779 Rises=F Damp=F
 DIIS: error= 2.86D-04 at cycle  11 NSaved=  11.
 NSaved=11 IEnMin=11 EnMin= -845.375380192630     IErMin=11 ErrMin= 2.86D-04
 ErrMax= 2.86D-04  0.00D+00 EMaxC= 1.00D+00 BMatC= 1.19D-06 BMatP= 2.51D-06
 IDIUse=1 WtCom= 1.00D+00 WtEn= 0.00D+00
 Coeff-Com: -0.295D-02 0.831D-02-0.664D-02-0.287D-01-0.204D-01 0.158D+00
 Coeff-Com:  0.219D+00-0.447D+00-0.668D+00-0.498D+00 0.229D+01
 Coeff:     -0.295D-02 0.831D-02-0.664D-02-0.287D-01-0.204D-01 0.158D+00
 Coeff:      0.219D+00-0.447D+00-0.668D+00-0.498D+00 0.229D+01
 Gap=     0.258 Goal=   None    Shift=    0.500
 RMSDP=7.00D-06 MaxDP=6.46D-04 DE=-1.34D-05 OVMax= 1.57D-03

 Cycle  12  Pass 1  IDiag  1:
 E= -845.375386007272     Delta-E=       -0.000005814642 Rises=F Damp=F
 DIIS: error= 1.92D-04 at cycle  12 NSaved=  12.
 NSaved=12 IEnMin=12 EnMin= -845.375386007272     IErMin=12 ErrMin= 1.92D-04
 ErrMax= 1.92D-04  0.00D+00 EMaxC= 1.00D+00 BMatC= 6.53D-07 BMatP= 1.19D-06
 IDIUse=1 WtCom= 1.00D+00 WtEn= 0.00D+00
 Coeff-Com: -0.949D-03-0.490D-03 0.397D-02 0.154D-03-0.625D-01 0.558D-01
 Coeff-Com:  0.202D+00-0.627D-02-0.206D+00-0.156D+01 0.114D+01 0.143D+01
 Coeff:     -0.949D-03-0.490D-03 0.397D-02 0.154D-03-0.625D-01 0.558D-01
 Coeff:      0.202D+00-0.627D-02-0.206D+00-0.156D+01 0.114D+01 0.143D+01
 Gap=     0.258 Goal=   None    Shift=    0.500
 RMSDP=4.05D-06 MaxDP=2.90D-04 DE=-5.81D-06 OVMax= 1.07D-03

 Cycle  13  Pass 1  IDiag  1:
 E= -845.375388604081     Delta-E=       -0.000002596809 Rises=F Damp=F
 DIIS: error= 1.25D-04 at cycle  13 NSaved=  13.
 NSaved=13 IEnMin=13 EnMin= -845.375388604081     IErMin=13 ErrMin= 1.25D-04
 ErrMax= 1.25D-04  0.00D+00 EMaxC= 1.00D+00 BMatC= 3.06D-07 BMatP= 6.53D-07
 IDIUse=1 WtCom= 1.00D+00 WtEn= 0.00D+00
 Coeff-Com:  0.431D-03-0.926D-03 0.126D-03 0.159D-01-0.185D-01-0.415D-01
 Coeff-Com: -0.170D-01 0.211D+00 0.246D+00-0.852D+00-0.329D-01-0.927D+00
 Coeff-Com:  0.242D+01
 Coeff:      0.431D-03-0.926D-03 0.126D-03 0.159D-01-0.185D-01-0.415D-01
 Coeff:     -0.170D-01 0.211D+00 0.246D+00-0.852D+00-0.329D-01-0.927D+00
 Coeff:      0.242D+01
 Gap=     0.258 Goal=   None    Shift=    0.500
 RMSDP=2.60D-06 MaxDP=1.26D-04 DE=-2.60D-06 OVMax= 7.25D-04

 Cycle  14  Pass 1  IDiag  1:
 E= -845.375389713403     Delta-E=       -0.000001109322 Rises=F Damp=F
 DIIS: error= 8.17D-05 at cycle  14 NSaved=  14.
 NSaved=14 IEnMin=14 EnMin= -845.375389713403     IErMin=14 ErrMin= 8.17D-05
 ErrMax= 8.17D-05  0.00D+00 EMaxC= 1.00D+00 BMatC= 1.57D-07 BMatP= 3.06D-07
 IDIUse=1 WtCom= 1.00D+00 WtEn= 0.00D+00
 Coeff-Com:  0.422D-03 0.482D-03-0.258D-02 0.856D-02 0.129D-01-0.384D-01
 Coeff-Com: -0.751D-01 0.144D+00 0.201D+00-0.910D-01-0.269D+00-0.154D+01
 Coeff-Com:  0.117D+01 0.148D+01
 Coeff:      0.422D-03 0.482D-03-0.258D-02 0.856D-02 0.129D-01-0.384D-01
 Coeff:     -0.751D-01 0.144D+00 0.201D+00-0.910D-01-0.269D+00-0.154D+01
 Coeff:      0.117D+01 0.148D+01
 Gap=     0.258 Goal=   None    Shift=    0.500
 RMSDP=1.63D-06 MaxDP=5.52D-05 DE=-1.11D-06 OVMax= 4.87D-04

 Cycle  15  Pass 1  IDiag  1:
 E= -845.375390203806     Delta-E=       -0.000000490403 Rises=F Damp=F
 DIIS: error= 5.29D-05 at cycle  15 NSaved=  15.
 NSaved=15 IEnMin=15 EnMin= -845.375390203806     IErMin=15 ErrMin= 5.29D-05
 ErrMax= 5.29D-05  0.00D+00 EMaxC= 1.00D+00 BMatC= 7.15D-08 BMatP= 1.57D-07
 IDIUse=1 WtCom= 1.00D+00 WtEn= 0.00D+00
 Coeff-Com: -0.187D-03 0.845D-03-0.108D-02-0.417D-02 0.780D-02 0.143D-01
 Coeff-Com: -0.773D-03-0.477D-01-0.757D-01 0.212D+00 0.119D+00-0.156D+00
 Coeff-Com: -0.504D+00-0.158D+01 0.302D+01
 Coeff:     -0.187D-03 0.845D-03-0.108D-02-0.417D-02 0.780D-02 0.143D-01
 Coeff:     -0.773D-03-0.477D-01-0.757D-01 0.212D+00 0.119D+00-0.156D+00
 Coeff:     -0.504D+00-0.158D+01 0.302D+01
 Gap=     0.258 Goal=   None    Shift=    0.500
 RMSDP=1.01D-06 MaxDP=3.44D-05 DE=-4.90D-07 OVMax= 3.19D-04

 Cycle  16  Pass 1  IDiag  1:
 E= -845.375390411049     Delta-E=       -0.000000207243 Rises=F Damp=F
 DIIS: error= 3.45D-05 at cycle  16 NSaved=  16.
 NSaved=16 IEnMin=16 EnMin= -845.375390411049     IErMin=16 ErrMin= 3.45D-05
 ErrMax= 3.45D-05  0.00D+00 EMaxC= 1.00D+00 BMatC= 3.30D-08 BMatP= 7.15D-08
 IDIUse=1 WtCom= 1.00D+00 WtEn= 0.00D+00
 Coeff-Com: -0.136D-03 0.148D-03 0.163D-03-0.308D-02 0.290D-03 0.147D-01
 Coeff-Com:  0.135D-01-0.387D-01-0.753D-01 0.850D-01 0.145D+00 0.188D+00
 Coeff-Com: -0.537D+00-0.126D+01 0.980D+00 0.148D+01
 Coeff:     -0.136D-03 0.148D-03 0.163D-03-0.308D-02 0.290D-03 0.147D-01
 Coeff:      0.135D-01-0.387D-01-0.753D-01 0.850D-01 0.145D+00 0.188D+00
 Coeff:     -0.537D+00-0.126D+01 0.980D+00 0.148D+01
 Gap=     0.258 Goal=   None    Shift=    0.500
 RMSDP=6.36D-07 MaxDP=1.57D-05 DE=-2.07D-07 OVMax= 2.11D-04

 SCF Done:  E(RLC-wHPBE) =  -845.375390411     A.U. after   16 cycles
            NFock= 16  Conv=0.64D-06     -V/T= 2.0055
 KE= 8.407867222335D+02 PE=-4.918285718321D+03 EE= 1.744663400837D+03
 Leave Link  502 at Thu Jan 21 05:37:53 2021, MaxMem=  4026531840 cpu:            3562.2 elap:             446.5
 (Enter /opt/ohpc/pub/libs/gaussian/g16-A.03/sandybridge/g16/l508.exe)
 QCSCF skips out because SCF is already converged.
 Leave Link  508 at Thu Jan 21 05:37:53 2021, MaxMem=  4026531840 cpu:               0.0 elap:               0.0
 (Enter /opt/ohpc/pub/libs/gaussian/g16-A.03/sandybridge/g16/l601.exe)
 Copying SCF densities to generalized density rwf, IOpCl= 0 IROHF=0.

 **********************************************************************

            Population analysis using the SCF density.

 **********************************************************************

 Orbital symmetries:
       Occupied  (A) (A) (A) (A) (A) (A) (A) (A) (A) (A) (A) (A)
                 (A) (A) (A) (A) (A) (A) (A) (A) (A) (A) (A) (A)
                 (A) (A) (A) (A) (A) (A) (A) (A) (A) (A) (A) (A)
                 (A) (A) (A) (A) (A) (A) (A) (A) (A) (A) (A) (A)
                 (A) (A) (A) (A) (A) (A) (A) (A) (A) (A) (A) (A)
                 (A) (A) (A) (A) (A) (A) (A) (A) (A) (A) (A) (A)
                 (A) (A)
       Virtual   (A) (A) (A) (A) (A) (A) (A) (A) (A) (A) (A) (A)
                 (A) (A) (A) (A) (A) (A) (A) (A) (A) (A) (A) (A)
                 (A) (A) (A) (A) (A) (A) (A) (A) (A) (A) (A) (A)
                 (A) (A) (A) (A) (A) (A) (A) (A) (A) (A) (A) (A)
                 (A) (A) (A) (A) (A) (A) (A) (A) (A) (A) (A) (A)
                 (A) (A) (A) (A) (A) (A) (A) (A) (A) (A) (A) (A)
                 (A) (A) (A) (A) (A) (A) (A) (A) (A) (A) (A) (A)
                 (A) (A) (A) (A) (A) (A) (A) (A) (A) (A) (A) (A)
                 (A) (A) (A) (A) (A) (A) (A) (A) (A) (A) (A) (A)
                 (A) (A) (A) (A) (A) (A) (A) (A) (A) (A) (A) (A)
                 (A) (A) (A) (A) (A) (A) (A) (A) (A) (A) (A) (A)
                 (A) (A) (A) (A) (A) (A) (A) (A) (A) (A) (A) (A)
                 (A) (A) (A) (A) (A) (A) (A) (A) (A) (A) (A) (A)
                 (A) (A) (A) (A) (A) (A) (A) (A) (A) (A) (A) (A)
                 (A) (A) (A) (A) (A) (A) (A) (A) (A) (A) (A) (A)
                 (A) (A) (A) (A) (A) (A) (A) (A) (A) (A) (A) (A)
                 (A) (A) (A) (A) (A) (A) (A) (A) (A) (A) (A) (A)
                 (A) (A) (A) (A) (A) (A) (A) (A) (A) (A) (A) (A)
                 (A) (A) (A) (A) (A) (A) (A) (A) (A) (A) (A) (A)
                 (A) (A) (A) (A) (A) (A) (A) (A) (A) (A) (A) (A)
                 (A) (A) (A) (A) (A) (A) (A) (A) (A) (A) (A) (A)
                 (A) (A) (A) (A) (A) (A) (A) (A) (A) (A) (A) (A)
                 (A) (A) (A) (A) (A) (A) (A) (A) (A) (A) (A) (A)
                 (A) (A) (A) (A) (A) (A) (A) (A) (A) (A) (A) (A)
                 (A) (A) (A) (A) (A) (A) (A) (A) (A) (A) (A) (A)
                 (A) (A) (A) (A) (A) (A) (A) (A) (A) (A) (A) (A)
                 (A) (A) (A) (A) (A) (A) (A) (A) (A) (A) (A) (A)
                 (A) (A) (A) (A) (A) (A) (A) (A) (A) (A) (A) (A)
                 (A) (A) (A) (A) (A) (A) (A) (A) (A) (A) (A) (A)
                 (A) (A) (A) (A) (A) (A) (A) (A) (A) (A) (A) (A)
                 (A) (A) (A) (A) (A) (A) (A) (A) (A) (A) (A) (A)
                 (A) (A) (A) (A) (A) (A) (A) (A) (A) (A) (A) (A)
                 (A) (A) (A) (A) (A) (A) (A) (A) (A) (A) (A) (A)
                 (A) (A) (A) (A) (A) (A) (A) (A) (A) (A) (A) (A)
                 (A) (A) (A) (A) (A) (A) (A) (A) (A) (A) (A) (A)
                 (A) (A) (A) (A) (A) (A) (A) (A) (A) (A) (A) (A)
                 (A) (A) (A) (A) (A) (A) (A) (A) (A) (A) (A) (A)
                 (A) (A) (A) (A) (A) (A) (A)
 The electronic state is 1-A.
 Alpha  occ. eigenvalues --  -14.30233 -14.30232 -10.22990 -10.22957 -10.19282
 Alpha  occ. eigenvalues --  -10.17232 -10.17231 -10.16826 -10.16826 -10.14960
 Alpha  occ. eigenvalues --  -10.13183 -10.13098 -10.13097 -10.11759 -10.11758
 Alpha  occ. eigenvalues --  -10.10498 -10.09097 -10.09096 -10.08531 -10.08519
 Alpha  occ. eigenvalues --  -10.08467  -1.17468  -1.14967  -1.09394  -1.02581
 Alpha  occ. eigenvalues --   -0.98710  -0.94146  -0.92104  -0.91910  -0.91394
 Alpha  occ. eigenvalues --   -0.90461  -0.89434  -0.87700  -0.87639  -0.80877
 Alpha  occ. eigenvalues --   -0.78605  -0.74768  -0.74749  -0.73648  -0.73456
 Alpha  occ. eigenvalues --   -0.72989  -0.69575  -0.69198  -0.68421  -0.67232
 Alpha  occ. eigenvalues --   -0.67206  -0.64504  -0.63459  -0.61948  -0.61767
 Alpha  occ. eigenvalues --   -0.61515  -0.60585  -0.60121  -0.59952  -0.59750
 Alpha  occ. eigenvalues --   -0.59163  -0.59151  -0.58686  -0.58088  -0.57747
 Alpha  occ. eigenvalues --   -0.56233  -0.56186  -0.55176  -0.53290  -0.52648
 Alpha  occ. eigenvalues --   -0.51606  -0.49958  -0.48838  -0.48267  -0.46908
 Alpha  occ. eigenvalues --   -0.44239  -0.42223  -0.40601  -0.38470
 Alpha virt. eigenvalues --   -0.12647  -0.07194  -0.05045  -0.04838  -0.03960
 Alpha virt. eigenvalues --   -0.03563  -0.01079  -0.00584   0.00120   0.01054
 Alpha virt. eigenvalues --    0.01286   0.02172   0.03267   0.03755   0.04032
 Alpha virt. eigenvalues --    0.04387   0.04719   0.05095   0.05224   0.05568
 Alpha virt. eigenvalues --    0.06065   0.06452   0.07045   0.07245   0.07493
 Alpha virt. eigenvalues --    0.07967   0.09187   0.09710   0.09895   0.10113
 Alpha virt. eigenvalues --    0.10261   0.10735   0.12121   0.12171   0.12377
 Alpha virt. eigenvalues --    0.12667   0.12805   0.13340   0.13683   0.13718
 Alpha virt. eigenvalues --    0.14834   0.15473   0.16008   0.17863   0.18405
 Alpha virt. eigenvalues --    0.18686   0.18852   0.19648   0.20201   0.20849
 Alpha virt. eigenvalues --    0.20912   0.21337   0.21706   0.22399   0.22662
 Alpha virt. eigenvalues --    0.22936   0.23107   0.23431   0.23959   0.24349
 Alpha virt. eigenvalues --    0.24597   0.24921   0.25098   0.26074   0.26498
 Alpha virt. eigenvalues --    0.26627   0.26690   0.27507   0.28711   0.28748
 Alpha virt. eigenvalues --    0.29914   0.30381   0.30775   0.30782   0.30865
 Alpha virt. eigenvalues --    0.31662   0.32210   0.32439   0.33599   0.33928
 Alpha virt. eigenvalues --    0.34227   0.35041   0.35046   0.35687   0.36664
 Alpha virt. eigenvalues --    0.36975   0.37059   0.37414   0.37791   0.37888
 Alpha virt. eigenvalues --    0.38252   0.38848   0.38856   0.39003   0.39422
 Alpha virt. eigenvalues --    0.39986   0.40439   0.40904   0.40952   0.41661
 Alpha virt. eigenvalues --    0.42185   0.42352   0.42544   0.43150   0.43409
 Alpha virt. eigenvalues --    0.43528   0.43921   0.45064   0.45124   0.46118
 Alpha virt. eigenvalues --    0.46525   0.47219   0.47468   0.48515   0.48635
 Alpha virt. eigenvalues --    0.48850   0.49101   0.49872   0.50695   0.50855
 Alpha virt. eigenvalues --    0.51128   0.51772   0.53023   0.53657   0.54535
 Alpha virt. eigenvalues --    0.54916   0.55422   0.56949   0.57848   0.58407
 Alpha virt. eigenvalues --    0.58916   0.59081   0.60148   0.61093   0.61727
 Alpha virt. eigenvalues --    0.63519   0.63987   0.64896   0.65075   0.65731
 Alpha virt. eigenvalues --    0.67170   0.67318   0.67675   0.67724   0.68534
 Alpha virt. eigenvalues --    0.70452   0.70619   0.73371   0.73545   0.75421
 Alpha virt. eigenvalues --    0.75805   0.78921   0.80217   0.81849   0.81875
 Alpha virt. eigenvalues --    0.85190   0.86984   1.05610   1.05966   1.10374
 Alpha virt. eigenvalues --    1.12987   1.14260   1.14457   1.16168   1.17167
 Alpha virt. eigenvalues --    1.17661   1.17787   1.18349   1.19088   1.19648
 Alpha virt. eigenvalues --    1.20523   1.21316   1.21970   1.22198   1.22737
 Alpha virt. eigenvalues --    1.23384   1.23767   1.24288   1.24664   1.25300
 Alpha virt. eigenvalues --    1.25384   1.26050   1.26091   1.26812   1.26928
 Alpha virt. eigenvalues --    1.27250   1.27566   1.28273   1.28432   1.28619
 Alpha virt. eigenvalues --    1.28806   1.28931   1.29530   1.30359   1.30919
 Alpha virt. eigenvalues --    1.32747   1.34216   1.35577   1.36437   1.36654
 Alpha virt. eigenvalues --    1.37107   1.37847   1.37881   1.38305   1.38570
 Alpha virt. eigenvalues --    1.38897   1.39218   1.40802   1.41003   1.41095
 Alpha virt. eigenvalues --    1.41384   1.41536   1.42066   1.42687   1.43296
 Alpha virt. eigenvalues --    1.43612   1.43879   1.44296   1.44910   1.45007
 Alpha virt. eigenvalues --    1.45512   1.45964   1.46052   1.46662   1.47026
 Alpha virt. eigenvalues --    1.47484   1.47577   1.47821   1.48764   1.49587
 Alpha virt. eigenvalues --    1.50225   1.50424   1.51310   1.51764   1.53168
 Alpha virt. eigenvalues --    1.53647   1.54573   1.55182   1.55654   1.56264
 Alpha virt. eigenvalues --    1.56611   1.57797   1.58415   1.59534   1.60332
 Alpha virt. eigenvalues --    1.61375   1.62285   1.63430   1.63548   1.64704
 Alpha virt. eigenvalues --    1.66247   1.66329   1.66830   1.68086   1.68162
 Alpha virt. eigenvalues --    1.68713   1.69330   1.70105   1.70415   1.70798
 Alpha virt. eigenvalues --    1.70807   1.72814   1.73031   1.73207   1.73574
 Alpha virt. eigenvalues --    1.74426   1.74613   1.74633   1.75898   1.76953
 Alpha virt. eigenvalues --    1.77037   1.78645   1.80355   1.80398   1.80742
 Alpha virt. eigenvalues --    1.81644   1.83541   1.83750   1.83789   1.85271
 Alpha virt. eigenvalues --    1.85872   1.86073   1.87653   1.88064   1.89103
 Alpha virt. eigenvalues --    1.90075   1.91152   1.91717   1.91850   1.93269
 Alpha virt. eigenvalues --    1.93720   1.94739   1.95573   1.96527   1.96684
 Alpha virt. eigenvalues --    1.96990   1.97822   2.00245   2.01010   2.01827
 Alpha virt. eigenvalues --    2.02397   2.04226   2.06039   2.06048   2.07736
 Alpha virt. eigenvalues --    2.08101   2.11063   2.12215   2.12452   2.17495
 Alpha virt. eigenvalues --    2.18447   2.18661   2.19224   2.20397   2.20889
 Alpha virt. eigenvalues --    2.20971   2.22475   2.22653   2.22872   2.23570
 Alpha virt. eigenvalues --    2.24541   2.24654   2.25135   2.25573   2.25774
 Alpha virt. eigenvalues --    2.26812   2.27500   2.27759   2.28467   2.28758
 Alpha virt. eigenvalues --    2.29051   2.29637   2.29999   2.31932   2.34249
 Alpha virt. eigenvalues --    2.34308   2.35790   2.36831   2.37985   2.40734
 Alpha virt. eigenvalues --    2.41025   2.42333   2.42683   2.44130   2.44514
 Alpha virt. eigenvalues --    2.44756   2.45475   2.46099   2.47609   2.47891
 Alpha virt. eigenvalues --    2.48048   2.48507   2.49083   2.49187   2.50901
 Alpha virt. eigenvalues --    2.54113   2.54769   2.55309   2.56098   2.57419
 Alpha virt. eigenvalues --    2.57758   2.57979   2.59268   2.59756   2.61452
 Alpha virt. eigenvalues --    2.61510   2.62525   2.62933   2.63984   2.64305
 Alpha virt. eigenvalues --    2.64929   2.65457   2.65933   2.66562   2.68604
 Alpha virt. eigenvalues --    2.69619   2.72123   2.74462   2.74705   2.75539
 Alpha virt. eigenvalues --    2.75600   2.76180   2.77515   2.83228   2.91040
 Alpha virt. eigenvalues --    2.92814   2.93217   2.96699   2.97688   2.98500
 Alpha virt. eigenvalues --    2.98913   2.99709   2.99960   3.01702   3.02275
 Alpha virt. eigenvalues --    3.03899   3.04371   3.04656   3.07365   3.08380
 Alpha virt. eigenvalues --    3.09307   3.12212   3.12822   3.14895   3.15826
 Alpha virt. eigenvalues --    3.17877   3.18907   3.19230   3.19440   3.20170
 Alpha virt. eigenvalues --    3.21622   3.22500   3.24825   3.26356   3.27354
 Alpha virt. eigenvalues --    3.28234   3.29175   3.30867   3.34046   3.34169
 Alpha virt. eigenvalues --    3.34778   3.35260   3.47426   3.52607   3.56110
 Alpha virt. eigenvalues --    3.61222   3.68815   3.69534   3.75404   3.86586
 Alpha virt. eigenvalues --   21.08107  21.23807  21.39434  21.46744  21.57956
 Alpha virt. eigenvalues --   21.60809  21.61230  21.65410  21.70072  21.78252
 Alpha virt. eigenvalues --   21.81318  21.84881  21.85197  21.86413  21.88735
 Alpha virt. eigenvalues --   21.96377  22.00027  22.02967  22.04345  31.53391
 Alpha virt. eigenvalues --   31.68471
          Condensed to atoms (all electrons):
               1          2          3          4          5          6
     1  C    4.951644   0.475439   0.403261  -0.003433  -0.000326  -0.104919
     2  C    0.475439   4.945126  -0.025720   0.475439  -0.070107  -0.025737
     3  C    0.403261  -0.025720   5.189045  -0.104932   0.386097  -0.049594
     4  C   -0.003433   0.475439  -0.104932   4.951628  -0.000329   0.403294
     5  C   -0.000326  -0.070107   0.386097  -0.000329   5.525175   0.386148
     6  C   -0.104919  -0.025737  -0.049594   0.403294   0.386148   5.188985
     7  H   -0.054696   0.416402   0.017954  -0.054697  -0.004320   0.017953
     8  H   -0.015902   0.009100   0.393644  -0.001017  -0.062977   0.011452
     9  H    0.011985  -0.049999   0.000000   0.411950   0.014764  -0.050650
    10  H   -0.001017   0.009101   0.011454  -0.015905  -0.062974   0.393643
    11  C    0.014291   0.009704  -0.056142   0.014291   0.087396  -0.056172
    12  C   -0.000561  -0.000363   0.027700   0.004082  -0.128412  -0.024441
    13  C    0.004081  -0.000364  -0.024457  -0.000559  -0.128353   0.027702
    14  C    0.000472  -0.000045  -0.001388  -0.000765   0.046846   0.001391
    15  C   -0.000765  -0.000045   0.001397   0.000471   0.046811  -0.001390
    16  C   -0.000024   0.000018   0.001196  -0.000024  -0.012059   0.001199
    17  H    0.000025  -0.000040  -0.000242   0.001383  -0.014842   0.001984
    18  H    0.001383  -0.000040   0.001983   0.000025  -0.014838  -0.000241
    19  H   -0.000001  -0.000000  -0.000013  -0.000002  -0.000756   0.000018
    20  H   -0.000002  -0.000000   0.000018  -0.000001  -0.000756  -0.000013
    21  H    0.411952  -0.050000  -0.050652   0.011986   0.014765   0.000000
    22  C   -0.000005   0.000001   0.000187  -0.000005  -0.004794   0.000187
    23  C    0.000000   0.000000   0.000017  -0.000000  -0.000092  -0.000004
    24  C   -0.000000   0.000000  -0.000004   0.000000  -0.000092   0.000017
    25  N    0.000000   0.000000   0.000000  -0.000000  -0.000000   0.000000
    26  N   -0.000000   0.000000   0.000000   0.000000  -0.000000   0.000000
    27  C    0.000000   0.000000   0.000000  -0.000000  -0.000004  -0.000000
    28  H   -0.000000  -0.000000  -0.000000   0.000000   0.000000  -0.000000
    29  H   -0.000000   0.000000   0.000003   0.000000  -0.000028   0.000000
    30  H    0.000000   0.000000   0.000000  -0.000000   0.000000   0.000000
    31  C    0.000000   0.000000   0.000000  -0.000000  -0.000000  -0.000000
    32  H   -0.000000  -0.000000  -0.000000   0.000000   0.000000   0.000000
    33  H    0.000000  -0.000000  -0.000000  -0.000000   0.000000  -0.000000
    34  H    0.000000   0.000000   0.000000  -0.000000  -0.000000   0.000000
    35  C   -0.000000   0.000000  -0.000000   0.000000  -0.000004   0.000000
    36  H    0.000000  -0.000000  -0.000000  -0.000000   0.000000  -0.000000
    37  H    0.000000   0.000000   0.000000  -0.000000  -0.000028   0.000003
    38  H   -0.000000   0.000000   0.000000   0.000000   0.000000   0.000000
    39  C   -0.000000   0.000000  -0.000000   0.000000  -0.000000   0.000000
    40  H    0.000000  -0.000000   0.000000  -0.000000   0.000000  -0.000000
    41  H   -0.000000  -0.000000  -0.000000   0.000000   0.000000  -0.000000
    42  H   -0.000000   0.000000   0.000000   0.000000  -0.000000   0.000000
               7          8          9         10         11         12
     1  C   -0.054696  -0.015902   0.011985  -0.001017   0.014291  -0.000561
     2  C    0.416402   0.009100  -0.049999   0.009101   0.009704  -0.000363
     3  C    0.017954   0.393644   0.000000   0.011454  -0.056142   0.027700
     4  C   -0.054697  -0.001017   0.411950  -0.015905   0.014291   0.004082
     5  C   -0.004320  -0.062977   0.014764  -0.062974   0.087396  -0.128412
     6  C    0.017953   0.011452  -0.050650   0.393643  -0.056172  -0.024441
     7  H    0.543903  -0.000195  -0.006749  -0.000195  -0.000247  -0.000007
     8  H   -0.000195   0.541697   0.000033  -0.000166  -0.014463  -0.000055
     9  H   -0.006749   0.000033   0.550844  -0.005958  -0.001704   0.000030
    10  H   -0.000195  -0.000166  -0.005958   0.541699  -0.014466   0.004007
    11  C   -0.000247  -0.014463  -0.001704  -0.014466   5.316837   0.429979
    12  C   -0.000007  -0.000055   0.000030   0.004007   0.429979   5.355195
    13  C   -0.000007   0.004006   0.000014  -0.000056   0.429940  -0.094051
    14  C    0.000000  -0.000212  -0.000005   0.001321  -0.016869   0.185055
    15  C    0.000000   0.001321  -0.000001  -0.000212  -0.016891  -0.056632
    16  C   -0.000000   0.000218  -0.000000   0.000218  -0.047574   0.015813
    17  H   -0.000003  -0.000017   0.000008   0.000507  -0.045389   0.392762
    18  H   -0.000003   0.000508   0.000000  -0.000017  -0.045402   0.008906
    19  H    0.000000  -0.000001  -0.000000  -0.000042   0.010632  -0.003832
    20  H    0.000000  -0.000042   0.000000  -0.000001   0.010640   0.002840
    21  H   -0.006750  -0.005958  -0.000188   0.000033  -0.001704   0.000014
    22  C   -0.000000   0.000033  -0.000000   0.000033  -0.016876   0.033882
    23  C   -0.000000   0.000000   0.000000   0.000001  -0.001929  -0.008860
    24  C   -0.000000   0.000001  -0.000000   0.000000  -0.001931   0.013936
    25  N   -0.000000  -0.000000  -0.000000   0.000000  -0.000024  -0.000014
    26  N   -0.000000   0.000000  -0.000000  -0.000000  -0.000024   0.000188
    27  C   -0.000000  -0.000001  -0.000000  -0.000000  -0.000061  -0.000017
    28  H    0.000000   0.000000   0.000000  -0.000000   0.000005   0.000005
    29  H    0.000000   0.000003  -0.000000  -0.000000  -0.000111   0.000181
    30  H   -0.000000   0.000000   0.000000   0.000000   0.000000  -0.000004
    31  C   -0.000000  -0.000000   0.000000   0.000000  -0.000001  -0.000005
    32  H    0.000000   0.000000   0.000000  -0.000000   0.000000   0.000000
    33  H    0.000000  -0.000000  -0.000000   0.000000  -0.000000  -0.000000
    34  H    0.000000  -0.000000  -0.000000  -0.000000   0.000000  -0.000000
    35  C   -0.000000  -0.000000  -0.000000  -0.000001  -0.000061   0.000255
    36  H    0.000000  -0.000000   0.000000   0.000000   0.000005  -0.000095
    37  H    0.000000  -0.000000  -0.000000   0.000003  -0.000111  -0.000053
    38  H   -0.000000   0.000000   0.000000   0.000000   0.000000   0.000038
    39  C   -0.000000   0.000000  -0.000000  -0.000000  -0.000001   0.000017
    40  H    0.000000  -0.000000   0.000000   0.000000   0.000000  -0.000002
    41  H    0.000000   0.000000   0.000000  -0.000000  -0.000000   0.000001
    42  H    0.000000  -0.000000  -0.000000  -0.000000   0.000000   0.000001
              13         14         15         16         17         18
     1  C    0.004081   0.000472  -0.000765  -0.000024   0.000025   0.001383
     2  C   -0.000364  -0.000045  -0.000045   0.000018  -0.000040  -0.000040
     3  C   -0.024457  -0.001388   0.001397   0.001196  -0.000242   0.001983
     4  C   -0.000559  -0.000765   0.000471  -0.000024   0.001383   0.000025
     5  C   -0.128353   0.046846   0.046811  -0.012059  -0.014842  -0.014838
     6  C    0.027702   0.001391  -0.001390   0.001199   0.001984  -0.000241
     7  H   -0.000007   0.000000   0.000000  -0.000000  -0.000003  -0.000003
     8  H    0.004006  -0.000212   0.001321   0.000218  -0.000017   0.000508
     9  H    0.000014  -0.000005  -0.000001  -0.000000   0.000008   0.000000
    10  H   -0.000056   0.001321  -0.000212   0.000218   0.000507  -0.000017
    11  C    0.429940  -0.016869  -0.016891  -0.047574  -0.045389  -0.045402
    12  C   -0.094051   0.185055  -0.056632   0.015813   0.392762   0.008906
    13  C    5.355103  -0.056630   0.185178   0.015744   0.008906   0.392770
    14  C   -0.056630   5.385829  -0.127178   0.377700  -0.024238   0.001936
    15  C    0.185178  -0.127178   5.385545   0.377970   0.001936  -0.024242
    16  C    0.015744   0.377700   0.377970   5.699687   0.011255   0.011258
    17  H    0.008906  -0.024238   0.001936   0.011255   0.513393  -0.000158
    18  H    0.392770   0.001936  -0.024242   0.011258  -0.000158   0.513406
    19  H    0.002843   0.406153   0.001275  -0.097740  -0.005279   0.000049
    20  H   -0.003828   0.001285   0.406151  -0.097720   0.000049  -0.005281
    21  H    0.000030  -0.000001  -0.000005  -0.000000   0.000000   0.000008
    22  C    0.033907  -0.066636  -0.066624   0.109145  -0.000155  -0.000156
    23  C    0.013927   0.045568  -0.062950  -0.218665   0.000081   0.000178
    24  C   -0.008856  -0.062957   0.045529  -0.218748   0.000178   0.000081
    25  N    0.000187   0.000132   0.000711  -0.013041   0.000000   0.000002
    26  N   -0.000014   0.000706   0.000135  -0.013028   0.000002   0.000000
    27  C    0.000254   0.000004  -0.003638  -0.014725  -0.000000   0.000004
    28  H   -0.000095  -0.000034   0.000135  -0.000170   0.000000  -0.000003
    29  H   -0.000049  -0.000787   0.006564  -0.020428   0.000000  -0.000018
    30  H    0.000038   0.000032  -0.000130   0.001039  -0.000000   0.000000
    31  C    0.000017   0.000065  -0.000018  -0.002731   0.000000   0.000000
    32  H   -0.000002  -0.000002   0.000004   0.000001   0.000000  -0.000000
    33  H    0.000001   0.000001  -0.000018   0.000117  -0.000000   0.000000
    34  H    0.000001   0.000011   0.000011  -0.000280  -0.000000  -0.000000
    35  C   -0.000017  -0.003662   0.000006  -0.014696   0.000004  -0.000000
    36  H    0.000005   0.000135  -0.000034  -0.000169  -0.000003   0.000000
    37  H    0.000181   0.006586  -0.000789  -0.020452  -0.000018   0.000000
    38  H   -0.000004  -0.000130   0.000032   0.001041   0.000000  -0.000000
    39  C   -0.000005  -0.000020   0.000066  -0.002732   0.000000   0.000000
    40  H    0.000000   0.000004  -0.000002   0.000001  -0.000000   0.000000
    41  H   -0.000000  -0.000018   0.000001   0.000117   0.000000  -0.000000
    42  H   -0.000000   0.000011   0.000011  -0.000277  -0.000000  -0.000000
              19         20         21         22         23         24
     1  C   -0.000001  -0.000002   0.411952  -0.000005   0.000000  -0.000000
     2  C   -0.000000  -0.000000  -0.050000   0.000001   0.000000   0.000000
     3  C   -0.000013   0.000018  -0.050652   0.000187   0.000017  -0.000004
     4  C   -0.000002  -0.000001   0.011986  -0.000005  -0.000000   0.000000
     5  C   -0.000756  -0.000756   0.014765  -0.004794  -0.000092  -0.000092
     6  C    0.000018  -0.000013   0.000000   0.000187  -0.000004   0.000017
     7  H    0.000000   0.000000  -0.006750  -0.000000  -0.000000  -0.000000
     8  H   -0.000001  -0.000042  -0.005958   0.000033   0.000000   0.000001
     9  H   -0.000000   0.000000  -0.000188  -0.000000   0.000000  -0.000000
    10  H   -0.000042  -0.000001   0.000033   0.000033   0.000001   0.000000
    11  C    0.010632   0.010640  -0.001704  -0.016876  -0.001929  -0.001931
    12  C   -0.003832   0.002840   0.000014   0.033882  -0.008860   0.013936
    13  C    0.002843  -0.003828   0.000030   0.033907   0.013927  -0.008856
    14  C    0.406153   0.001285  -0.000001  -0.066636   0.045568  -0.062957
    15  C    0.001275   0.406151  -0.000005  -0.066624  -0.062950   0.045529
    16  C   -0.097740  -0.097720  -0.000000   0.109145  -0.218665  -0.218748
    17  H   -0.005279   0.000049   0.000000  -0.000155   0.000081   0.000178
    18  H    0.000049  -0.005281   0.000008  -0.000156   0.000178   0.000081
    19  H    0.545876  -0.000236   0.000000  -0.001128   0.005233  -0.001057
    20  H   -0.000236   0.545915  -0.000000  -0.001168  -0.001049   0.005224
    21  H    0.000000  -0.000000   0.550844  -0.000000  -0.000000   0.000000
    22  C   -0.001128  -0.001168  -0.000000   6.712404  -0.000559   0.000329
    23  C    0.005233  -0.001049  -0.000000  -0.000559   6.040682  -0.208364
    24  C   -0.001057   0.005224   0.000000   0.000329  -0.208364   6.040108
    25  N    0.000028  -0.000080  -0.000000  -0.142502   0.551707  -0.086550
    26  N   -0.000078   0.000028  -0.000000  -0.142496  -0.086541   0.551579
    27  C   -0.000002  -0.001652  -0.000000  -0.000229  -0.046710  -0.002068
    28  H    0.000000   0.000191   0.000000   0.005590  -0.001672  -0.001500
    29  H   -0.000018   0.000485  -0.000000   0.012376  -0.019931   0.018649
    30  H    0.000000   0.000245   0.000000  -0.003287   0.006799  -0.001102
    31  C    0.000004   0.000020  -0.000000  -0.012490  -0.058335  -0.006686
    32  H    0.000000   0.000010   0.000000   0.001051   0.008553  -0.001255
    33  H   -0.000000  -0.000001   0.000000  -0.002302  -0.003196   0.003134
    34  H   -0.000001   0.000000  -0.000000   0.007328  -0.012945  -0.000292
    35  C   -0.001660  -0.000002  -0.000000  -0.000328  -0.002095  -0.046633
    36  H    0.000192   0.000000   0.000000   0.005579  -0.001494  -0.001599
    37  H    0.000483  -0.000018  -0.000000   0.012469   0.018664  -0.019953
    38  H    0.000244   0.000000   0.000000  -0.003292  -0.001109   0.006716
    39  C    0.000019   0.000004   0.000000  -0.012533  -0.006620  -0.058420
    40  H    0.000010   0.000000   0.000000   0.001044  -0.001243   0.008670
    41  H   -0.000001  -0.000000  -0.000000  -0.002303   0.003152  -0.003331
    42  H    0.000000  -0.000001  -0.000000   0.007243  -0.000388  -0.012989
              25         26         27         28         29         30
     1  C    0.000000  -0.000000   0.000000  -0.000000  -0.000000   0.000000
     2  C    0.000000   0.000000   0.000000  -0.000000   0.000000   0.000000
     3  C    0.000000   0.000000   0.000000  -0.000000   0.000003   0.000000
     4  C   -0.000000   0.000000  -0.000000   0.000000   0.000000  -0.000000
     5  C   -0.000000  -0.000000  -0.000004   0.000000  -0.000028   0.000000
     6  C    0.000000   0.000000  -0.000000  -0.000000   0.000000   0.000000
     7  H   -0.000000  -0.000000  -0.000000   0.000000   0.000000  -0.000000
     8  H   -0.000000   0.000000  -0.000001   0.000000   0.000003   0.000000
     9  H   -0.000000  -0.000000  -0.000000   0.000000  -0.000000   0.000000
    10  H    0.000000  -0.000000  -0.000000  -0.000000  -0.000000   0.000000
    11  C   -0.000024  -0.000024  -0.000061   0.000005  -0.000111   0.000000
    12  C   -0.000014   0.000188  -0.000017   0.000005   0.000181  -0.000004
    13  C    0.000187  -0.000014   0.000254  -0.000095  -0.000049   0.000038
    14  C    0.000132   0.000706   0.000004  -0.000034  -0.000787   0.000032
    15  C    0.000711   0.000135  -0.003638   0.000135   0.006564  -0.000130
    16  C   -0.013041  -0.013028  -0.014725  -0.000170  -0.020428   0.001039
    17  H    0.000000   0.000002  -0.000000   0.000000   0.000000  -0.000000
    18  H    0.000002   0.000000   0.000004  -0.000003  -0.000018   0.000000
    19  H    0.000028  -0.000078  -0.000002   0.000000  -0.000018   0.000000
    20  H   -0.000080   0.000028  -0.001652   0.000191   0.000485   0.000245
    21  H   -0.000000  -0.000000  -0.000000   0.000000  -0.000000   0.000000
    22  C   -0.142502  -0.142496  -0.000229   0.005590   0.012376  -0.003287
    23  C    0.551707  -0.086541  -0.046710  -0.001672  -0.019931   0.006799
    24  C   -0.086550   0.551579  -0.002068  -0.001500   0.018649  -0.001102
    25  N    6.420111  -0.000866   0.226795  -0.035551  -0.024936  -0.041515
    26  N   -0.000866   6.420339  -0.000650   0.000002   0.000086  -0.000005
    27  C    0.226795  -0.000650   4.932193   0.408238   0.390596   0.409175
    28  H   -0.035551   0.000002   0.408238   0.508561  -0.016984  -0.030779
    29  H   -0.024936   0.000086   0.390596  -0.016984   0.517993  -0.021494
    30  H   -0.041515  -0.000005   0.409175  -0.030779  -0.021494   0.513351
    31  C    0.240866   0.000344  -0.059736  -0.009738   0.008352   0.001168
    32  H   -0.038537  -0.000013  -0.001625   0.005647   0.000447  -0.003020
    33  H   -0.038779  -0.000081  -0.006367  -0.000944  -0.000269   0.004846
    34  H   -0.026841  -0.001859   0.009458  -0.000093  -0.000502   0.000144
    35  C   -0.000650   0.226743   0.000011  -0.000002   0.000007  -0.000000
    36  H    0.000002  -0.035520  -0.000002  -0.000000  -0.000000   0.000000
    37  H    0.000086  -0.024992   0.000007  -0.000000  -0.000002   0.000000
    38  H   -0.000005  -0.041546  -0.000000   0.000000   0.000000  -0.000000
    39  C    0.000341   0.240722  -0.000150   0.000003   0.000029  -0.000004
    40  H   -0.000013  -0.038422   0.000000  -0.000000  -0.000001   0.000000
    41  H   -0.000082  -0.038826   0.000007   0.000001   0.000000  -0.000000
    42  H   -0.001836  -0.026718  -0.000010   0.000002   0.000006  -0.000001
              31         32         33         34         35         36
     1  C    0.000000  -0.000000   0.000000   0.000000  -0.000000   0.000000
     2  C    0.000000  -0.000000  -0.000000   0.000000   0.000000  -0.000000
     3  C    0.000000  -0.000000  -0.000000   0.000000  -0.000000  -0.000000
     4  C   -0.000000   0.000000  -0.000000  -0.000000   0.000000  -0.000000
     5  C   -0.000000   0.000000   0.000000  -0.000000  -0.000004   0.000000
     6  C   -0.000000   0.000000  -0.000000   0.000000   0.000000  -0.000000
     7  H   -0.000000   0.000000   0.000000   0.000000  -0.000000   0.000000
     8  H   -0.000000   0.000000  -0.000000  -0.000000  -0.000000  -0.000000
     9  H    0.000000   0.000000  -0.000000  -0.000000  -0.000000   0.000000
    10  H    0.000000  -0.000000   0.000000  -0.000000  -0.000001   0.000000
    11  C   -0.000001   0.000000  -0.000000   0.000000  -0.000061   0.000005
    12  C   -0.000005   0.000000  -0.000000  -0.000000   0.000255  -0.000095
    13  C    0.000017  -0.000002   0.000001   0.000001  -0.000017   0.000005
    14  C    0.000065  -0.000002   0.000001   0.000011  -0.003662   0.000135
    15  C   -0.000018   0.000004  -0.000018   0.000011   0.000006  -0.000034
    16  C   -0.002731   0.000001   0.000117  -0.000280  -0.014696  -0.000169
    17  H    0.000000   0.000000  -0.000000  -0.000000   0.000004  -0.000003
    18  H    0.000000  -0.000000   0.000000  -0.000000  -0.000000   0.000000
    19  H    0.000004   0.000000  -0.000000  -0.000001  -0.001660   0.000192
    20  H    0.000020   0.000010  -0.000001   0.000000  -0.000002   0.000000
    21  H   -0.000000   0.000000   0.000000  -0.000000  -0.000000   0.000000
    22  C   -0.012490   0.001051  -0.002302   0.007328  -0.000328   0.005579
    23  C   -0.058335   0.008553  -0.003196  -0.012945  -0.002095  -0.001494
    24  C   -0.006686  -0.001255   0.003134  -0.000292  -0.046633  -0.001599
    25  N    0.240866  -0.038537  -0.038779  -0.026841  -0.000650   0.000002
    26  N    0.000344  -0.000013  -0.000081  -0.001859   0.226743  -0.035520
    27  C   -0.059736  -0.001625  -0.006367   0.009458   0.000011  -0.000002
    28  H   -0.009738   0.005647  -0.000944  -0.000093  -0.000002  -0.000000
    29  H    0.008352   0.000447  -0.000269  -0.000502   0.000007  -0.000000
    30  H    0.001168  -0.003020   0.004846   0.000144  -0.000000   0.000000
    31  C    4.935248   0.400697   0.417284   0.394409  -0.000153   0.000003
    32  H    0.400697   0.510917  -0.028896  -0.020334   0.000000  -0.000000
    33  H    0.417284  -0.028896   0.504152  -0.022866   0.000007   0.000001
    34  H    0.394409  -0.020334  -0.022866   0.535764  -0.000008   0.000002
    35  C   -0.000153   0.000000   0.000007  -0.000008   4.932223   0.408183
    36  H    0.000003  -0.000000   0.000001   0.000002   0.408183   0.508472
    37  H    0.000029  -0.000001   0.000000   0.000006   0.390570  -0.016951
    38  H   -0.000004   0.000000  -0.000000  -0.000001   0.409270  -0.030758
    39  C   -0.003420   0.000174  -0.000086  -0.002508  -0.059553  -0.009808
    40  H    0.000174  -0.000006   0.000012   0.000285  -0.001636   0.005627
    41  H   -0.000088   0.000013  -0.000018  -0.000216  -0.006340  -0.000930
    42  H   -0.002601   0.000285  -0.000205   0.002230   0.009435  -0.000089
              37         38         39         40         41         42
     1  C    0.000000  -0.000000  -0.000000   0.000000  -0.000000  -0.000000
     2  C    0.000000   0.000000   0.000000  -0.000000  -0.000000   0.000000
     3  C    0.000000   0.000000  -0.000000   0.000000  -0.000000   0.000000
     4  C   -0.000000   0.000000   0.000000  -0.000000   0.000000   0.000000
     5  C   -0.000028   0.000000  -0.000000   0.000000   0.000000  -0.000000
     6  C    0.000003   0.000000   0.000000  -0.000000  -0.000000   0.000000
     7  H    0.000000  -0.000000  -0.000000   0.000000   0.000000   0.000000
     8  H   -0.000000   0.000000   0.000000  -0.000000   0.000000  -0.000000
     9  H   -0.000000   0.000000  -0.000000   0.000000   0.000000  -0.000000
    10  H    0.000003   0.000000  -0.000000   0.000000  -0.000000  -0.000000
    11  C   -0.000111   0.000000  -0.000001   0.000000  -0.000000   0.000000
    12  C   -0.000053   0.000038   0.000017  -0.000002   0.000001   0.000001
    13  C    0.000181  -0.000004  -0.000005   0.000000  -0.000000  -0.000000
    14  C    0.006586  -0.000130  -0.000020   0.000004  -0.000018   0.000011
    15  C   -0.000789   0.000032   0.000066  -0.000002   0.000001   0.000011
    16  C   -0.020452   0.001041  -0.002732   0.000001   0.000117  -0.000277
    17  H   -0.000018   0.000000   0.000000  -0.000000   0.000000  -0.000000
    18  H    0.000000  -0.000000   0.000000   0.000000  -0.000000  -0.000000
    19  H    0.000483   0.000244   0.000019   0.000010  -0.000001   0.000000
    20  H   -0.000018   0.000000   0.000004   0.000000  -0.000000  -0.000001
    21  H   -0.000000   0.000000   0.000000   0.000000  -0.000000  -0.000000
    22  C    0.012469  -0.003292  -0.012533   0.001044  -0.002303   0.007243
    23  C    0.018664  -0.001109  -0.006620  -0.001243   0.003152  -0.000388
    24  C   -0.019953   0.006716  -0.058420   0.008670  -0.003331  -0.012989
    25  N    0.000086  -0.000005   0.000341  -0.000013  -0.000082  -0.001836
    26  N   -0.024992  -0.041546   0.240722  -0.038422  -0.038826  -0.026718
    27  C    0.000007  -0.000000  -0.000150   0.000000   0.000007  -0.000010
    28  H   -0.000000   0.000000   0.000003  -0.000000   0.000001   0.000002
    29  H   -0.000002   0.000000   0.000029  -0.000001   0.000000   0.000006
    30  H    0.000000  -0.000000  -0.000004   0.000000  -0.000000  -0.000001
    31  C    0.000029  -0.000004  -0.003420   0.000174  -0.000088  -0.002601
    32  H   -0.000001   0.000000   0.000174  -0.000006   0.000013   0.000285
    33  H    0.000000  -0.000000  -0.000086   0.000012  -0.000018  -0.000205
    34  H    0.000006  -0.000001  -0.002508   0.000285  -0.000216   0.002230
    35  C    0.390570   0.409270  -0.059553  -0.001636  -0.006340   0.009435
    36  H   -0.016951  -0.030758  -0.009808   0.005627  -0.000930  -0.000089
    37  H    0.518110  -0.021546   0.008337   0.000455  -0.000273  -0.000501
    38  H   -0.021546   0.513305   0.001255  -0.003034   0.004811   0.000142
    39  C    0.008337   0.001255   4.935722   0.400442   0.417446   0.394638
    40  H    0.000455  -0.003034   0.400442   0.510796  -0.028794  -0.020311
    41  H   -0.000273   0.004811   0.417446  -0.028794   0.504028  -0.022980
    42  H   -0.000501   0.000142   0.394638  -0.020311  -0.022980   0.535455
 Mulliken charges:
               1
     1  C   -0.092883
     2  C   -0.117871
     3  C   -0.120812
     4  C   -0.092881
     5  C   -0.001911
     6  C   -0.120815
     7  H    0.131656
     8  H    0.138990
     9  H    0.125625
    10  H    0.138990
    11  C    0.014433
    12  C   -0.157482
    13  C   -0.157488
    14  C   -0.099664
    15  C   -0.099696
    16  C    0.171548
    17  H    0.157908
    18  H    0.157901
    19  H    0.138786
    20  H    0.138745
    21  H    0.125625
    22  C   -0.462919
    23  C    0.050188
    24  C    0.050234
    25  N    0.010853
    26  N    0.010806
    27  C   -0.239094
    28  H    0.169184
    29  H    0.149778
    30  H    0.164503
    31  C   -0.242673
    32  H    0.165891
    33  H    0.174475
    34  H    0.139097
    35  C   -0.239212
    36  H    0.169246
    37  H    0.149696
    38  H    0.164576
    39  C   -0.243353
    40  H    0.165944
    41  H    0.174623
    42  H    0.139450
 Sum of Mulliken charges =   1.00000
 Mulliken charges with hydrogens summed into heavy atoms:
               1
     1  C    0.032742
     2  C    0.013786
     3  C    0.018178
     4  C    0.032744
     5  C   -0.001911
     6  C    0.018175
    11  C    0.014433
    12  C    0.000426
    13  C    0.000413
    14  C    0.039122
    15  C    0.039049
    16  C    0.171548
    22  C   -0.462919
    23  C    0.050188
    24  C    0.050234
    25  N    0.010853
    26  N    0.010806
    27  C    0.244371
    31  C    0.236790
    35  C    0.244306
    39  C    0.236663
 Electronic spatial extent (au):  <R**2>=           9905.0030
 Charge=              1.0000 electrons
 Dipole moment (field-independent basis, Debye):
    X=             11.6701    Y=              0.0004    Z=              0.0017  Tot=             11.6701
 Quadrupole moment (field-independent basis, Debye-Ang):
   XX=            -23.6500   YY=            -84.5160   ZZ=           -126.0705
   XY=              0.0018   XZ=              0.0060   YZ=             -0.3165
 Traceless Quadrupole moment (field-independent basis, Debye-Ang):
   XX=             54.4288   YY=             -6.4372   ZZ=            -47.9916
   XY=              0.0018   XZ=              0.0060   YZ=             -0.3165
 Octapole moment (field-independent basis, Debye-Ang**2):
  XXX=            193.3157  YYY=              0.0208  ZZZ=              0.0149  XYY=             91.4027
  XXY=              0.0080  XXZ=              0.0354  XZZ=             36.6408  YZZ=             -0.0062
  YYZ=             -0.0021  XYZ=             -6.2542
 Hexadecapole moment (field-independent basis, Debye-Ang**3):
 XXXX=          -7969.7800 YYYY=          -1725.5688 ZZZZ=           -224.7502 XXXY=              0.0715
 XXXZ=              0.0009 YYYX=              0.0953 YYYZ=             -0.8494 ZZZX=              0.0828
 ZZZY=              0.8080 XXYY=          -1636.9006 XXZZ=          -1988.2773 YYZZ=           -356.8423
 XXYZ=             58.8832 YYXZ=             -0.0393 ZZXY=             -0.0563
 N-N= 1.487460204840D+03 E-N=-4.918285827134D+03  KE= 8.407867222335D+02
 No NMR shielding tensors so no spin-rotation constants.
 Leave Link  601 at Thu Jan 21 05:37:53 2021, MaxMem=  4026531840 cpu:               2.7 elap:               0.4
 (Enter /opt/ohpc/pub/libs/gaussian/g16-A.03/sandybridge/g16/l9999.exe)

 Test job not archived.
 1\1\GINC-CASCADEB025\SP\RLC-wHPBE\TZVP\C19H21N2(1+)\RDU230\21-Jan-2021
 \0\\#P LC-wHPBE/TZVP iop(3/107=0208100000, 3/108=0208100000) scf=(conv
 er=6,fermi,ndamp=35,noincfock,novaracc,vshift=500,xqc)\\H21 C19 N2\\1,
 1\C,0,5.924302,-1.175178,0.28256\C,0,6.625626,0.000025,-0.000251\C,0,4
 .530324,-1.177472,0.278212\C,0,5.924206,1.175202,-0.282951\C,0,3.81093
 6,-0.000036,-0.000021\C,0,4.530233,1.177435,-0.278371\H,0,7.716547,0.0
 00056,-0.000331\H,0,3.994064,-2.094974,0.527939\H,0,6.466302,2.09321,-
 0.514746\H,0,3.99388,2.094904,-0.52801\C,0,2.333716,-0.000062,0.000109
 \C,0,1.604784,1.119278,0.452707\C,0,1.604752,-1.119433,-0.452341\C,0,0
 .21685,1.12577,0.449243\C,0,0.216813,-1.125977,-0.44867\C,0,-0.504919,
 -0.000106,0.000309\H,0,2.141671,1.985727,0.840835\H,0,2.141597,-1.9858
 91,-0.840507\H,0,-0.315693,1.995203,0.838189\H,0,-0.315745,-1.995465,-
 0.837475\H,0,6.466484,-2.093156,0.514265\C,0,-1.942874,-0.000086,0.000
 402\C,0,-3.143323,-0.702637,-0.003392\C,0,-3.143127,0.702801,0.003915\
 N,0,-3.78708,-1.855019,0.001668\N,0,-3.786774,1.855252,-0.001097\C,0,-
 3.068411,-3.12252,0.167733\H,0,-3.187886,-3.74858,-0.728596\H,0,-2.005
 788,-2.927607,0.341041\H,0,-3.471162,-3.663551,1.036238\C,0,-5.245121,
 -1.94416,-0.100275\H,0,-5.509149,-2.713998,-0.838669\H,0,-5.688951,-2.
 217262,0.869111\H,0,-5.659251,-0.989594,-0.439085\C,0,-3.068047,3.1226
 16,-0.16813\H,0,-3.188116,3.749602,0.727455\H,0,-2.005304,2.927538,-0.
 340531\H,0,-3.470192,3.662707,-1.037509\C,0,-5.24495,1.944232,0.099391
 \H,0,-5.509538,2.71844,0.832954\H,0,-5.688631,2.211256,-0.871774\H,0,-
 5.658779,0.991638,0.444142\\Version=EM64L-G16RevA.03\State=1-A\HF=-845
 .3753904\RMSD=6.356e-07\Dipole=-4.5913837,0.0001647,-0.0006543\Quadrup
 ole=40.466489,-4.7858956,-35.6805934,-0.0013393,0.0044328,0.2352918\PG
 =C01 [X(C19H21N2)]\\@


 THERE ARE TWO THINGS THAT EVERYBODY THINKS THEY CAN DO BETTER THAN
 ANYONE ELSE - PUNCH THE FIRE, AND EDIT A DAILY PAPER.
 -- UNCLE ESEK, "CENTURY MAGAZINE", 1885
 Job cpu time:       0 days  1 hours  0 minutes 14.7 seconds.
 Elapsed time:       0 days  0 hours  7 minutes 33.5 seconds.
 File lengths (MBytes):  RWF=    136 Int=      0 D2E=      0 Chk=     24 Scr=      8
 Normal termination of Gaussian 16 at Thu Jan 21 05:37:53 2021.
