 Entering Gaussian System, Link 0=g16
 Input=mol_bp_cp_half_tune_c7.gjf
 Output=mol_bp_cp_half_tune_c7.log
 Initial command:
 /opt/ohpc/pub/libs/gaussian/g16-A.03/sandybridge/g16/l1.exe "/mnt/gpfs2_4m/scratch/rdu230/ondemand/projects/init_structures/wtuning/mol_bp_cp_half/tuning_mol_bp_cp_half_ocycle0/Gau-276631.inp" -scrdir="/mnt/gpfs2_4m/scratch/rdu230/ondemand/projects/init_structures/wtuning/mol_bp_cp_half/tuning_mol_bp_cp_half_ocycle0/"
 Entering Link 1 = /opt/ohpc/pub/libs/gaussian/g16-A.03/sandybridge/g16/l1.exe PID=    276632.
  
 Copyright (c) 1988,1990,1992,1993,1995,1998,2003,2009,2016,
            Gaussian, Inc.  All Rights Reserved.
  
 This is part of the Gaussian(R) 16 program.  It is based on
 the Gaussian(R) 09 system (copyright 2009, Gaussian, Inc.),
 the Gaussian(R) 03 system (copyright 2003, Gaussian, Inc.),
 the Gaussian(R) 98 system (copyright 1998, Gaussian, Inc.),
 the Gaussian(R) 94 system (copyright 1995, Gaussian, Inc.),
 the Gaussian 92(TM) system (copyright 1992, Gaussian, Inc.),
 the Gaussian 90(TM) system (copyright 1990, Gaussian, Inc.),
 the Gaussian 88(TM) system (copyright 1988, Gaussian, Inc.),
 the Gaussian 86(TM) system (copyright 1986, Carnegie Mellon
 University), and the Gaussian 82(TM) system (copyright 1983,
 Carnegie Mellon University). Gaussian is a federally registered
 trademark of Gaussian, Inc.
  
 This software contains proprietary and confidential information,
 including trade secrets, belonging to Gaussian, Inc.
  
 This software is provided under written license and may be
 used, copied, transmitted, or stored only in accord with that
 written license.
  
 The following legend is applicable only to US Government
 contracts under FAR:
  
                    RESTRICTED RIGHTS LEGEND
  
 Use, reproduction and disclosure by the US Government is
 subject to restrictions as set forth in subparagraphs (a)
 and (c) of the Commercial Computer Software - Restricted
 Rights clause in FAR 52.227-19.
  
 Gaussian, Inc.
 340 Quinnipiac St., Bldg. 40, Wallingford CT 06492
  
  
 ---------------------------------------------------------------
 Warning -- This program may not be used in any manner that
 competes with the business of Gaussian, Inc. or will provide
 assistance to any competitor of Gaussian, Inc.  The licensee
 of this program is prohibited from giving any competitor of
 Gaussian, Inc. access to this program.  By using this program,
 the user acknowledges that Gaussian, Inc. is engaged in the
 business of creating and licensing software in the field of
 computational chemistry and represents and warrants to the
 licensee that it is not a competitor of Gaussian, Inc. and that
 it will not use this program in any manner prohibited above.
 ---------------------------------------------------------------
  

 Cite this work as:
 Gaussian 16, Revision A.03,
 M. J. Frisch, G. W. Trucks, H. B. Schlegel, G. E. Scuseria, 
 M. A. Robb, J. R. Cheeseman, G. Scalmani, V. Barone, 
 G. A. Petersson, H. Nakatsuji, X. Li, M. Caricato, A. V. Marenich, 
 J. Bloino, B. G. Janesko, R. Gomperts, B. Mennucci, H. P. Hratchian, 
 J. V. Ortiz, A. F. Izmaylov, J. L. Sonnenberg, D. Williams-Young, 
 F. Ding, F. Lipparini, F. Egidi, J. Goings, B. Peng, A. Petrone, 
 T. Henderson, D. Ranasinghe, V. G. Zakrzewski, J. Gao, N. Rega, 
 G. Zheng, W. Liang, M. Hada, M. Ehara, K. Toyota, R. Fukuda, 
 J. Hasegawa, M. Ishida, T. Nakajima, Y. Honda, O. Kitao, H. Nakai, 
 T. Vreven, K. Throssell, J. A. Montgomery, Jr., J. E. Peralta, 
 F. Ogliaro, M. J. Bearpark, J. J. Heyd, E. N. Brothers, K. N. Kudin, 
 V. N. Staroverov, T. A. Keith, R. Kobayashi, J. Normand, 
 K. Raghavachari, A. P. Rendell, J. C. Burant, S. S. Iyengar, 
 J. Tomasi, M. Cossi, J. M. Millam, M. Klene, C. Adamo, R. Cammi, 
 J. W. Ochterski, R. L. Martin, K. Morokuma, O. Farkas, 
 J. B. Foresman, and D. J. Fox, Gaussian, Inc., Wallingford CT, 2016.
 
 ******************************************
 Gaussian 16:  EM64L-G16RevA.03 25-Dec-2016
                21-Jan-2021 
 ******************************************
 %mem=30GB
 %nproc=8
 Will use up to    8 processors via shared memory.
 ----------------------------------------------------------------------
 #P LC-wHPBE/TZVP iop(3/107=0208900000, 3/108=0208900000) scf=(conver=6
 ,fermi,ndamp=35,noincfock,novaracc,vshift=500,xqc)
 ----------------------------------------------------------------------
 1/38=1,172=1/1;
 2/12=2,17=6,18=5,40=1/2;
 3/5=19,7=101,11=2,25=1,30=1,74=-71,107=208900000,108=208900000/1,2,3;
 4//1;
 5/5=100002,6=6,8=3,10=500,13=1,18=-1,22=13,38=1,93=35/2,8;
 6/7=2,8=2,9=2,10=2,28=1/1;
 99/5=1,9=1/99;
 Leave Link    1 at Thu Jan 21 04:25:31 2021, MaxMem=  4026531840 cpu:               1.3 elap:               0.2
 (Enter /opt/ohpc/pub/libs/gaussian/g16-A.03/sandybridge/g16/l101.exe)
 ----------
 H21 C19 N2
 ----------
 Symbolic Z-matrix:
 Charge =  2 Multiplicity = 2
 C                     5.9243   -1.17518   0.28256 
 C                     6.62563   0.00003  -0.00025 
 C                     4.53032  -1.17747   0.27821 
 C                     5.92421   1.1752   -0.28295 
 C                     3.81094  -0.00004  -0.00002 
 C                     4.53023   1.17744  -0.27837 
 H                     7.71655   0.00006  -0.00033 
 H                     3.99406  -2.09497   0.52794 
 H                     6.4663    2.09321  -0.51475 
 H                     3.99388   2.0949   -0.52801 
 C                     2.33372  -0.00006   0.00011 
 C                     1.60478   1.11928   0.45271 
 C                     1.60475  -1.11943  -0.45234 
 C                     0.21685   1.12577   0.44924 
 C                     0.21681  -1.12598  -0.44867 
 C                    -0.50492  -0.00011   0.00031 
 H                     2.14167   1.98573   0.84084 
 H                     2.1416   -1.98589  -0.84051 
 H                    -0.31569   1.9952    0.83819 
 H                    -0.31575  -1.99547  -0.83748 
 H                     6.46648  -2.09316   0.51427 
 C                    -1.94287  -0.00009   0.0004 
 C                    -3.14332  -0.70264  -0.00339 
 C                    -3.14313   0.7028    0.00392 
 N                    -3.78708  -1.85502   0.00167 
 N                    -3.78677   1.85525  -0.0011 
 C                    -3.06841  -3.12252   0.16773 
 H                    -3.18789  -3.74858  -0.7286 
 H                    -2.00579  -2.92761   0.34104 
 H                    -3.47116  -3.66355   1.03624 
 C                    -5.24512  -1.94416  -0.10028 
 H                    -5.50915  -2.714    -0.83867 
 H                    -5.68895  -2.21726   0.86911 
 H                    -5.65925  -0.98959  -0.43909 
 C                    -3.06805   3.12262  -0.16813 
 H                    -3.18812   3.7496    0.72746 
 H                    -2.0053    2.92754  -0.34053 
 H                    -3.47019   3.66271  -1.03751 
 C                    -5.24495   1.94423   0.09939 
 H                    -5.50954   2.71844   0.83295 
 H                    -5.68863   2.21126  -0.87177 
 H                    -5.65878   0.99164   0.44414 
 
 ITRead=  0  0  0  0  0  0  0  0  0  0  0  0  0  0  0  0  0  0  0  0
 ITRead=  0  0  0  0  0  0  0  0  0  0  0  0  0  0  0  0  0  0  0  0
 ITRead=  0  0
 MicOpt= -1 -1 -1 -1 -1 -1 -1 -1 -1 -1 -1 -1 -1 -1 -1 -1 -1 -1 -1 -1
 MicOpt= -1 -1 -1 -1 -1 -1 -1 -1 -1 -1 -1 -1 -1 -1 -1 -1 -1 -1 -1 -1
 MicOpt= -1 -1
 NAtoms=     42 NQM=       42 NQMF=       0 NMMI=      0 NMMIF=      0
                NMic=       0 NMicF=      0.
                    Isotopes and Nuclear Properties:
 (Nuclear quadrupole moments (NQMom) in fm**2, nuclear magnetic moments (NMagM)
  in nuclear magnetons)

  Atom         1           2           3           4           5           6           7           8           9          10
 IAtWgt=          12          12          12          12          12          12           1           1           1           1
 AtmWgt=  12.0000000  12.0000000  12.0000000  12.0000000  12.0000000  12.0000000   1.0078250   1.0078250   1.0078250   1.0078250
 NucSpn=           0           0           0           0           0           0           1           1           1           1
 AtZEff=  -0.0000000  -0.0000000  -0.0000000  -0.0000000  -0.0000000  -0.0000000  -0.0000000  -0.0000000  -0.0000000  -0.0000000
 NQMom=    0.0000000   0.0000000   0.0000000   0.0000000   0.0000000   0.0000000   0.0000000   0.0000000   0.0000000   0.0000000
 NMagM=    0.0000000   0.0000000   0.0000000   0.0000000   0.0000000   0.0000000   2.7928460   2.7928460   2.7928460   2.7928460
 AtZNuc=   6.0000000   6.0000000   6.0000000   6.0000000   6.0000000   6.0000000   1.0000000   1.0000000   1.0000000   1.0000000

  Atom        11          12          13          14          15          16          17          18          19          20
 IAtWgt=          12          12          12          12          12          12           1           1           1           1
 AtmWgt=  12.0000000  12.0000000  12.0000000  12.0000000  12.0000000  12.0000000   1.0078250   1.0078250   1.0078250   1.0078250
 NucSpn=           0           0           0           0           0           0           1           1           1           1
 AtZEff=  -0.0000000  -0.0000000  -0.0000000  -0.0000000  -0.0000000  -0.0000000  -0.0000000  -0.0000000  -0.0000000  -0.0000000
 NQMom=    0.0000000   0.0000000   0.0000000   0.0000000   0.0000000   0.0000000   0.0000000   0.0000000   0.0000000   0.0000000
 NMagM=    0.0000000   0.0000000   0.0000000   0.0000000   0.0000000   0.0000000   2.7928460   2.7928460   2.7928460   2.7928460
 AtZNuc=   6.0000000   6.0000000   6.0000000   6.0000000   6.0000000   6.0000000   1.0000000   1.0000000   1.0000000   1.0000000

  Atom        21          22          23          24          25          26          27          28          29          30
 IAtWgt=           1          12          12          12          14          14          12           1           1           1
 AtmWgt=   1.0078250  12.0000000  12.0000000  12.0000000  14.0030740  14.0030740  12.0000000   1.0078250   1.0078250   1.0078250
 NucSpn=           1           0           0           0           2           2           0           1           1           1
 AtZEff=  -0.0000000  -0.0000000  -0.0000000  -0.0000000  -0.0000000  -0.0000000  -0.0000000  -0.0000000  -0.0000000  -0.0000000
 NQMom=    0.0000000   0.0000000   0.0000000   0.0000000   2.0440000   2.0440000   0.0000000   0.0000000   0.0000000   0.0000000
 NMagM=    2.7928460   0.0000000   0.0000000   0.0000000   0.4037610   0.4037610   0.0000000   2.7928460   2.7928460   2.7928460
 AtZNuc=   1.0000000   6.0000000   6.0000000   6.0000000   7.0000000   7.0000000   6.0000000   1.0000000   1.0000000   1.0000000

  Atom        31          32          33          34          35          36          37          38          39          40
 IAtWgt=          12           1           1           1          12           1           1           1          12           1
 AtmWgt=  12.0000000   1.0078250   1.0078250   1.0078250  12.0000000   1.0078250   1.0078250   1.0078250  12.0000000   1.0078250
 NucSpn=           0           1           1           1           0           1           1           1           0           1
 AtZEff=  -0.0000000  -0.0000000  -0.0000000  -0.0000000  -0.0000000  -0.0000000  -0.0000000  -0.0000000  -0.0000000  -0.0000000
 NQMom=    0.0000000   0.0000000   0.0000000   0.0000000   0.0000000   0.0000000   0.0000000   0.0000000   0.0000000   0.0000000
 NMagM=    0.0000000   2.7928460   2.7928460   2.7928460   0.0000000   2.7928460   2.7928460   2.7928460   0.0000000   2.7928460
 AtZNuc=   6.0000000   1.0000000   1.0000000   1.0000000   6.0000000   1.0000000   1.0000000   1.0000000   6.0000000   1.0000000

  Atom        41          42
 IAtWgt=           1           1
 AtmWgt=   1.0078250   1.0078250
 NucSpn=           1           1
 AtZEff=  -0.0000000  -0.0000000
 NQMom=    0.0000000   0.0000000
 NMagM=    2.7928460   2.7928460
 AtZNuc=   1.0000000   1.0000000
 Leave Link  101 at Thu Jan 21 04:25:31 2021, MaxMem=  4026531840 cpu:               0.7 elap:               0.1
 (Enter /opt/ohpc/pub/libs/gaussian/g16-A.03/sandybridge/g16/l202.exe)
                          Input orientation:                          
 ---------------------------------------------------------------------
 Center     Atomic      Atomic             Coordinates (Angstroms)
 Number     Number       Type             X           Y           Z
 ---------------------------------------------------------------------
      1          6           0        5.924302   -1.175178    0.282560
      2          6           0        6.625626    0.000025   -0.000251
      3          6           0        4.530324   -1.177472    0.278212
      4          6           0        5.924206    1.175202   -0.282951
      5          6           0        3.810936   -0.000036   -0.000021
      6          6           0        4.530233    1.177435   -0.278371
      7          1           0        7.716547    0.000056   -0.000331
      8          1           0        3.994064   -2.094974    0.527939
      9          1           0        6.466302    2.093210   -0.514746
     10          1           0        3.993880    2.094904   -0.528010
     11          6           0        2.333716   -0.000062    0.000109
     12          6           0        1.604784    1.119278    0.452707
     13          6           0        1.604752   -1.119433   -0.452341
     14          6           0        0.216850    1.125770    0.449243
     15          6           0        0.216813   -1.125977   -0.448670
     16          6           0       -0.504919   -0.000106    0.000309
     17          1           0        2.141671    1.985727    0.840835
     18          1           0        2.141597   -1.985891   -0.840507
     19          1           0       -0.315693    1.995203    0.838189
     20          1           0       -0.315745   -1.995465   -0.837475
     21          1           0        6.466484   -2.093156    0.514265
     22          6           0       -1.942874   -0.000086    0.000402
     23          6           0       -3.143323   -0.702637   -0.003392
     24          6           0       -3.143127    0.702801    0.003915
     25          7           0       -3.787080   -1.855019    0.001668
     26          7           0       -3.786774    1.855252   -0.001097
     27          6           0       -3.068411   -3.122520    0.167733
     28          1           0       -3.187886   -3.748580   -0.728596
     29          1           0       -2.005788   -2.927607    0.341041
     30          1           0       -3.471162   -3.663551    1.036238
     31          6           0       -5.245121   -1.944160   -0.100275
     32          1           0       -5.509149   -2.713998   -0.838669
     33          1           0       -5.688951   -2.217262    0.869111
     34          1           0       -5.659251   -0.989594   -0.439085
     35          6           0       -3.068047    3.122616   -0.168130
     36          1           0       -3.188116    3.749602    0.727455
     37          1           0       -2.005304    2.927538   -0.340531
     38          1           0       -3.470192    3.662707   -1.037509
     39          6           0       -5.244950    1.944232    0.099391
     40          1           0       -5.509538    2.718440    0.832954
     41          1           0       -5.688631    2.211256   -0.871774
     42          1           0       -5.658779    0.991638    0.444142
 ---------------------------------------------------------------------
                    Distance matrix (angstroms):
                    1          2          3          4          5
     1  C    0.000000
     2  C    1.397476   0.000000
     3  C    1.393987   2.419573   0.000000
     4  C    2.417455   1.397480   2.791574   0.000000
     5  C    2.434569   2.814690   1.407582   2.434573   0.000000
     6  C    2.791569   2.419570   2.419788   1.393982   1.407588
     7  H    2.161792   1.090921   3.408251   2.161788   3.905611
     8  H    2.152221   3.404868   1.091672   3.882917   2.168189
     9  H    3.407612   2.161368   3.882545   1.091025   3.420174
    10  H    3.882910   3.404869   3.412655   2.152223   2.168182
    11  C    3.788533   4.291910   2.507733   3.788534   1.477220
    12  C    4.894049   5.163986   3.723479   4.381977   2.514942
    13  C    4.381974   5.163986   3.015965   4.894050   2.514934
    14  C    6.156066   6.522404   4.892876   5.754343   3.792985
    15  C    5.754350   6.522411   4.374630   6.156072   3.792987
    16  C    6.541815   7.130545   5.178522   6.541807   4.315855
    17  H    4.960977   4.975569   4.003503   4.028327   2.727039
    18  H    4.028324   4.975581   2.758820   4.960999   2.727037
    19  H    7.021223   7.270875   5.819220   6.392628   4.659683
    20  H    6.392616   7.270870   5.039668   7.021226   4.659674
    21  H    1.091023   2.161356   2.154742   3.407607   3.420172
    22  C    7.959454   8.568500   6.585265   7.959431   5.753810
    23  C    9.084431   9.794187   7.693480   9.264152   6.989662
    24  C    9.264055   9.794001   7.905221   9.084161   6.989491
    25  N    9.739200  10.576655   8.349536  10.177049   7.821177
    26  N   10.176884  10.576386   8.857175   9.738842   7.820952
    27  C    9.201859  10.185915   7.844501   9.977008   7.556683
    28  H    9.522437  10.530315   8.197257  10.366892   7.972823
    29  H    8.121623   9.120790   6.766659   8.950263   6.520834
    30  H    9.748578  10.790794   8.413024  10.650199   8.217307
    31  C   11.202406  12.029318   9.812767  11.598175   9.262928
    32  H   11.590898  12.462810  10.217600  12.089512   9.743352
    33  H   11.674657  12.542765  10.289019  12.153250   9.793842
    34  H   11.607494  12.332482  10.216519  11.785041   9.531865
    35  C    9.976798  10.185581   8.742152   9.201425   7.556429
    36  H   10.367620  10.530832   9.167998   9.522755   7.973439
    37  H    8.949814   9.120256   7.742634   8.121030   6.520375
    38  H   10.649142  10.789656   9.442813   9.747397   8.216258
    39  C   11.598123  12.029150  10.263186  11.202127   9.262782
    40  H   12.091149  12.463796  10.783538  11.591261   9.744496
    41  H   12.151569  12.541532  10.827418  11.673821   9.792423
    42  H   11.785116  12.332372  10.418752  11.607235   9.531852
                    6          7          8          9         10
     6  C    0.000000
     7  H    3.408244   0.000000
     8  H    3.412664   4.304079   0.000000
     9  H    2.154734   2.491792   4.973936   0.000000
    10  H    1.091670   4.304077   4.320892   2.472458   0.000000
    11  C    2.507735   5.382831   2.724705   4.661022   2.724690
    12  C    3.015976   6.229892   4.005713   5.051620   2.760694
    13  C    3.723481   6.229896   2.760696   5.827490   4.005699
    14  C    4.374627   7.597026   4.964547   6.396942   4.019975
    15  C    4.892883   7.597037   4.019993   7.030195   4.964535
    16  C    5.178515   8.221466   4.990763   7.296929   4.990729
    17  H    2.758838   5.977432   4.492370   4.533386   2.305718
    18  H    4.003525   5.977453   2.305684   5.953844   4.492382
    19  H    5.039687   8.318690   5.949774   6.916321   4.522042
    20  H    5.819226   8.318692   4.522025   7.925754   5.949769
    21  H    3.882539   2.491787   2.472458   4.310977   4.973927
    22  C    6.585240   9.659421   6.317759   8.681101   6.317693
    23  C    7.905299  10.882581   7.291310  10.021134   7.683822
    24  C    7.693206  10.882389   7.683856   9.723342   7.290937
    25  N    8.857307  11.652242   7.802611  10.999411   8.742184
    26  N    8.349187  11.651959   8.742174  10.268692   7.802157
    27  C    8.742312  11.229160   7.145919  10.889461   8.808038
    28  H    9.167207  11.553757   7.476209  11.286079   9.260902
    29  H    7.743036  10.159308   6.060234   9.885205   7.872540
    30  H    9.443816  11.817839   7.645155  11.588746   9.556858
    31  C   10.263217  13.107052   9.261746  12.394740  10.092380
    32  H   10.781761  13.527303   9.620908  12.908354  10.655027
    33  H   10.829238  13.615425   9.689795  12.970945  10.691302
    34  H   10.418610  13.419534   9.764399  12.511532  10.134346
    35  C    7.844090  11.228802   8.808017   9.596022   7.145384
    36  H    8.197600  11.554239   9.261889   9.873930   7.476315
    37  H    6.766090  10.158754   7.872248   8.514374   6.059590
    38  H    8.411877  11.816678   9.555974  10.073257   7.643950
    39  C    9.812486  13.106875  10.092483  11.728290   9.261334
    40  H   10.217962  13.528241  10.657412  12.067641   9.620602
    41  H   10.288153  13.614243  10.689125  12.160748   9.689310
    42  H   10.216287  13.419394  10.134672  12.212719   9.764021
                   11         12         13         14         15
    11  C    0.000000
    12  C    1.410358   0.000000
    13  C    1.410351   2.414734   0.000000
    14  C    2.439332   1.387954   2.789276   0.000000
    15  C    2.439337   2.789286   1.387959   2.424172   0.000000
    16  C    2.838635   2.430747   2.430740   1.410705   1.410697
    17  H    2.164962   1.090699   3.406260   2.144250   3.879511
    18  H    2.164962   3.406266   1.090699   3.879503   2.144244
    19  H    3.420940   2.145710   3.880017   1.091235   3.417797
    20  H    3.420939   3.880029   2.145709   3.417808   1.091236
    21  H    4.661027   5.827491   5.051624   7.030195   6.396958
    22  C    4.276590   3.747457   3.747474   2.476574   2.476599
    23  C    5.521918   5.106067   4.787430   3.852105   3.415846
    24  C    5.521761   4.787225   5.105983   3.415650   3.852072
    25  N    6.395703   6.174308   5.460683   5.011675   4.094565
    26  N    6.395513   5.460448   6.174214   4.094381   5.011662
    27  C    6.241860   6.317659   5.122041   5.377746   3.893435
    28  H    6.713456   6.932619   5.473400   6.061256   4.306783
    29  H    5.245765   5.424572   4.115209   4.624034   2.968075
    30  H    6.941997   6.998656   5.869694   6.073186   4.716502
    31  C    7.824856   7.524071   6.908320   6.289640   5.533853
    32  H    8.341434   8.183502   7.300649   7.013530   5.954876
    33  H    8.368651   8.031467   7.493301   6.799312   6.148618
    34  H    8.065952   7.616353   7.265175   6.308126   5.877654
    35  C    6.241672   5.121928   6.317500   3.893468   5.377690
    36  H    6.714137   5.474119   6.933326   4.307632   6.062020
    37  H    5.245376   4.114823   5.424295   2.967841   4.623903
    38  H    6.941028   5.869000   6.997595   4.716011   6.072251
    39  C    7.824725   6.908273   7.523887   5.533854   6.289468
    40  H    8.342692   7.301745   8.185009   5.956119   7.015212
    41  H    8.367088   7.492701   8.028876   6.148014   6.796353
    42  H    8.066016   7.264689   7.617033   5.877162   6.309040
                   16         17         18         19         20
    16  C    0.000000
    17  H    3.413862   0.000000
    18  H    3.413848   4.312848   0.000000
    19  H    2.172351   2.457384   4.970453   0.000000
    20  H    2.172355   4.970464   2.457363   4.328196   0.000000
    21  H    7.296949   5.953817   4.533383   7.925751   6.916312
    22  C    1.437955   4.618797   4.618815   2.707542   2.707605
    23  C    2.730337   5.989256   5.502534   3.997761   3.219052
    24  C    2.730244   5.502311   5.989192   3.218804   3.997833
    25  N    3.770051   7.113763   5.989624   5.251143   3.574081
    26  N    3.770004   5.989352   7.113689   3.573848   5.251247
    27  C    4.043389   7.327497   5.427030   5.849620   3.139724
    28  H    4.666977   7.984333   5.614533   6.610246   3.366669
    29  H    3.307411   6.449191   4.414033   5.228540   2.261423
    30  H    4.826238   7.965954   6.151405   6.482107   4.031125
    31  C    5.124351   8.419881   7.423832   6.379542   4.984460
    32  H    5.754252   9.134725   7.685314   7.208357   5.242875
    33  H    5.704804   8.887326   8.018342   6.827717   5.642072
    34  H    5.266810   8.446604   7.874451   6.252524   5.451931
    35  C    4.043438   5.426941   7.327300   3.139935   5.849610
    36  H    4.667826   5.615224   7.985000   3.367639   6.611000
    37  H    3.307329   4.413619   6.448918   2.261286   5.228530
    38  H    4.825568   6.150890   7.964775   4.031089   6.481162
    39  C    5.124272   7.423856   8.419641   4.984576   6.379341
    40  H    5.755867   7.686217   9.136250   5.243961   7.210182
    41  H    5.702764   8.018574   8.884227   5.642616   6.823898
    42  H    5.267145   7.873538   8.447595   5.450778   6.254066
                   21         22         23         24         25
    21  H    0.000000
    22  C    8.681146   0.000000
    23  C    9.723677   1.390924   0.000000
    24  C   10.021101   1.390924   1.405457   0.000000
    25  N   10.269130   2.615698   1.320012   2.637636   0.000000
    26  N   10.999310   2.615769   2.637580   1.320019   3.710272
    27  C    9.596557   3.323316   2.427082   3.829556   1.466500
    28  H    9.873803   4.016553   3.131402   4.511471   2.116103
    29  H    8.515028   2.947944   2.522521   3.819300   2.106803
    30  H   10.074493   4.102389   3.155205   4.498703   2.107351
    31  C   11.728664   3.833327   2.443015   3.381662   1.464316
    32  H   12.067794   4.559350   3.215648   4.240581   2.099889
    33  H   12.161247   4.438876   3.087972   3.969452   2.121507
    34  H   12.213115   3.870883   2.569449   3.064528   2.109087
    35  C   10.889317   3.323505   3.829539   2.427085   5.032166
    36  H   11.286920   4.017386   4.512048   3.131857   5.683071
    37  H    9.884798   2.948070   3.819283   2.522447   5.115142
    38  H   11.587730   4.101952   4.498052   3.154771   5.623665
    39  C   12.394769   3.833259   3.381319   2.442934   4.070533
    40  H   12.910388   4.561208   4.242902   3.217143   4.957260
    41  H   12.969036   4.436375   3.965281   3.085751   4.573116
    42  H   12.511709   3.871482   3.065677   2.570162   3.435476
                   26         27         28         29         30
    26  N    0.000000
    27  C    5.032173   0.000000
    28  H    5.682504   1.099832   0.000000
    29  H    5.115145   1.094164   1.793175   0.000000
    30  H    5.624310   1.099647   1.789445   1.781076   0.000000
    31  C    4.070890   2.489664   2.807656   3.413972   2.719356
    32  H    4.954407   2.671505   2.543765   3.702821   2.927511
    33  H    4.578309   2.859834   3.339600   3.788026   2.652974
    34  H    3.433825   3.410286   3.715302   4.208596   3.756908
    35  C    1.466520   6.254161   6.895058   6.163834   6.903989
    36  H    2.116067   6.895918   7.638247   6.792079   7.424978
    37  H    2.106810   6.163743   6.791145   5.894681   6.891058
    38  H    2.107432   6.903140   7.423092   6.890364   7.614098
    39  C    1.464340   5.514886   6.109434   5.855372   5.955773
    40  H    2.099679   6.365409   7.046336   6.663039   6.702694
    41  H    2.121763   6.032851   6.464818   6.437559   6.562853
    42  H    2.109140   4.869569   5.472686   5.358680   5.177551
                   31         32         33         34         35
    31  C    0.000000
    32  H    1.098903   0.000000
    33  H    1.100581   1.787621   0.000000
    34  H    1.094300   1.776448   1.794276   0.000000
    35  C    5.515113   6.361970   6.038154   4.868062   0.000000
    36  H    6.110264   7.044009   6.471299   5.470585   1.099818
    37  H    5.855560   6.659730   6.442162   5.357701   1.094166
    38  H    5.955312   6.697705   6.567505   5.176292   1.099654
    39  C    3.893515   4.759082   4.255307   3.011468   2.489792
    40  H    4.762423   5.683811   4.939094   3.923011   2.669533
    41  H    4.249635   4.928634   4.758409   3.230097   2.862368
    42  H    3.014368   3.924249   3.237059   2.169187   3.409961
                   36         37         38         39         40
    36  H    0.000000
    37  H    1.793161   0.000000
    38  H    1.789474   1.781053   0.000000
    39  C    2.807916   3.414049   2.719460   0.000000
    40  H    2.542327   3.701411   2.923902   1.098872   0.000000
    41  H    3.343145   3.789746   2.656247   1.100598   1.787570
    42  H    3.713598   4.208480   3.757634   1.094323   1.776314
                   41         42
    41  H    0.000000
    42  H    1.794434   0.000000
 Stoichiometry    C19H21N2(2+,2)
 Framework group  C1[X(C19H21N2)]
 Deg. of freedom   120
 Full point group                 C1      NOp   1
 Largest Abelian subgroup         C1      NOp   1
 Largest concise Abelian subgroup C1      NOp   1
                         Standard orientation:                         
 ---------------------------------------------------------------------
 Center     Atomic      Atomic             Coordinates (Angstroms)
 Number     Number       Type             X           Y           Z
 ---------------------------------------------------------------------
      1          6           0       -5.924302   -1.175178   -0.282560
      2          6           0       -6.625626    0.000025    0.000251
      3          6           0       -4.530324   -1.177472   -0.278212
      4          6           0       -5.924206    1.175202    0.282951
      5          6           0       -3.810936   -0.000036    0.000021
      6          6           0       -4.530233    1.177435    0.278371
      7          1           0       -7.716547    0.000056    0.000331
      8          1           0       -3.994064   -2.094974   -0.527939
      9          1           0       -6.466302    2.093210    0.514746
     10          1           0       -3.993880    2.094904    0.528010
     11          6           0       -2.333716   -0.000062   -0.000109
     12          6           0       -1.604784    1.119278   -0.452707
     13          6           0       -1.604752   -1.119433    0.452341
     14          6           0       -0.216850    1.125770   -0.449243
     15          6           0       -0.216813   -1.125977    0.448670
     16          6           0        0.504919   -0.000106   -0.000309
     17          1           0       -2.141671    1.985727   -0.840835
     18          1           0       -2.141597   -1.985891    0.840507
     19          1           0        0.315693    1.995203   -0.838189
     20          1           0        0.315745   -1.995465    0.837475
     21          1           0       -6.466484   -2.093156   -0.514265
     22          6           0        1.942874   -0.000086   -0.000402
     23          6           0        3.143323   -0.702637    0.003392
     24          6           0        3.143127    0.702801   -0.003915
     25          7           0        3.787080   -1.855019   -0.001668
     26          7           0        3.786774    1.855252    0.001097
     27          6           0        3.068411   -3.122520   -0.167733
     28          1           0        3.187886   -3.748580    0.728596
     29          1           0        2.005788   -2.927607   -0.341041
     30          1           0        3.471162   -3.663551   -1.036238
     31          6           0        5.245121   -1.944160    0.100275
     32          1           0        5.509149   -2.713998    0.838669
     33          1           0        5.688951   -2.217262   -0.869111
     34          1           0        5.659251   -0.989594    0.439085
     35          6           0        3.068047    3.122616    0.168130
     36          1           0        3.188116    3.749602   -0.727455
     37          1           0        2.005304    2.927538    0.340531
     38          1           0        3.470192    3.662707    1.037509
     39          6           0        5.244950    1.944232   -0.099391
     40          1           0        5.509538    2.718440   -0.832954
     41          1           0        5.688631    2.211256    0.871774
     42          1           0        5.658779    0.991638   -0.444142
 ---------------------------------------------------------------------
 Rotational constants (GHZ):           0.7037808           0.1205812           0.1040104
 Leave Link  202 at Thu Jan 21 04:25:31 2021, MaxMem=  4026531840 cpu:               0.2 elap:               0.1
 (Enter /opt/ohpc/pub/libs/gaussian/g16-A.03/sandybridge/g16/l301.exe)
 Standard basis: TZVP (5D, 7F)
 Ernie: Thresh=  0.10000D-02 Tol=  0.10000D-05 Strict=F.
 There are   546 symmetry adapted cartesian basis functions of A   symmetry.
 There are   525 symmetry adapted basis functions of A   symmetry.
   525 basis functions,   903 primitive gaussians,   546 cartesian basis functions
    74 alpha electrons       73 beta electrons
       nuclear repulsion energy      1487.4602048397 Hartrees.
 IExCor=33909 DFT=T Ex+Corr=LC-wHPBE ExCW=0 ScaHFX=  1.000000
 ScaDFX=  1.000000  1.000000  1.000000  1.000000 ScalE2=  1.000000  1.000000
 IRadAn=      5 IRanWt=     -1 IRanGd=            0 ICorTp=0 IEmpDi=  4
 HFx  wShort=  0.000000 wLong=  0.208900 cFull=  0.000000 cShort=  0.000000 cLong=  1.000000
 DFx  wShort=  0.000000 wLong=  0.208900 cFull=  0.000000 cShort=  1.000000 cLong=  0.000000
 NAtoms=   42 NActive=   42 NUniq=   42 SFac= 1.00D+00 NAtFMM=   60 NAOKFM=F Big=F
 Integral buffers will be    131072 words long.
 Raffenetti 2 integral format.
 Two-electron integral symmetry is turned on.
 Leave Link  301 at Thu Jan 21 04:25:31 2021, MaxMem=  4026531840 cpu:               0.5 elap:               0.1
 (Enter /opt/ohpc/pub/libs/gaussian/g16-A.03/sandybridge/g16/l302.exe)
 NPDir=0 NMtPBC=     1 NCelOv=     1 NCel=       1 NClECP=     1 NCelD=      1
         NCelK=      1 NCelE2=     1 NClLst=     1 CellRange=     0.0.
 One-electron integrals computed using PRISM.
 One-electron integral symmetry used in STVInt
 NBasis=   525 RedAO= T EigKep=  8.06D-06  NBF=   525
 NBsUse=   525 1.00D-06 EigRej= -1.00D+00 NBFU=   525
 Precomputing XC quadrature grid using
 IXCGrd= 4 IRadAn=           5 IRanWt=          -1 IRanGd=           0 AccXCQ= 0.00D+00.
 Generated NRdTot=       0 NPtTot=           0 NUsed=           0 NTot=          32
 NSgBfM=   523   523   523   523   523 MxSgAt=    42 MxSgA2=    42.
 Leave Link  302 at Thu Jan 21 04:25:32 2021, MaxMem=  4026531840 cpu:               6.8 elap:               0.9
 (Enter /opt/ohpc/pub/libs/gaussian/g16-A.03/sandybridge/g16/l303.exe)
 DipDrv:  MaxL=1.
 Leave Link  303 at Thu Jan 21 04:25:32 2021, MaxMem=  4026531840 cpu:               0.6 elap:               0.1
 (Enter /opt/ohpc/pub/libs/gaussian/g16-A.03/sandybridge/g16/l401.exe)
 ExpMin= 9.52D-02 ExpMax= 1.97D+04 ExpMxC= 6.73D+02 IAcc=3 IRadAn=         5 AccDes= 0.00D+00
 Harris functional with IExCor=33909 and IRadAn=       5 diagonalized for initial guess.
 HarFok:  IExCor=33909 AccDes= 0.00D+00 IRadAn=         5 IDoV= 1 UseB2=F ITyADJ=14
 ICtDFT=  3500011 ScaDFX=  1.000000  1.000000  1.000000  1.000000
 FoFCou: FMM=F IPFlag=           0 FMFlag=      100000 FMFlg1=           0
         NFxFlg=           0 DoJE=T BraDBF=F KetDBF=T FulRan=T
         wScrn=  0.000000 ICntrl=       500 IOpCl=  0 I1Cent=   200000004 NGrid=           0
         NMat0=    1 NMatS0=      1 NMatT0=    0 NMatD0=    1 NMtDS0=    0 NMtDT0=    0
 Petite list used in FoFCou.
 Harris En= -828.826482983438    
 JPrj=0 DoOrth=F DoCkMO=F.
 Initial guess <Sx>= 0.0000 <Sy>= 0.0000 <Sz>= 0.5000 <S**2>= 0.7500 S= 0.5000
 Leave Link  401 at Thu Jan 21 04:25:37 2021, MaxMem=  4026531840 cpu:              39.4 elap:               5.0
 (Enter /opt/ohpc/pub/libs/gaussian/g16-A.03/sandybridge/g16/l502.exe)
 Integral symmetry usage will be decided dynamically.
 UHF open shell SCF:
 Using DIIS extrapolation, IDIIS=    10.
 NGot=  4026531840 LenX=  4025925692 LenY=  4025627030
 Requested convergence on RMS density matrix=1.00D-06 within  32 cycles.
 Requested convergence on MAX density matrix=1.00D-04.
 Requested convergence on             energy=1.00D-04.
 Virtual orbitals will be shifted by   0.500 hartree.
 No special actions if energy rises.
 Dynamic level shift is on during FON iterations.

 Cycle   1  Pass 1  IDiag  1:
 FoFJK:  IHMeth= 1 ICntrl=       0 DoSepK=T KAlg= 0 I1Cent=           0 FoldK=F
 IRaf=         1 NMat=       1 IRICut=       1 DoRegI=T DoRafI=F ISym2E= 0 IDoP0=0 IntGTp=1.
 FoFCou: FMM=F IPFlag=           0 FMFlag=      100000 FMFlg1=           0
         NFxFlg=           0 DoJE=T BraDBF=F KetDBF=F FulRan=T
         wScrn=  0.000000 ICntrl=       500 IOpCl=  0 I1Cent=           0 NGrid=           0
         NMat0=    1 NMatS0=      1 NMatT0=    0 NMatD0=    1 NMtDS0=    0 NMtDT0=    0
 Symmetry not used in FoFCou.
 E= -844.641222858555    
 DIIS: error= 2.87D-02 at cycle   1 NSaved=   1.
 NSaved= 1 IEnMin= 1 EnMin= -844.641222858555     IErMin= 1 ErrMin= 2.87D-02
 ErrMax= 2.87D-02  0.00D+00 EMaxC= 1.00D+00 BMatC= 1.25D+00 BMatP= 1.25D+00
 IDIUse=1 WtCom= 1.00D+00 WtEn= 0.00D+00
 Coeff-Com:  0.100D+01
 Coeff:      0.100D+01
 Gap=     0.451 Goal=   None    Shift=    0.500
 T= 1470. Gap= 0.527 NK=0 IS=   75 IE=  525 IFin=   74
          NO(<0.9)=   0  NV(>0.1)=   0     74.00e < EF      0.00e >EF  Err=0.0D+00
 Gap=    -0.042 Goal=   None    Shift=    0.500
 T= 1470. Gap= 0.376 NK=0 IS=   74 IE=  525 IFin=   73
          NO(<0.9)=   0  NV(>0.1)=   0     73.00e < EF      0.00e >EF  Err=0.0D+00
 GapD=   -0.042 DampG=0.250 DampE=0.500 DampFc=0.1250 IDamp=-1.
 Damping current iteration by 1.25D-01
 RMSDP=3.02D-03 MaxDP=2.75D-01              OVMax= 1.05D-01

 Cycle   2  Pass 1  IDiag  1:
 E= -844.700238983247     Delta-E=       -0.059016124692 Rises=F Damp=T
 DIIS: error= 2.55D-02 at cycle   2 NSaved=   2.
 NSaved= 2 IEnMin= 2 EnMin= -844.700238983247     IErMin= 2 ErrMin= 2.55D-02
 ErrMax= 2.55D-02  0.00D+00 EMaxC= 1.00D+00 BMatC= 9.00D-01 BMatP= 1.25D+00
 IDIUse=1 WtCom= 1.00D+00 WtEn= 0.00D+00
 Coeff-Com: -0.513D+01 0.613D+01
 Coeff:     -0.513D+01 0.613D+01
 Gap=     0.188 Goal=   None    Shift=    0.500
 T= 1447. Gap= 0.679 NK=0 IS=   75 IE=  525 IFin=   74
          NO(<0.9)=   0  NV(>0.1)=   0     74.00e < EF      0.00e >EF  Err=0.0D+00
 Gap=     0.058 Goal=   None    Shift=    0.500
 T= 1447. Gap= 0.552 NK=0 IS=   74 IE=  525 IFin=   73
          NO(<0.9)=   0  NV(>0.1)=   0     73.00e < EF      0.00e >EF  Err=0.0D+00
 GapD=    0.058 DampG=0.500 DampE=0.500 DampFc=0.2500 IDamp=-1.
 Damping current iteration by 2.50D-01
 RMSDP=2.77D-03 MaxDP=2.41D-01 DE=-5.90D-02 OVMax= 4.16D-02

 Cycle   3  Pass 1  IDiag  1:
 E= -844.787488102395     Delta-E=       -0.087249119148 Rises=F Damp=T
 DIIS: error= 1.98D-02 at cycle   3 NSaved=   3.
 NSaved= 3 IEnMin= 3 EnMin= -844.787488102395     IErMin= 3 ErrMin= 1.98D-02
 ErrMax= 1.98D-02  0.00D+00 EMaxC= 1.00D+00 BMatC= 4.79D-01 BMatP= 9.00D-01
 IDIUse=1 WtCom= 1.00D+00 WtEn= 0.00D+00
 Coeff-Com:  0.248D+00-0.307D+01 0.382D+01
 Coeff:      0.248D+00-0.307D+01 0.382D+01
 Gap=     0.211 Goal=   None    Shift=    0.500
 T= 1379. Gap= 0.710 NK=0 IS=   75 IE=  525 IFin=   74
          NO(<0.9)=   0  NV(>0.1)=   0     74.00e < EF      0.00e >EF  Err=0.0D+00
 Gap=     0.077 Goal=   None    Shift=    0.500
 T= 1379. Gap= 0.578 NK=0 IS=   74 IE=  525 IFin=   73
          NO(<0.9)=   0  NV(>0.1)=   0     73.00e < EF      0.00e >EF  Err=0.0D+00
 GapD=    0.077 DampG=0.500 DampE=0.500 DampFc=0.2500 IDamp=-1.
 Damping current iteration by 2.50D-01
 RMSDP=1.99D-03 MaxDP=1.60D-01 DE=-8.72D-02 OVMax= 3.41D-02

 Cycle   4  Pass 1  IDiag  1:
 E= -844.843689161570     Delta-E=       -0.056201059175 Rises=F Damp=T
 DIIS: error= 1.54D-02 at cycle   4 NSaved=   4.
 NSaved= 4 IEnMin= 4 EnMin= -844.843689161570     IErMin= 4 ErrMin= 1.54D-02
 ErrMax= 1.54D-02  0.00D+00 EMaxC= 1.00D+00 BMatC= 2.62D-01 BMatP= 4.79D-01
 IDIUse=1 WtCom= 1.00D+00 WtEn= 0.00D+00
 Coeff-Com:  0.669D+00-0.964D+00-0.273D+01 0.402D+01
 Coeff:      0.669D+00-0.964D+00-0.273D+01 0.402D+01
 Gap=     0.218 Goal=   None    Shift=    0.500
 T= 1260. Gap= 0.718 NK=0 IS=   75 IE=  525 IFin=   74
          NO(<0.9)=   0  NV(>0.1)=   0     74.00e < EF      0.00e >EF  Err=0.0D+00
 Gap=     0.092 Goal=   None    Shift=    0.500
 T= 1260. Gap= 0.592 NK=0 IS=   74 IE=  525 IFin=   73
          NO(<0.9)=   0  NV(>0.1)=   0     73.00e < EF      0.00e >EF  Err=0.0D+00
 GapD=    0.092 DampG=0.500 DampE=0.500 DampFc=0.2500 IDamp=-1.
 Damping current iteration by 2.50D-01
 RMSDP=1.47D-03 MaxDP=1.03D-01 DE=-5.62D-02 OVMax= 3.16D-02

 Cycle   5  Pass 1  IDiag  1:
 E= -844.881609298062     Delta-E=       -0.037920136492 Rises=F Damp=T
 DIIS: error= 1.22D-02 at cycle   5 NSaved=   5.
 NSaved= 5 IEnMin= 5 EnMin= -844.881609298062     IErMin= 5 ErrMin= 1.22D-02
 ErrMax= 1.22D-02  0.00D+00 EMaxC= 1.00D+00 BMatC= 1.46D-01 BMatP= 2.62D-01
 IDIUse=1 WtCom= 1.00D+00 WtEn= 0.00D+00
 Coeff-Com: -0.467D-01 0.779D+00 0.372D+00-0.692D+01 0.681D+01
 Coeff:     -0.467D-01 0.779D+00 0.372D+00-0.692D+01 0.681D+01
 Gap=     0.230 Goal=   None    Shift=    0.500
 T= 1112. Gap= 0.730 NK=4 IS=   75 IE=   88 IFin=   74
          NO(<0.9)=   0  NV(>0.1)=   0     74.00e < EF      0.00e >EF  Err=0.0D+00
 Gap=     0.101 Goal=   None    Shift=    0.500
 T= 1112. Gap= 0.603 NK=4 IS=   74 IE=   87 IFin=   73
          NO(<0.9)=   0  NV(>0.1)=   0     73.00e < EF      0.00e >EF  Err=0.0D+00
 GapD=    0.101 DampG=1.000 DampE=0.500 DampFc=0.5000 IDamp=-1.
 Damping current iteration by 5.00D-01
 RMSDP=1.06D-03 MaxDP=6.12D-02 DE=-3.79D-02 OVMax= 3.30D-02

 Cycle   6  Pass 1  IDiag  1:
 E= -844.932696774662     Delta-E=       -0.051087476600 Rises=F Damp=T
 DIIS: error= 8.92D-03 at cycle   6 NSaved=   6.
 NSaved= 6 IEnMin= 6 EnMin= -844.932696774662     IErMin= 6 ErrMin= 8.92D-03
 ErrMax= 8.92D-03  0.00D+00 EMaxC= 1.00D+00 BMatC= 3.72D-02 BMatP= 1.46D-01
 IDIUse=1 WtCom= 1.00D+00 WtEn= 0.00D+00
 Coeff-Com: -0.347D+00 0.548D+00 0.144D+01-0.743D+00-0.400D+01 0.411D+01
 Coeff:     -0.347D+00 0.548D+00 0.144D+01-0.743D+00-0.400D+01 0.411D+01
 Gap=     0.237 Goal=   None    Shift=    0.500
 T=  955. Gap= 0.737 NK=4 IS=   75 IE=   88 IFin=   74
          NO(<0.9)=   0  NV(>0.1)=   0     74.00e < EF      0.00e >EF  Err=0.0D+00
 Gap=     0.109 Goal=   None    Shift=    0.500
 T=  955. Gap= 0.610 NK=4 IS=   74 IE=   87 IFin=   73
          NO(<0.9)=   0  NV(>0.1)=   0     73.00e < EF      0.00e >EF  Err=0.0D+00
 GapD=    0.109 DampG=1.000 DampE=1.000 DampFc=1.0000 IDamp=-1.
 RMSDP=5.41D-04 MaxDP=1.90D-02 DE=-5.11D-02 OVMax= 3.49D-02

 Cycle   7  Pass 1  IDiag  1:
 E= -844.978944820259     Delta-E=       -0.046248045597 Rises=F Damp=F
 DIIS: error= 4.91D-03 at cycle   7 NSaved=   7.
 NSaved= 7 IEnMin= 7 EnMin= -844.978944820259     IErMin= 7 ErrMin= 4.91D-03
 ErrMax= 4.91D-03  0.00D+00 EMaxC= 1.00D+00 BMatC= 8.71D-04 BMatP= 3.72D-02
 IDIUse=1 WtCom= 1.00D+00 WtEn= 0.00D+00
 Coeff-Com: -0.158D+00 0.684D-01 0.286D+00 0.242D+01-0.359D+01 0.205D+00
 Coeff-Com:  0.177D+01
 Coeff:     -0.158D+00 0.684D-01 0.286D+00 0.242D+01-0.359D+01 0.205D+00
 Coeff:      0.177D+01
 Gap=     0.240 Goal=   None    Shift=    0.500
 T=  752. Gap= 0.740 NK=4 IS=   75 IE=   88 IFin=   74
          NO(<0.9)=   0  NV(>0.1)=   0     74.00e < EF      0.00e >EF  Err=0.0D+00
 Gap=     0.113 Goal=   None    Shift=    0.500
 T=  752. Gap= 0.615 NK=4 IS=   74 IE=   87 IFin=   73
          NO(<0.9)=   0  NV(>0.1)=   0     73.00e < EF      0.00e >EF  Err=0.0D+00
 GapD=    0.113 DampG=1.000 DampE=1.000 DampFc=1.0000 IDamp=-1.
 RMSDP=1.49D-04 MaxDP=1.13D-02 DE=-4.62D-02 OVMax= 3.43D-02

 Cycle   8  Pass 1  IDiag  1:
 E= -844.980644669488     Delta-E=       -0.001699849230 Rises=F Damp=F
 DIIS: error= 4.47D-03 at cycle   8 NSaved=   8.
 NSaved= 8 IEnMin= 8 EnMin= -844.980644669488     IErMin= 8 ErrMin= 4.47D-03
 ErrMax= 4.47D-03  0.00D+00 EMaxC= 1.00D+00 BMatC= 6.94D-04 BMatP= 8.71D-04
 IDIUse=1 WtCom= 1.00D+00 WtEn= 0.00D+00
 Coeff-Com: -0.231D-01 0.238D-01-0.482D+00 0.133D+01 0.605D-01-0.196D+01
 Coeff-Com: -0.128D+00 0.218D+01
 Coeff:     -0.231D-01 0.238D-01-0.482D+00 0.133D+01 0.605D-01-0.196D+01
 Coeff:     -0.128D+00 0.218D+01
 Gap=     0.248 Goal=   None    Shift=    0.500
 T=  541. Gap= 0.748 NK=4 IS=   75 IE=   87 IFin=   74
          NO(<0.9)=   0  NV(>0.1)=   0     74.00e < EF      0.00e >EF  Err=0.0D+00
 Gap=     0.120 Goal=   None    Shift=    0.500
 T=  541. Gap= 0.622 NK=4 IS=   74 IE=   87 IFin=   73
          NO(<0.9)=   0  NV(>0.1)=   0     73.00e < EF      0.00e >EF  Err=0.0D+00
 GapD=    0.120 DampG=1.000 DampE=1.000 DampFc=1.0000 IDamp=-1.
 RMSDP=1.69D-04 MaxDP=1.28D-02 DE=-1.70D-03 OVMax= 3.62D-02

 Cycle   9  Pass 1  IDiag  1:
 E= -844.982188750995     Delta-E=       -0.001544081506 Rises=F Damp=F
 DIIS: error= 4.17D-03 at cycle   9 NSaved=   9.
 NSaved= 9 IEnMin= 9 EnMin= -844.982188750995     IErMin= 9 ErrMin= 4.17D-03
 ErrMax= 4.17D-03  0.00D+00 EMaxC= 1.00D+00 BMatC= 6.37D-04 BMatP= 6.94D-04
 IDIUse=1 WtCom= 1.00D+00 WtEn= 0.00D+00
 Coeff-Com: -0.264D-01 0.317D-01-0.470D+00 0.127D+01 0.782D-01-0.191D+01
 Coeff-Com: -0.136D+00 0.208D+01 0.826D-01
 Coeff:     -0.264D-01 0.317D-01-0.470D+00 0.127D+01 0.782D-01-0.191D+01
 Coeff:     -0.136D+00 0.208D+01 0.826D-01
 Gap=     0.248 Goal=   None    Shift=    0.500
 T=  360. Gap= 0.748 NK=4 IS=   75 IE=   87 IFin=   74
          NO(<0.9)=   0  NV(>0.1)=   0     74.00e < EF      0.00e >EF  Err=0.0D+00
 Gap=     0.123 Goal=   None    Shift=    0.500
 T=  360. Gap= 0.624 NK=4 IS=   74 IE=   87 IFin=   73
          NO(<0.9)=   0  NV(>0.1)=   0     73.00e < EF      0.00e >EF  Err=0.0D+00
 GapD=    0.123 DampG=1.000 DampE=1.000 DampFc=1.0000 IDamp=-1.
 RMSDP=8.64D-05 MaxDP=7.13D-03 DE=-1.54D-03 OVMax= 2.85D-02

 Cycle  10  Pass 1  IDiag  1:
 E= -844.983260605701     Delta-E=       -0.001071854706 Rises=F Damp=F
 DIIS: error= 3.71D-03 at cycle  10 NSaved=  10.
 NSaved=10 IEnMin=10 EnMin= -844.983260605701     IErMin=10 ErrMin= 3.71D-03
 ErrMax= 3.71D-03  0.00D+00 EMaxC= 1.00D+00 BMatC= 5.06D-04 BMatP= 6.37D-04
 IDIUse=1 WtCom= 1.00D+00 WtEn= 0.00D+00
 Coeff-Com:  0.536D-02-0.133D+00 0.105D+00 0.919D+00-0.732D+00-0.754D+00
 Coeff-Com:  0.778D+00-0.791D-01-0.192D+01 0.281D+01
 Coeff:      0.536D-02-0.133D+00 0.105D+00 0.919D+00-0.732D+00-0.754D+00
 Coeff:      0.778D+00-0.791D-01-0.192D+01 0.281D+01
 Gap=     0.254 Goal=   None    Shift=    0.500
 T=  304. Gap= 0.753 NK=4 IS=   75 IE=   87 IFin=   74
          NO(<0.9)=   0  NV(>0.1)=   0     74.00e < EF      0.00e >EF  Err=0.0D+00
 Gap=     0.127 Goal=   None    Shift=    0.500
 T=  304. Gap= 0.628 NK=4 IS=   74 IE=   87 IFin=   73
          NO(<0.9)=   0  NV(>0.1)=   0     73.00e < EF      0.00e >EF  Err=0.0D+00
 GapD=    0.127 DampG=1.000 DampE=1.000 DampFc=1.0000 IDamp=-1.
 RMSDP=1.18D-04 MaxDP=8.90D-03 DE=-1.07D-03 OVMax= 3.15D-02

 Cycle  11  Pass 1  IDiag  1:
 E= -844.984312356947     Delta-E=       -0.001051751246 Rises=F Damp=F
 DIIS: error= 3.54D-03 at cycle  11 NSaved=  11.
 NSaved=11 IEnMin=11 EnMin= -844.984312356947     IErMin=11 ErrMin= 3.54D-03
 ErrMax= 3.54D-03  0.00D+00 EMaxC= 1.00D+00 BMatC= 5.24D-04 BMatP= 5.06D-04
 IDIUse=1 WtCom= 1.00D+00 WtEn= 0.00D+00
 Coeff-Com: -0.207D-01-0.233D+00 0.538D+00 0.171D+01-0.307D+01 0.908D+00
 Coeff-Com:  0.212D+01-0.156D+01-0.450D+01 0.307D+01 0.204D+01
 Coeff:     -0.207D-01-0.233D+00 0.538D+00 0.171D+01-0.307D+01 0.908D+00
 Coeff:      0.212D+01-0.156D+01-0.450D+01 0.307D+01 0.204D+01
 Gap=     0.259 Goal=   None    Shift=    0.500
 T=  257. Gap= 0.758 NK=4 IS=   75 IE=   85 IFin=   74
          NO(<0.9)=   0  NV(>0.1)=   0     74.00e < EF      0.00e >EF  Err=0.0D+00
 Gap=     0.129 Goal=   None    Shift=    0.500
 T=  257. Gap= 0.630 NK=4 IS=   74 IE=   87 IFin=   73
          NO(<0.9)=   0  NV(>0.1)=   0     73.00e < EF      0.00e >EF  Err=0.0D+00
 GapD=    0.129 DampG=1.000 DampE=1.000 DampFc=1.0000 IDamp=-1.
 RMSDP=1.39D-04 MaxDP=1.13D-02 DE=-1.05D-03 OVMax= 3.54D-02

 Cycle  12  Pass 1  IDiag  1:
 E= -844.985383604660     Delta-E=       -0.001071247713 Rises=F Damp=F
 DIIS: error= 3.39D-03 at cycle  12 NSaved=  12.
 NSaved=12 IEnMin=12 EnMin= -844.985383604660     IErMin=12 ErrMin= 3.39D-03
 ErrMax= 3.39D-03  0.00D+00 EMaxC= 1.00D+00 BMatC= 5.83D-04 BMatP= 5.06D-04
 IDIUse=1 WtCom= 1.00D+00 WtEn= 0.00D+00
 Coeff-Com: -0.358D-01-0.142D+00-0.989D-02 0.270D+01-0.343D+01 0.588D+00
 Coeff-Com:  0.156D+01 0.986D+00-0.617D+01 0.293D+01-0.666D+00 0.271D+01
 Coeff:     -0.358D-01-0.142D+00-0.989D-02 0.270D+01-0.343D+01 0.588D+00
 Coeff:      0.156D+01 0.986D+00-0.617D+01 0.293D+01-0.666D+00 0.271D+01
 Gap=     0.263 Goal=   None    Shift=    0.500
 T=  215. Gap= 0.762 NK=4 IS=   75 IE=   85 IFin=   74
          NO(<0.9)=   0  NV(>0.1)=   0     74.00e < EF      0.00e >EF  Err=0.0D+00
 Gap=     0.132 Goal=   None    Shift=    0.500
 T=  215. Gap= 0.634 NK=4 IS=   74 IE=   87 IFin=   73
          NO(<0.9)=   0  NV(>0.1)=   0     73.00e < EF      0.00e >EF  Err=0.0D+00
 GapD=    0.132 DampG=1.000 DampE=1.000 DampFc=1.0000 IDamp=-1.
 RMSDP=1.47D-04 MaxDP=1.06D-02 DE=-1.07D-03 OVMax= 3.83D-02

 Cycle  13  Pass 1  IDiag  1:
 E= -844.986427835625     Delta-E=       -0.001044230964 Rises=F Damp=F
 DIIS: error= 3.24D-03 at cycle  13 NSaved=  13.
 NSaved=13 IEnMin=13 EnMin= -844.986427835625     IErMin=13 ErrMin= 3.24D-03
 ErrMax= 3.24D-03  0.00D+00 EMaxC= 1.00D+00 BMatC= 6.71D-04 BMatP= 5.06D-04
 IDIUse=1 WtCom= 1.00D+00 WtEn= 0.00D+00
 Coeff-Com: -0.226D-01-0.110D+00 0.128D-01 0.205D+01-0.252D+01 0.172D+00
 Coeff-Com:  0.114D+01 0.157D+01-0.596D+01 0.337D+01-0.430D+00-0.247D+00
 Coeff-Com:  0.197D+01
 Coeff:     -0.226D-01-0.110D+00 0.128D-01 0.205D+01-0.252D+01 0.172D+00
 Coeff:      0.114D+01 0.157D+01-0.596D+01 0.337D+01-0.430D+00-0.247D+00
 Coeff:      0.197D+01
 Gap=     0.264 Goal=   None    Shift=    0.500
 T=  188. Gap= 0.764 NK=4 IS=   75 IE=   86 IFin=   74
          NO(<0.9)=   0  NV(>0.1)=   0     74.00e < EF      0.00e >EF  Err=0.0D+00
 Gap=     0.135 Goal=   None    Shift=    0.500
 T=  188. Gap= 0.637 NK=4 IS=   74 IE=   87 IFin=   73
          NO(<0.9)=   0  NV(>0.1)=   0     73.00e < EF      0.00e >EF  Err=0.0D+00
 GapD=    0.135 DampG=1.000 DampE=1.000 DampFc=1.0000 IDamp=-1.
 RMSDP=1.10D-04 MaxDP=7.61D-03 DE=-1.04D-03 OVMax= 3.40D-02

 Cycle  14  Pass 1  IDiag  1:
 E= -844.987291043192     Delta-E=       -0.000863207568 Rises=F Damp=F
 DIIS: error= 2.97D-03 at cycle  14 NSaved=  14.
 NSaved=14 IEnMin=14 EnMin= -844.987291043192     IErMin=14 ErrMin= 2.97D-03
 ErrMax= 2.97D-03  0.00D+00 EMaxC= 1.00D+00 BMatC= 6.06D-04 BMatP= 5.06D-04
 IDIUse=1 WtCom= 1.00D+00 WtEn= 0.00D+00
 Coeff-Com:  0.478D-02-0.141D+00 0.263D+00 0.102D+01-0.141D+01-0.191D+00
 Coeff-Com:  0.103D+01 0.637D+00-0.356D+01 0.278D+01 0.119D+01-0.355D+01
 Coeff-Com: -0.244D+00 0.318D+01
 Coeff:      0.478D-02-0.141D+00 0.263D+00 0.102D+01-0.141D+01-0.191D+00
 Coeff:      0.103D+01 0.637D+00-0.356D+01 0.278D+01 0.119D+01-0.355D+01
 Coeff:     -0.244D+00 0.318D+01
 Gap=     0.267 Goal=   None    Shift=    0.500
 T=  153. Gap= 0.767 NK=4 IS=   75 IE=   86 IFin=   74
          NO(<0.9)=   0  NV(>0.1)=   0     74.00e < EF      0.00e >EF  Err=0.0D+00
 Gap=     0.137 Goal=   None    Shift=    0.500
 T=  153. Gap= 0.638 NK=4 IS=   74 IE=   87 IFin=   73
          NO(<0.9)=   0  NV(>0.1)=   0     73.00e < EF      0.00e >EF  Err=0.0D+00
 GapD=    0.137 DampG=1.000 DampE=1.000 DampFc=1.0000 IDamp=-1.
 RMSDP=1.26D-04 MaxDP=7.61D-03 DE=-8.63D-04 OVMax= 3.52D-02

 Cycle  15  Pass 1  IDiag  1:
 E= -844.988080063888     Delta-E=       -0.000789020696 Rises=F Damp=F
 DIIS: error= 2.77D-03 at cycle  15 NSaved=  15.
 NSaved=15 IEnMin=15 EnMin= -844.988080063888     IErMin=15 ErrMin= 2.77D-03
 ErrMax= 2.77D-03  0.00D+00 EMaxC= 1.00D+00 BMatC= 6.44D-04 BMatP= 5.06D-04
 IDIUse=1 WtCom= 1.00D+00 WtEn= 0.00D+00
 Coeff-Com:  0.121D-02-0.139D+00 0.315D+00 0.894D+00-0.137D+01-0.119D+00
 Coeff-Com:  0.102D+01 0.343D-01-0.262D+01 0.240D+01 0.179D+01-0.312D+01
 Coeff-Com: -0.183D+01 0.240D+01 0.134D+01
 Coeff:      0.121D-02-0.139D+00 0.315D+00 0.894D+00-0.137D+01-0.119D+00
 Coeff:      0.102D+01 0.343D-01-0.262D+01 0.240D+01 0.179D+01-0.312D+01
 Coeff:     -0.183D+01 0.240D+01 0.134D+01
 Gap=     0.267 Goal=   None    Shift=    0.500
 T=  113. Gap= 0.767 NK=4 IS=   75 IE=   86 IFin=   74
          NO(<0.9)=   0  NV(>0.1)=   0     74.00e < EF      0.00e >EF  Err=0.0D+00
 Gap=     0.138 Goal=   None    Shift=    0.500
 T=  113. Gap= 0.640 NK=4 IS=   74 IE=   86 IFin=   73
          NO(<0.9)=   0  NV(>0.1)=   0     73.00e < EF      0.00e >EF  Err=0.0D+00
 GapD=    0.138 DampG=1.000 DampE=1.000 DampFc=1.0000 IDamp=-1.
 RMSDP=8.76D-05 MaxDP=5.24D-03 DE=-7.89D-04 OVMax= 3.00D-02

 Cycle  16  Pass 1  IDiag  1:
 E= -844.988719979371     Delta-E=       -0.000639915483 Rises=F Damp=F
 DIIS: error= 2.48D-03 at cycle  16 NSaved=  16.
 NSaved=16 IEnMin=16 EnMin= -844.988719979371     IErMin=16 ErrMin= 2.48D-03
 ErrMax= 2.48D-03  0.00D+00 EMaxC= 1.00D+00 BMatC= 5.18D-04 BMatP= 5.06D-04
 IDIUse=1 WtCom= 1.00D+00 WtEn= 0.00D+00
 Coeff-Com: -0.183D-01-0.119D+00 0.199D-01 0.187D+01-0.244D+01 0.502D+00
 Coeff-Com:  0.113D+01-0.652D+00-0.153D+01 0.380D+00 0.927D+00 0.257D+01
 Coeff-Com: -0.335D+01-0.115D+01-0.175D+01 0.461D+01
 Coeff:     -0.183D-01-0.119D+00 0.199D-01 0.187D+01-0.244D+01 0.502D+00
 Coeff:      0.113D+01-0.652D+00-0.153D+01 0.380D+00 0.927D+00 0.257D+01
 Coeff:     -0.335D+01-0.115D+01-0.175D+01 0.461D+01
 Gap=     0.270 Goal=   None    Shift=    0.500
 T=   59. Gap= 0.768 NK=4 IS=   75 IE=   86 IFin=   74
          NO(<0.9)=   0  NV(>0.1)=   0     74.00e < EF      0.00e >EF  Err=0.0D+00
 Gap=     0.139 Goal=   None    Shift=    0.500
 T=   59. Gap= 0.640 NK=4 IS=   74 IE=   85 IFin=   73
          NO(<0.9)=   0  NV(>0.1)=   0     73.00e < EF      0.00e >EF  Err=0.0D+00
 GapD=    0.139 DampG=1.000 DampE=1.000 DampFc=1.0000 IDamp=-1.
 RMSDP=1.51D-04 MaxDP=9.56D-03 DE=-6.40D-04 OVMax= 3.73D-02

 Cycle  17  Pass 1  IDiag  1:
 E= -844.989336464443     Delta-E=       -0.000616485072 Rises=F Damp=F
 DIIS: error= 2.39D-03 at cycle  17 NSaved=  17.
 NSaved=17 IEnMin=17 EnMin= -844.989336464443     IErMin=17 ErrMin= 2.39D-03
 ErrMax= 2.39D-03  0.00D+00 EMaxC= 1.00D+00 BMatC= 7.42D-04 BMatP= 5.06D-04
 IDIUse=1 WtCom= 1.00D+00 WtEn= 0.00D+00
 Coeff-Com: -0.159D-01-0.117D+00 0.639D-02 0.179D+01-0.231D+01 0.465D+00
 Coeff-Com:  0.978D+00-0.238D+00-0.209D+01 0.647D+00 0.720D+00 0.250D+01
 Coeff-Com: -0.233D+01-0.105D+01-0.316D+01 0.460D+01 0.603D+00
 Coeff:     -0.159D-01-0.117D+00 0.639D-02 0.179D+01-0.231D+01 0.465D+00
 Coeff:      0.978D+00-0.238D+00-0.209D+01 0.647D+00 0.720D+00 0.250D+01
 Coeff:     -0.233D+01-0.105D+01-0.316D+01 0.460D+01 0.603D+00
 Gap=     0.268 Goal=   None    Shift=    0.500
 T=   16. Gap= 0.768 NK=4 IS=   75 IE=   85 IFin=   74
          NO(<0.9)=   0  NV(>0.1)=   0     74.00e < EF      0.00e >EF  Err=0.0D+00
 Gap=     0.141 Goal=   None    Shift=    0.500
 T=   16. Gap= 0.642 NK=4 IS=   74 IE=   85 IFin=   73
          NO(<0.9)=   0  NV(>0.1)=   0     73.00e < EF      0.00e >EF  Err=0.0D+00
 GapD=    0.141 DampG=1.000 DampE=1.000 DampFc=1.0000 IDamp=-1.
 RMSDP=8.70D-05 MaxDP=5.19D-03 DE=-6.16D-04 OVMax= 3.01D-02

 Cycle  18  Pass 1  IDiag  1:
 E= -844.989840016156     Delta-E=       -0.000503551713 Rises=F Damp=F
 DIIS: error= 2.11D-03 at cycle  18 NSaved=  18.
 NSaved=18 IEnMin=18 EnMin= -844.989840016156     IErMin=18 ErrMin= 2.11D-03
 ErrMax= 2.11D-03  0.00D+00 EMaxC= 1.00D+00 BMatC= 6.04D-04 BMatP= 5.06D-04
 IDIUse=1 WtCom= 1.00D+00 WtEn= 0.00D+00
 Coeff-Com:  0.259D-02-0.871D-01 0.341D-01 0.951D+00-0.113D+01-0.776D-02
 Coeff-Com:  0.495D+00 0.651D+00-0.209D+01 0.729D+00 0.956D-01 0.745D+00
 Coeff-Com:  0.581D+00-0.846D+00-0.153D+01 0.193D+01-0.383D+01 0.430D+01
 Coeff:      0.259D-02-0.871D-01 0.341D-01 0.951D+00-0.113D+01-0.776D-02
 Coeff:      0.495D+00 0.651D+00-0.209D+01 0.729D+00 0.956D-01 0.745D+00
 Coeff:      0.581D+00-0.846D+00-0.153D+01 0.193D+01-0.383D+01 0.430D+01
 Gap=     0.268 Goal=   None    Shift=    0.500
 Gap=     0.142 Goal=   None    Shift=    0.500
 GapD=    0.142 DampG=1.000 DampE=1.000 DampFc=1.0000 IDamp=-1.
 RMSDP=8.78D-05 MaxDP=5.51D-03 DE=-5.04D-04 OVMax= 2.85D-02

 Cycle  19  Pass 1  IDiag  1:
 E= -844.990248492803     Delta-E=       -0.000408476647 Rises=F Damp=F
 DIIS: error= 1.87D-03 at cycle  19 NSaved=  19.
 NSaved=19 IEnMin=19 EnMin= -844.990248492803     IErMin=19 ErrMin= 1.87D-03
 ErrMax= 1.87D-03  0.00D+00 EMaxC= 1.00D+00 BMatC= 5.34D-04 BMatP= 5.06D-04
 IDIUse=1 WtCom= 1.00D+00 WtEn= 0.00D+00
 Coeff-Com:  0.524D-02-0.795D-01 0.129D+00 0.579D+00-0.837D+00 0.123D-01
 Coeff-Com:  0.472D+00 0.189D+00-0.115D+01 0.411D+00 0.439D+00-0.126D+00
 Coeff-Com: -0.262D+00-0.204D+00 0.113D+01 0.739D+00-0.494D+01 0.244D+01
 Coeff-Com:  0.204D+01
 Coeff:      0.524D-02-0.795D-01 0.129D+00 0.579D+00-0.837D+00 0.123D-01
 Coeff:      0.472D+00 0.189D+00-0.115D+01 0.411D+00 0.439D+00-0.126D+00
 Coeff:     -0.262D+00-0.204D+00 0.113D+01 0.739D+00-0.494D+01 0.244D+01
 Coeff:      0.204D+01
 Gap=     0.268 Goal=   None    Shift=    0.500
 Gap=     0.142 Goal=   None    Shift=    0.500
 GapD=    0.142 DampG=1.000 DampE=1.000 DampFc=1.0000 IDamp=-1.
 RMSDP=6.83D-05 MaxDP=3.73D-03 DE=-4.08D-04 OVMax= 2.45D-02

 Cycle  20  Pass 1  IDiag  1:
 E= -844.990574575470     Delta-E=       -0.000326082666 Rises=F Damp=F
 DIIS: error= 1.63D-03 at cycle  20 NSaved=  20.
 NSaved=20 IEnMin=20 EnMin= -844.990574575470     IErMin=20 ErrMin= 1.63D-03
 ErrMax= 1.63D-03  0.00D+00 EMaxC= 1.00D+00 BMatC= 4.18D-04 BMatP= 5.06D-04
 IDIUse=1 WtCom= 1.00D+00 WtEn= 0.00D+00
 Coeff-Com: -0.207D-01-0.345D-02 0.117D+00 0.493D+00-0.103D+01 0.453D+00
 Coeff-Com:  0.380D+00-0.718D+00 0.207D+00-0.106D+00 0.119D+01 0.767D-01
 Coeff-Com: -0.306D+01 0.111D+01 0.884D+00 0.107D+01 0.174D+01-0.537D+01
 Coeff-Com: -0.150D+01 0.510D+01
 Coeff:     -0.207D-01-0.345D-02 0.117D+00 0.493D+00-0.103D+01 0.453D+00
 Coeff:      0.380D+00-0.718D+00 0.207D+00-0.106D+00 0.119D+01 0.767D-01
 Coeff:     -0.306D+01 0.111D+01 0.884D+00 0.107D+01 0.174D+01-0.537D+01
 Coeff:     -0.150D+01 0.510D+01
 Gap=     0.267 Goal=   None    Shift=    0.500
 Gap=     0.141 Goal=   None    Shift=    0.500
 GapD=    0.141 DampG=1.000 DampE=1.000 DampFc=1.0000 IDamp=-1.
 RMSDP=8.89D-05 MaxDP=5.37D-03 DE=-3.26D-04 OVMax= 2.52D-02

 Cycle  21  Pass 1  IDiag  1:
 E= -844.990830006169     Delta-E=       -0.000255430699 Rises=F Damp=F
 DIIS: error= 1.49D-03 at cycle  21 NSaved=  20.
 NSaved=20 IEnMin=20 EnMin= -844.990830006169     IErMin=20 ErrMin= 1.49D-03
 ErrMax= 1.49D-03  0.00D+00 EMaxC= 1.00D+00 BMatC= 4.61D-04 BMatP= 4.18D-04
 IDIUse=1 WtCom= 1.00D+00 WtEn= 0.00D+00
 Coeff-Com: -0.351D-01 0.387D-01 0.588D+00-0.924D+00 0.304D+00 0.320D+00
 Coeff-Com: -0.568D+00 0.150D+00-0.803D-01 0.118D+01 0.376D-01-0.294D+01
 Coeff-Com:  0.127D+01-0.244D-01 0.165D+01 0.188D+01-0.474D+01-0.208D+01
 Coeff-Com:  0.424D+01 0.734D+00
 Coeff:     -0.351D-01 0.387D-01 0.588D+00-0.924D+00 0.304D+00 0.320D+00
 Coeff:     -0.568D+00 0.150D+00-0.803D-01 0.118D+01 0.376D-01-0.294D+01
 Coeff:      0.127D+01-0.244D-01 0.165D+01 0.188D+01-0.474D+01-0.208D+01
 Coeff:      0.424D+01 0.734D+00
 Gap=     0.267 Goal=   None    Shift=    0.500
 Gap=     0.142 Goal=   None    Shift=    0.500
 GapD=    0.142 DampG=1.000 DampE=1.000 DampFc=1.0000 IDamp=-1.
 RMSDP=5.53D-05 MaxDP=2.78D-03 DE=-2.55D-04 OVMax= 2.03D-02

 Cycle  22  Pass 1  IDiag  1:
 E= -844.991041515602     Delta-E=       -0.000211509433 Rises=F Damp=F
 DIIS: error= 1.27D-03 at cycle  22 NSaved=  20.
 NSaved=20 IEnMin=20 EnMin= -844.991041515602     IErMin=20 ErrMin= 1.27D-03
 ErrMax= 1.27D-03  0.00D+00 EMaxC= 1.00D+00 BMatC= 3.55D-04 BMatP= 4.18D-04
 IDIUse=1 WtCom= 1.00D+00 WtEn= 0.00D+00
 Coeff-Com: -0.504D-01 0.335D+00-0.375D+00 0.333D-01 0.941D-01 0.193D+00
 Coeff-Com: -0.608D+00 0.208D+00 0.216D+00 0.832D+00-0.765D+00-0.461D+00
 Coeff-Com: -0.198D+01 0.220D+01 0.246D+01-0.925D+00-0.247D+01 0.710D+00
 Coeff-Com: -0.460D+01 0.595D+01
 Coeff:     -0.504D-01 0.335D+00-0.375D+00 0.333D-01 0.941D-01 0.193D+00
 Coeff:     -0.608D+00 0.208D+00 0.216D+00 0.832D+00-0.765D+00-0.461D+00
 Coeff:     -0.198D+01 0.220D+01 0.246D+01-0.925D+00-0.247D+01 0.710D+00
 Coeff:     -0.460D+01 0.595D+01
 Gap=     0.266 Goal=   None    Shift=    0.500
 Gap=     0.141 Goal=   None    Shift=    0.500
 GapD=    0.141 DampG=1.000 DampE=1.000 DampFc=1.0000 IDamp=-1.
 RMSDP=6.87D-05 MaxDP=3.31D-03 DE=-2.12D-04 OVMax= 2.01D-02

 Cycle  23  Pass 1  IDiag  1:
 E= -844.991200902741     Delta-E=       -0.000159387138 Rises=F Damp=F
 DIIS: error= 1.14D-03 at cycle  23 NSaved=  20.
 NSaved=20 IEnMin=20 EnMin= -844.991200902741     IErMin=20 ErrMin= 1.14D-03
 ErrMax= 1.14D-03  0.00D+00 EMaxC= 1.00D+00 BMatC= 3.54D-04 BMatP= 3.55D-04
 IDIUse=1 WtCom= 1.00D+00 WtEn= 0.00D+00
 Coeff-Com:  0.155D+00-0.229D+00 0.401D-01 0.611D-01 0.141D+00-0.513D+00
 Coeff-Com:  0.211D+00 0.171D+00 0.654D+00-0.431D+00-0.567D+00-0.176D+01
 Coeff-Com:  0.193D+01 0.196D+01-0.336D+00-0.203D+01 0.701D+00-0.558D+01
 Coeff-Com:  0.577D+01 0.657D+00
 Coeff:      0.155D+00-0.229D+00 0.401D-01 0.611D-01 0.141D+00-0.513D+00
 Coeff:      0.211D+00 0.171D+00 0.654D+00-0.431D+00-0.567D+00-0.176D+01
 Coeff:      0.193D+01 0.196D+01-0.336D+00-0.203D+01 0.701D+00-0.558D+01
 Coeff:      0.577D+01 0.657D+00
 Gap=     0.266 Goal=   None    Shift=    0.500
 Gap=     0.141 Goal=   None    Shift=    0.500
 GapD=    0.141 DampG=1.000 DampE=1.000 DampFc=1.0000 IDamp=-1.
 RMSDP=4.47D-05 MaxDP=1.87D-03 DE=-1.59D-04 OVMax= 1.64D-02

 Cycle  24  Pass 1  IDiag  1:
 E= -844.991329731489     Delta-E=       -0.000128828748 Rises=F Damp=F
 DIIS: error= 9.70D-04 at cycle  24 NSaved=  20.
 NSaved=20 IEnMin=20 EnMin= -844.991329731489     IErMin=20 ErrMin= 9.70D-04
 ErrMax= 9.70D-04  0.00D+00 EMaxC= 1.00D+00 BMatC= 2.72D-04 BMatP= 3.54D-04
 IDIUse=1 WtCom= 1.00D+00 WtEn= 0.00D+00
 Coeff-Com: -0.130D-01 0.229D-01-0.491D-01 0.822D-01-0.349D+00 0.180D+00
 Coeff-Com:  0.549D-01 0.590D+00-0.287D+00-0.478D+00-0.558D+00 0.469D+00
 Coeff-Com:  0.192D+01-0.182D+01-0.574D+00 0.198D+01-0.264D+01 0.202D+01
 Coeff-Com: -0.471D+01 0.516D+01
 Coeff:     -0.130D-01 0.229D-01-0.491D-01 0.822D-01-0.349D+00 0.180D+00
 Coeff:      0.549D-01 0.590D+00-0.287D+00-0.478D+00-0.558D+00 0.469D+00
 Coeff:      0.192D+01-0.182D+01-0.574D+00 0.198D+01-0.264D+01 0.202D+01
 Coeff:     -0.471D+01 0.516D+01
 Gap=     0.265 Goal=   None    Shift=    0.500
 Gap=     0.142 Goal=   None    Shift=    0.500
 RMSDP=5.07D-05 MaxDP=2.31D-03 DE=-1.29D-04 OVMax= 1.55D-02

 Cycle  25  Pass 1  IDiag  1:
 E= -844.991412716504     Delta-E=       -0.000082985015 Rises=F Damp=F
 DIIS: error= 8.58D-04 at cycle  25 NSaved=  20.
 NSaved=20 IEnMin=20 EnMin= -844.991412716504     IErMin=20 ErrMin= 8.58D-04
 ErrMax= 8.58D-04  0.00D+00 EMaxC= 1.00D+00 BMatC= 2.66D-04 BMatP= 2.72D-04
 IDIUse=1 WtCom= 1.00D+00 WtEn= 0.00D+00
 Coeff-Com: -0.263D-02-0.396D-01 0.955D-01-0.372D+00 0.201D+00 0.197D+00
 Coeff-Com:  0.478D+00-0.622D+00-0.180D+00-0.413D+00 0.492D+00 0.177D+01
 Coeff-Com: -0.208D+01-0.716D+00 0.210D+01-0.123D+01 0.129D+01-0.523D+01
 Coeff-Com:  0.425D+01 0.101D+01
 Coeff:     -0.263D-02-0.396D-01 0.955D-01-0.372D+00 0.201D+00 0.197D+00
 Coeff:      0.478D+00-0.622D+00-0.180D+00-0.413D+00 0.492D+00 0.177D+01
 Coeff:     -0.208D+01-0.716D+00 0.210D+01-0.123D+01 0.129D+01-0.523D+01
 Coeff:      0.425D+01 0.101D+01
 Gap=     0.265 Goal=   None    Shift=    0.500
 Gap=     0.142 Goal=   None    Shift=    0.500
 RMSDP=3.05D-05 MaxDP=1.38D-03 DE=-8.30D-05 OVMax= 1.21D-02

 Cycle  26  Pass 1  IDiag  1:
 E= -844.991484356178     Delta-E=       -0.000071639674 Rises=F Damp=F
 DIIS: error= 7.16D-04 at cycle  26 NSaved=  20.
 NSaved=20 IEnMin=20 EnMin= -844.991484356178     IErMin=20 ErrMin= 7.16D-04
 ErrMax= 7.16D-04  0.00D+00 EMaxC= 1.00D+00 BMatC= 1.91D-04 BMatP= 2.66D-04
 IDIUse=1 WtCom= 1.00D+00 WtEn= 0.00D+00
 Coeff-Com:  0.760D-01-0.119D+00-0.248D+00 0.157D+00 0.279D+00 0.386D+00
 Coeff-Com: -0.665D+00-0.267D+00-0.387D+00 0.576D+00 0.202D+01-0.171D+01
 Coeff-Com: -0.116D+01 0.795D+00-0.313D+00 0.122D+01 0.125D+00 0.310D+00
 Coeff-Com: -0.644D+01 0.635D+01
 Coeff:      0.760D-01-0.119D+00-0.248D+00 0.157D+00 0.279D+00 0.386D+00
 Coeff:     -0.665D+00-0.267D+00-0.387D+00 0.576D+00 0.202D+01-0.171D+01
 Coeff:     -0.116D+01 0.795D+00-0.313D+00 0.122D+01 0.125D+00 0.310D+00
 Coeff:     -0.644D+01 0.635D+01
 Gap=     0.265 Goal=   None    Shift=    0.500
 Gap=     0.142 Goal=   None    Shift=    0.500
 RMSDP=2.47D-05 MaxDP=1.16D-03 DE=-7.16D-05 OVMax= 1.00D-02

 Cycle  27  Pass 1  IDiag  1:
 E= -844.991532839121     Delta-E=       -0.000048482942 Rises=F Damp=F
 DIIS: error= 5.94D-04 at cycle  27 NSaved=  20.
 NSaved=20 IEnMin=20 EnMin= -844.991532839121     IErMin=20 ErrMin= 5.94D-04
 ErrMax= 5.94D-04  0.00D+00 EMaxC= 1.00D+00 BMatC= 1.39D-04 BMatP= 1.91D-04
 IDIUse=1 WtCom= 1.00D+00 WtEn= 0.00D+00
 Coeff-Com:  0.143D-01-0.204D+00 0.130D+00 0.224D-01 0.415D+00-0.247D+00
 Coeff-Com: -0.400D+00-0.632D+00 0.590D+00 0.172D+01-0.815D+00-0.111D+01
 Coeff-Com:  0.263D+00-0.137D+01 0.179D+01 0.165D+01-0.137D+00-0.640D+01
 Coeff-Com:  0.391D+01 0.181D+01
 Coeff:      0.143D-01-0.204D+00 0.130D+00 0.224D-01 0.415D+00-0.247D+00
 Coeff:     -0.400D+00-0.632D+00 0.590D+00 0.172D+01-0.815D+00-0.111D+01
 Coeff:      0.263D+00-0.137D+01 0.179D+01 0.165D+01-0.137D+00-0.640D+01
 Coeff:      0.391D+01 0.181D+01
 Gap=     0.265 Goal=   None    Shift=    0.500
 Gap=     0.142 Goal=   None    Shift=    0.500
 RMSDP=1.81D-05 MaxDP=9.27D-04 DE=-4.85D-05 OVMax= 7.93D-03

 Cycle  28  Pass 1  IDiag  1:
 E= -844.991566739593     Delta-E=       -0.000033900472 Rises=F Damp=F
 DIIS: error= 4.86D-04 at cycle  28 NSaved=  20.
 NSaved=20 IEnMin=20 EnMin= -844.991566739593     IErMin=20 ErrMin= 4.86D-04
 ErrMax= 4.86D-04  0.00D+00 EMaxC= 1.00D+00 BMatC= 9.50D-05 BMatP= 1.39D-04
 IDIUse=1 WtCom= 1.00D+00 WtEn= 0.00D+00
 Coeff-Com: -0.155D+00 0.127D+00-0.199D-01 0.352D+00-0.147D+00-0.332D+00
 Coeff-Com: -0.564D+00 0.517D+00 0.108D+01-0.279D+00-0.739D+00 0.162D+00
 Coeff-Com: -0.166D+01 0.161D+01 0.960D+00 0.276D+00-0.263D+01 0.208D+00
 Coeff-Com:  0.126D+00 0.211D+01
 Coeff:     -0.155D+00 0.127D+00-0.199D-01 0.352D+00-0.147D+00-0.332D+00
 Coeff:     -0.564D+00 0.517D+00 0.108D+01-0.279D+00-0.739D+00 0.162D+00
 Coeff:     -0.166D+01 0.161D+01 0.960D+00 0.276D+00-0.263D+01 0.208D+00
 Coeff:      0.126D+00 0.211D+01
 Gap=     0.265 Goal=   None    Shift=    0.500
 Gap=     0.142 Goal=   None    Shift=    0.500
 RMSDP=1.31D-05 MaxDP=6.72D-04 DE=-3.39D-05 OVMax= 6.14D-03

 Cycle  29  Pass 1  IDiag  1:
 E= -844.991590570818     Delta-E=       -0.000023831225 Rises=F Damp=F
 DIIS: error= 3.89D-04 at cycle  29 NSaved=  20.
 NSaved=20 IEnMin=20 EnMin= -844.991590570818     IErMin=20 ErrMin= 3.89D-04
 ErrMax= 3.89D-04  0.00D+00 EMaxC= 1.00D+00 BMatC= 5.99D-05 BMatP= 9.50D-05
 IDIUse=1 WtCom= 1.00D+00 WtEn= 0.00D+00
 Coeff-Com: -0.503D-02-0.858D-03 0.148D+00-0.750D-01-0.159D+00-0.220D+00
 Coeff-Com:  0.294D+00 0.719D-01 0.180D+00-0.121D+00 0.127D+00-0.120D+01
 Coeff-Com:  0.839D+00-0.379D+00 0.727D+00 0.172D+01-0.253D+01-0.152D+01
 Coeff-Com:  0.786D+00 0.232D+01
 Coeff:     -0.503D-02-0.858D-03 0.148D+00-0.750D-01-0.159D+00-0.220D+00
 Coeff:      0.294D+00 0.719D-01 0.180D+00-0.121D+00 0.127D+00-0.120D+01
 Coeff:      0.839D+00-0.379D+00 0.727D+00 0.172D+01-0.253D+01-0.152D+01
 Coeff:      0.786D+00 0.232D+01
 Gap=     0.265 Goal=   None    Shift=    0.500
 Gap=     0.141 Goal=   None    Shift=    0.500
 RMSDP=1.24D-05 MaxDP=5.75D-04 DE=-2.38D-05 OVMax= 5.28D-03

 Cycle  30  Pass 1  IDiag  1:
 E= -844.991606390272     Delta-E=       -0.000015819454 Rises=F Damp=F
 DIIS: error= 3.09D-04 at cycle  30 NSaved=  20.
 NSaved=20 IEnMin=20 EnMin= -844.991606390272     IErMin=20 ErrMin= 3.09D-04
 ErrMax= 3.09D-04  0.00D+00 EMaxC= 1.00D+00 BMatC= 3.75D-05 BMatP= 5.99D-05
 IDIUse=1 WtCom= 1.00D+00 WtEn= 0.00D+00
 Coeff-Com:  0.250D-01-0.624D-01 0.918D-02 0.637D-01-0.116D+00 0.160D+00
 Coeff-Com: -0.583D-01-0.701D-02-0.598D-01 0.141D+00-0.228D+00 0.127D+00
 Coeff-Com: -0.546D+00 0.526D+00 0.895D+00-0.525D+00-0.108D+01-0.106D+01
 Coeff-Com:  0.111D+01 0.168D+01
 Coeff:      0.250D-01-0.624D-01 0.918D-02 0.637D-01-0.116D+00 0.160D+00
 Coeff:     -0.583D-01-0.701D-02-0.598D-01 0.141D+00-0.228D+00 0.127D+00
 Coeff:     -0.546D+00 0.526D+00 0.895D+00-0.525D+00-0.108D+01-0.106D+01
 Coeff:      0.111D+01 0.168D+01
 Gap=     0.265 Goal=   None    Shift=    0.500
 Gap=     0.141 Goal=   None    Shift=    0.500
 RMSDP=8.00D-06 MaxDP=3.59D-04 DE=-1.58D-05 OVMax= 3.76D-03

 Cycle  31  Pass 1  IDiag  1:
 E= -844.991616732255     Delta-E=       -0.000010341983 Rises=F Damp=F
 DIIS: error= 2.44D-04 at cycle  31 NSaved=  20.
 NSaved=20 IEnMin=20 EnMin= -844.991616732255     IErMin=20 ErrMin= 2.44D-04
 ErrMax= 2.44D-04  0.00D+00 EMaxC= 1.00D+00 BMatC= 2.13D-05 BMatP= 3.75D-05
 IDIUse=1 WtCom= 1.00D+00 WtEn= 0.00D+00
 Coeff-Com: -0.197D-01 0.542D-02 0.519D-01-0.790D-01 0.580D-01 0.327D-01
 Coeff-Com: -0.699D-01-0.160D+00 0.708D-01 0.303D+00-0.240D-01-0.156D+00
 Coeff-Com: -0.105D+00-0.660D+00 0.131D+01 0.897D-01-0.143D+01-0.141D+00
 Coeff-Com: -0.453D+00 0.238D+01
 Coeff:     -0.197D-01 0.542D-02 0.519D-01-0.790D-01 0.580D-01 0.327D-01
 Coeff:     -0.699D-01-0.160D+00 0.708D-01 0.303D+00-0.240D-01-0.156D+00
 Coeff:     -0.105D+00-0.660D+00 0.131D+01 0.897D-01-0.143D+01-0.141D+00
 Coeff:     -0.453D+00 0.238D+01
 Gap=     0.265 Goal=   None    Shift=    0.500
 Gap=     0.141 Goal=   None    Shift=    0.500
 RMSDP=7.17D-06 MaxDP=3.02D-04 DE=-1.03D-05 OVMax= 3.17D-03

 Cycle  32  Pass 1  IDiag  1:
 E= -844.991622411075     Delta-E=       -0.000005678819 Rises=F Damp=F
 DIIS: error= 1.99D-04 at cycle  32 NSaved=  20.
 NSaved=20 IEnMin=20 EnMin= -844.991622411075     IErMin=20 ErrMin= 1.99D-04
 ErrMax= 1.99D-04  0.00D+00 EMaxC= 1.00D+00 BMatC= 1.44D-05 BMatP= 2.13D-05
 IDIUse=1 WtCom= 1.00D+00 WtEn= 0.00D+00
 Coeff-Com: -0.141D-01 0.135D-01-0.814D-02 0.850D-02 0.759D-01 0.167D-02
 Coeff-Com: -0.233D+00 0.586D-01-0.785D-01 0.234D+00 0.385D+00-0.384D+00
 Coeff-Com: -0.757D+00 0.737D+00 0.340D+00-0.391D+00-0.207D+00-0.127D+01
 Coeff-Com:  0.577D+00 0.191D+01
 Coeff:     -0.141D-01 0.135D-01-0.814D-02 0.850D-02 0.759D-01 0.167D-02
 Coeff:     -0.233D+00 0.586D-01-0.785D-01 0.234D+00 0.385D+00-0.384D+00
 Coeff:     -0.757D+00 0.737D+00 0.340D+00-0.391D+00-0.207D+00-0.127D+01
 Coeff:      0.577D+00 0.191D+01
 Gap=     0.265 Goal=   None    Shift=    0.500
 Gap=     0.141 Goal=   None    Shift=    0.500
 RMSDP=6.06D-06 MaxDP=2.68D-04 DE=-5.68D-06 OVMax= 2.61D-03

 >>>>>>>>>> Convergence criterion not met.
 SCF Done:  E(ULC-wHPBE) =  -844.991622411     A.U. after   33 cycles
            NFock= 32  Conv=0.61D-05     -V/T= 2.0053
 <Sx>= 0.0000 <Sy>= 0.0000 <Sz>= 0.5000 <S**2>= 0.7806 S= 0.5152
 <L.S>= 0.000000000000E+00
 KE= 8.405750407169D+02 PE=-4.898838090679D+03 EE= 1.725811222711D+03
 Annihilation of the first spin contaminant:
 S**2 before annihilation     0.7806,   after     0.7506
 Leave Link  502 at Thu Jan 21 04:44:30 2021, MaxMem=  4026531840 cpu:            9038.2 elap:            1132.7
 (Enter /opt/ohpc/pub/libs/gaussian/g16-A.03/sandybridge/g16/l508.exe)
 Integral symmetry usage will be decided dynamically.
 Tight linear equation convergence will be used.
 ULC-wHPBE wavefunction.
 Quadratic Convergence SCF Method.
 Line search only if initial step raises energy.
 FoFJK:  IHMeth= 1 ICntrl=       0 DoSepK=T KAlg= 0 I1Cent=           0 FoldK=F
 IRaf=         1 NMat=       1 IRICut=       1 DoRegI=T DoRafI=F ISym2E= 1 IDoP0=0 IntGTp=1.
 FoFCou: FMM=F IPFlag=           0 FMFlag=      100000 FMFlg1=           0
         NFxFlg=           0 DoJE=T BraDBF=F KetDBF=F FulRan=T
         wScrn=  0.000000 ICntrl=       500 IOpCl=  0 I1Cent=           0 NGrid=           0
         NMat0=    1 NMatS0=      1 NMatT0=    0 NMatD0=    1 NMtDS0=    0 NMtDT0=    0
 Petite list used in FoFCou.
 Iteration   1 EE= -844.991626137846                                    Grad=2.232D-03 Max rot=    0.0421 deg.
 QCNR:  CnvC1=2.23D-08 CnvC2=2.23D-07
 LinEq1:  Iter=  0 NonCon=     1 RMS=2.35D-05 Max=5.21D-03 NDo=     1
 AX will form     1 AO Fock derivatives at one time.
 LinEq1:  Iter=  1 NonCon=     1 RMS=1.06D-05 Max=9.21D-04 NDo=     1
 LinEq1:  Iter=  2 NonCon=     1 RMS=5.30D-06 Max=3.49D-04 NDo=     1
 LinEq1:  Iter=  3 NonCon=     1 RMS=4.60D-06 Max=4.91D-04 NDo=     1
 LinEq1:  Iter=  4 NonCon=     1 RMS=2.15D-06 Max=1.28D-04 NDo=     1
 LinEq1:  Iter=  5 NonCon=     1 RMS=1.59D-06 Max=1.80D-04 NDo=     1
 LinEq1:  Iter=  6 NonCon=     1 RMS=7.03D-07 Max=4.52D-05 NDo=     1
 LinEq1:  Iter=  7 NonCon=     1 RMS=4.86D-07 Max=4.06D-05 NDo=     1
 LinEq1:  Iter=  8 NonCon=     1 RMS=2.18D-07 Max=1.13D-05 NDo=     1
 LinEq1:  Iter=  9 NonCon=     1 RMS=1.25D-07 Max=1.04D-05 NDo=     1
 LinEq1:  Iter= 10 NonCon=     1 RMS=8.77D-08 Max=6.95D-06 NDo=     1
 LinEq1:  Iter= 11 NonCon=     1 RMS=5.82D-08 Max=4.80D-06 NDo=     1
 LinEq1:  Iter= 12 NonCon=     1 RMS=4.07D-08 Max=3.11D-06 NDo=     1
 LinEq1:  Iter= 13 NonCon=     1 RMS=1.79D-08 Max=1.04D-06 NDo=     1
 LinEq1:  Iter= 14 NonCon=     1 RMS=1.05D-08 Max=5.08D-07 NDo=     1
 LinEq1:  Iter= 15 NonCon=     1 RMS=5.39D-09 Max=3.51D-07 NDo=     1
 LinEq1:  Iter= 16 NonCon=     0 RMS=2.98D-09 Max=2.14D-07 NDo=     1
 Linear equations converged to 2.232D-08 2.232D-07 after    16 iterations.
 Angle between quadratic step and gradient=  68.53 degrees.
     ILin= 1 X=0.000D+00 Y=-8.449916261378D+02 DE= 0.00D+00 F= -1.35D-05
     ILin= 2 X=1.000D+00 Y=-8.449916329058D+02 DE=-6.77D-06
 Iteration   2 EE= -844.991632905792     Delta-E=       -0.000006767947 Grad=1.113D-05 Max rot=    0.0002 deg.
 Rotation gradient small -- convergence achieved.
 SCF Done:  E(ULC-wHPBE) =  -844.991632906     a.u. after    2 cycles
            Convg  =    0.1113D-04                    18 Fock formations.
              S**2 =  0.7810                  -V/T =  2.0053
 <Sx>= 0.0000 <Sy>= 0.0000 <Sz>= 0.5000 <S**2>= 0.7810 S= 0.5154
 <L.S>= 0.000000000000E+00
 Annihilation of the first spin contaminant:
 S**2 before annihilation     0.7810,   after     0.7506
 Leave Link  508 at Thu Jan 21 04:54:07 2021, MaxMem=  4026531840 cpu:            4599.9 elap:             577.3
 (Enter /opt/ohpc/pub/libs/gaussian/g16-A.03/sandybridge/g16/l601.exe)
 Copying SCF densities to generalized density rwf, IOpCl= 1 IROHF=0.

 **********************************************************************

            Population analysis using the SCF density.

 **********************************************************************

 Orbital symmetries:
 Alpha Orbitals:
       Occupied  (A) (A) (A) (A) (A) (A) (A) (A) (A) (A) (A) (A)
                 (A) (A) (A) (A) (A) (A) (A) (A) (A) (A) (A) (A)
                 (A) (A) (A) (A) (A) (A) (A) (A) (A) (A) (A) (A)
                 (A) (A) (A) (A) (A) (A) (A) (A) (A) (A) (A) (A)
                 (A) (A) (A) (A) (A) (A) (A) (A) (A) (A) (A) (A)
                 (A) (A) (A) (A) (A) (A) (A) (A) (A) (A) (A) (A)
                 (A) (A)
       Virtual   (A) (A) (A) (A) (A) (A) (A) (A) (A) (A) (A) (A)
                 (A) (A) (A) (A) (A) (A) (A) (A) (A) (A) (A) (A)
                 (A) (A) (A) (A) (A) (A) (A) (A) (A) (A) (A) (A)
                 (A) (A) (A) (A) (A) (A) (A) (A) (A) (A) (A) (A)
                 (A) (A) (A) (A) (A) (A) (A) (A) (A) (A) (A) (A)
                 (A) (A) (A) (A) (A) (A) (A) (A) (A) (A) (A) (A)
                 (A) (A) (A) (A) (A) (A) (A) (A) (A) (A) (A) (A)
                 (A) (A) (A) (A) (A) (A) (A) (A) (A) (A) (A) (A)
                 (A) (A) (A) (A) (A) (A) (A) (A) (A) (A) (A) (A)
                 (A) (A) (A) (A) (A) (A) (A) (A) (A) (A) (A) (A)
                 (A) (A) (A) (A) (A) (A) (A) (A) (A) (A) (A) (A)
                 (A) (A) (A) (A) (A) (A) (A) (A) (A) (A) (A) (A)
                 (A) (A) (A) (A) (A) (A) (A) (A) (A) (A) (A) (A)
                 (A) (A) (A) (A) (A) (A) (A) (A) (A) (A) (A) (A)
                 (A) (A) (A) (A) (A) (A) (A) (A) (A) (A) (A) (A)
                 (A) (A) (A) (A) (A) (A) (A) (A) (A) (A) (A) (A)
                 (A) (A) (A) (A) (A) (A) (A) (A) (A) (A) (A) (A)
                 (A) (A) (A) (A) (A) (A) (A) (A) (A) (A) (A) (A)
                 (A) (A) (A) (A) (A) (A) (A) (A) (A) (A) (A) (A)
                 (A) (A) (A) (A) (A) (A) (A) (A) (A) (A) (A) (A)
                 (A) (A) (A) (A) (A) (A) (A) (A) (A) (A) (A) (A)
                 (A) (A) (A) (A) (A) (A) (A) (A) (A) (A) (A) (A)
                 (A) (A) (A) (A) (A) (A) (A) (A) (A) (A) (A) (A)
                 (A) (A) (A) (A) (A) (A) (A) (A) (A) (A) (A) (A)
                 (A) (A) (A) (A) (A) (A) (A) (A) (A) (A) (A) (A)
                 (A) (A) (A) (A) (A) (A) (A) (A) (A) (A) (A) (A)
                 (A) (A) (A) (A) (A) (A) (A) (A) (A) (A) (A) (A)
                 (A) (A) (A) (A) (A) (A) (A) (A) (A) (A) (A) (A)
                 (A) (A) (A) (A) (A) (A) (A) (A) (A) (A) (A) (A)
                 (A) (A) (A) (A) (A) (A) (A) (A) (A) (A) (A) (A)
                 (A) (A) (A) (A) (A) (A) (A) (A) (A) (A) (A) (A)
                 (A) (A) (A) (A) (A) (A) (A) (A) (A) (A) (A) (A)
                 (A) (A) (A) (A) (A) (A) (A) (A) (A) (A) (A) (A)
                 (A) (A) (A) (A) (A) (A) (A) (A) (A) (A) (A) (A)
                 (A) (A) (A) (A) (A) (A) (A) (A) (A) (A) (A) (A)
                 (A) (A) (A) (A) (A) (A) (A) (A) (A) (A) (A) (A)
                 (A) (A) (A) (A) (A) (A) (A) (A) (A) (A) (A) (A)
                 (A) (A) (A) (A) (A) (A) (A)
 Beta  Orbitals:
       Occupied  (A) (A) (A) (A) (A) (A) (A) (A) (A) (A) (A) (A)
                 (A) (A) (A) (A) (A) (A) (A) (A) (A) (A) (A) (A)
                 (A) (A) (A) (A) (A) (A) (A) (A) (A) (A) (A) (A)
                 (A) (A) (A) (A) (A) (A) (A) (A) (A) (A) (A) (A)
                 (A) (A) (A) (A) (A) (A) (A) (A) (A) (A) (A) (A)
                 (A) (A) (A) (A) (A) (A) (A) (A) (A) (A) (A) (A)
                 (A)
       Virtual   (A) (A) (A) (A) (A) (A) (A) (A) (A) (A) (A) (A)
                 (A) (A) (A) (A) (A) (A) (A) (A) (A) (A) (A) (A)
                 (A) (A) (A) (A) (A) (A) (A) (A) (A) (A) (A) (A)
                 (A) (A) (A) (A) (A) (A) (A) (A) (A) (A) (A) (A)
                 (A) (A) (A) (A) (A) (A) (A) (A) (A) (A) (A) (A)
                 (A) (A) (A) (A) (A) (A) (A) (A) (A) (A) (A) (A)
                 (A) (A) (A) (A) (A) (A) (A) (A) (A) (A) (A) (A)
                 (A) (A) (A) (A) (A) (A) (A) (A) (A) (A) (A) (A)
                 (A) (A) (A) (A) (A) (A) (A) (A) (A) (A) (A) (A)
                 (A) (A) (A) (A) (A) (A) (A) (A) (A) (A) (A) (A)
                 (A) (A) (A) (A) (A) (A) (A) (A) (A) (A) (A) (A)
                 (A) (A) (A) (A) (A) (A) (A) (A) (A) (A) (A) (A)
                 (A) (A) (A) (A) (A) (A) (A) (A) (A) (A) (A) (A)
                 (A) (A) (A) (A) (A) (A) (A) (A) (A) (A) (A) (A)
                 (A) (A) (A) (A) (A) (A) (A) (A) (A) (A) (A) (A)
                 (A) (A) (A) (A) (A) (A) (A) (A) (A) (A) (A) (A)
                 (A) (A) (A) (A) (A) (A) (A) (A) (A) (A) (A) (A)
                 (A) (A) (A) (A) (A) (A) (A) (A) (A) (A) (A) (A)
                 (A) (A) (A) (A) (A) (A) (A) (A) (A) (A) (A) (A)
                 (A) (A) (A) (A) (A) (A) (A) (A) (A) (A) (A) (A)
                 (A) (A) (A) (A) (A) (A) (A) (A) (A) (A) (A) (A)
                 (A) (A) (A) (A) (A) (A) (A) (A) (A) (A) (A) (A)
                 (A) (A) (A) (A) (A) (A) (A) (A) (A) (A) (A) (A)
                 (A) (A) (A) (A) (A) (A) (A) (A) (A) (A) (A) (A)
                 (A) (A) (A) (A) (A) (A) (A) (A) (A) (A) (A) (A)
                 (A) (A) (A) (A) (A) (A) (A) (A) (A) (A) (A) (A)
                 (A) (A) (A) (A) (A) (A) (A) (A) (A) (A) (A) (A)
                 (A) (A) (A) (A) (A) (A) (A) (A) (A) (A) (A) (A)
                 (A) (A) (A) (A) (A) (A) (A) (A) (A) (A) (A) (A)
                 (A) (A) (A) (A) (A) (A) (A) (A) (A) (A) (A) (A)
                 (A) (A) (A) (A) (A) (A) (A) (A) (A) (A) (A) (A)
                 (A) (A) (A) (A) (A) (A) (A) (A) (A) (A) (A) (A)
                 (A) (A) (A) (A) (A) (A) (A) (A) (A) (A) (A) (A)
                 (A) (A) (A) (A) (A) (A) (A) (A) (A) (A) (A) (A)
                 (A) (A) (A) (A) (A) (A) (A) (A) (A) (A) (A) (A)
                 (A) (A) (A) (A) (A) (A) (A) (A) (A) (A) (A) (A)
[...]
    27  C(13)             -0.00202      -2.27117      -0.81041      -0.75758
    28  H(1)               0.00198       8.85251       3.15879       2.95288
    29  H(1)               0.00004       0.19956       0.07121       0.06657
    30  H(1)               0.00187       8.36034       2.98318       2.78871
    31  C(13)             -0.00188      -2.10929      -0.75265      -0.70358
    32  H(1)               0.00160       7.16633       2.55712       2.39043
    33  H(1)               0.00198       8.87080       3.16532       2.95898
    34  H(1)               0.00012       0.52611       0.18773       0.17549
    35  C(13)             -0.00202      -2.27065      -0.81023      -0.75741
    36  H(1)               0.00198       8.84022       3.15441       2.94878
    37  H(1)               0.00004       0.19726       0.07039       0.06580
    38  H(1)               0.00187       8.37636       2.98889       2.79405
    39  C(13)             -0.00188      -2.11043      -0.75305      -0.70396
    40  H(1)               0.00159       7.10151       2.53399       2.36881
    41  H(1)               0.00199       8.91086       3.17962       2.97234
    42  H(1)               0.00012       0.55127       0.19671       0.18388
 --------------------------------------------------------
       Center         ----  Spin Dipole Couplings  ----
                      3XX-RR        3YY-RR        3ZZ-RR
 --------------------------------------------------------
     1   Atom        0.014995      0.013395     -0.028390
     2   Atom       -0.152354     -0.135116      0.287471
     3   Atom       -0.057532     -0.037588      0.095120
     4   Atom        0.014997      0.013394     -0.028391
     5   Atom       -0.112557     -0.110353      0.222910
     6   Atom       -0.057523     -0.037587      0.095110
     7   Atom        0.021788     -0.018207     -0.003581
     8   Atom       -0.005962      0.010108     -0.004147
     9   Atom       -0.001420      0.004441     -0.003021
    10   Atom       -0.005961      0.010108     -0.004147
    11   Atom       -0.044001     -0.048195      0.092197
    12   Atom       -0.058372     -0.017908      0.076279
    13   Atom       -0.058381     -0.017915      0.076296
    14   Atom        0.027626      0.015336     -0.042963
    15   Atom        0.027626      0.015340     -0.042966
    16   Atom       -0.105179     -0.072503      0.177682
    17   Atom       -0.004486      0.007529     -0.003043
    18   Atom       -0.004486      0.007530     -0.003044
    19   Atom        0.001395      0.000641     -0.002036
    20   Atom        0.001395      0.000641     -0.002037
    21   Atom       -0.001421      0.004442     -0.003021
    22   Atom        0.034786      0.016404     -0.051190
    23   Atom       -0.004974     -0.003624      0.008598
    24   Atom       -0.004968     -0.003633      0.008601
    25   Atom       -0.095691     -0.095063      0.190753
    26   Atom       -0.095700     -0.095048      0.190748
    27   Atom       -0.001378      0.000321      0.001057
    28   Atom       -0.000513      0.001428     -0.000914
    29   Atom        0.001298      0.000267     -0.001565
    30   Atom       -0.000358      0.001096     -0.000738
    31   Atom        0.001877     -0.002286      0.000408
    32   Atom        0.001060     -0.000163     -0.000897
    33   Atom        0.001453     -0.000775     -0.000678
    34   Atom        0.001420     -0.000223     -0.001197
    35   Atom       -0.001381      0.000319      0.001062
    36   Atom       -0.000514      0.001431     -0.000917
    37   Atom        0.001298      0.000267     -0.001564
    38   Atom       -0.000358      0.001092     -0.000734
    39   Atom        0.001880     -0.002280      0.000400
    40   Atom        0.001063     -0.000158     -0.000905
    41   Atom        0.001452     -0.000780     -0.000672
    42   Atom        0.001420     -0.000223     -0.001197
 --------------------------------------------------------
                        XY            XZ            YZ
 --------------------------------------------------------
     1   Atom        0.000101     -0.009281      0.006277
     2   Atom       -0.000007      0.000030     -0.104596
     3   Atom        0.007830     -0.020086     -0.049573
     4   Atom       -0.000100      0.009275      0.006277
     5   Atom       -0.000004      0.000031     -0.042815
     6   Atom       -0.007837      0.020109     -0.049570
     7   Atom       -0.000001     -0.000002     -0.003841
     8   Atom       -0.004224     -0.000420      0.002185
     9   Atom        0.000426      0.000168      0.002506
    10   Atom        0.004225      0.000421      0.002184
    11   Atom        0.000002      0.000014      0.024410
    12   Atom        0.010487      0.016248      0.072452
    13   Atom       -0.010475     -0.016227      0.072454
    14   Atom        0.002414      0.006739     -0.025003
    15   Atom       -0.002419     -0.006752     -0.025002
    16   Atom        0.000005      0.000014      0.104507
    17   Atom       -0.003140      0.000716     -0.003354
    18   Atom        0.003141     -0.000715     -0.003354
    19   Atom       -0.001087      0.000781     -0.001715
    20   Atom        0.001087     -0.000781     -0.001715
    21   Atom       -0.000426     -0.000168      0.002506
    22   Atom        0.000001     -0.000001     -0.000770
    23   Atom       -0.003394      0.013234      0.000865
    24   Atom        0.003398     -0.013256      0.000835
    25   Atom        0.000922     -0.013323     -0.023713
    26   Atom       -0.000916      0.013205     -0.023810
    27   Atom        0.001135      0.000922      0.000964
    28   Atom        0.000222     -0.000053     -0.001052
    29   Atom        0.000080      0.000135      0.000306
    30   Atom       -0.000180     -0.000212      0.001230
    31   Atom       -0.000662      0.001057     -0.000718
    32   Atom       -0.001021      0.000813     -0.000617
    33   Atom       -0.000722     -0.001065      0.000445
    34   Atom        0.000444      0.000507      0.000036
    35   Atom       -0.001135     -0.000929      0.000973
    36   Atom       -0.000222      0.000053     -0.001051
    37   Atom       -0.000080     -0.000135      0.000307
    38   Atom        0.000180      0.000213      0.001232
    39   Atom        0.000660     -0.001042     -0.000723
    40   Atom        0.001027     -0.000808     -0.000611
    41   Atom        0.000714      0.001068      0.000442
    42   Atom       -0.000442     -0.000511      0.000037
 --------------------------------------------------------


 ---------------------------------------------------------------------------------
              Anisotropic Spin Dipole Couplings in Principal Axis System
 ---------------------------------------------------------------------------------

       Atom             a.u.   MegaHertz   Gauss  10(-4) cm-1        Axes

              Baa    -0.0311    -4.180    -1.491    -1.394  0.1956 -0.1373  0.9710
     1 C(13)  Bbb     0.0138     1.854     0.662     0.619  0.3690  0.9277  0.0568
              Bcc     0.0173     2.325     0.830     0.776  0.9086 -0.3472 -0.2321
 
              Baa    -0.1596   -21.415    -7.641    -7.143  0.0000  0.9737  0.2278
     2 C(13)  Bbb    -0.1524   -20.445    -7.295    -6.820  1.0000 -0.0000 -0.0001
              Bcc     0.3119    41.860    14.937    13.963  0.0001 -0.2278  0.9737
 
              Baa    -0.0604    -8.107    -2.893    -2.704  0.9780 -0.1988  0.0630
     3 C(13)  Bbb    -0.0539    -7.230    -2.580    -2.412  0.1674  0.9285  0.3315
              Bcc     0.1143    15.337     5.473     5.116 -0.1243 -0.3137  0.9414
 
              Baa    -0.0311    -4.179    -1.491    -1.394 -0.1955 -0.1373  0.9711
     4 C(13)  Bbb     0.0138     1.854     0.662     0.619 -0.3690  0.9277  0.0569
              Bcc     0.0173     2.325     0.830     0.776  0.9086  0.3472  0.2320
 
              Baa    -0.1158   -15.535    -5.543    -5.182  0.0000  0.9921  0.1254
     5 C(13)  Bbb    -0.1126   -15.104    -5.390    -5.038  1.0000 -0.0000 -0.0001
              Bcc     0.2283    30.639    10.933    10.220  0.0001 -0.1254  0.9921
 
              Baa    -0.0604    -8.107    -2.893    -2.704  0.9780  0.1987 -0.0631
     6 C(13)  Bbb    -0.0539    -7.229    -2.580    -2.411 -0.1673  0.9285  0.3315
              Bcc     0.1143    15.336     5.472     5.116  0.1245 -0.3137  0.9413
 
              Baa    -0.0192   -10.220    -3.647    -3.409  0.0000  0.9709  0.2395
     7 H(1)   Bbb    -0.0026    -1.405    -0.501    -0.469  0.0001 -0.2395  0.9709
              Bcc     0.0218    11.625     4.148     3.878  1.0000 -0.0000 -0.0001
 
              Baa    -0.0070    -3.740    -1.334    -1.247  0.9686  0.2447 -0.0445
     8 H(1)   Bbb    -0.0045    -2.378    -0.849    -0.793  0.0773 -0.1260  0.9890
              Bcc     0.0115     6.118     2.183     2.041 -0.2364  0.9614  0.1409
 
              Baa    -0.0038    -2.020    -0.721    -0.674 -0.0156 -0.2906  0.9567
     9 H(1)   Bbb    -0.0015    -0.774    -0.276    -0.258  0.9975 -0.0701 -0.0050
              Bcc     0.0052     2.794     0.997     0.932  0.0685  0.9543  0.2910
 
              Baa    -0.0070    -3.740    -1.334    -1.247  0.9686 -0.2447  0.0443
    10 H(1)   Bbb    -0.0045    -2.378    -0.849    -0.793 -0.0771 -0.1260  0.9890
              Bcc     0.0115     6.118     2.183     2.041  0.2365  0.9614  0.1409
 
              Baa    -0.0523    -7.021    -2.505    -2.342  0.0000  0.9860 -0.1666
    11 C(13)  Bbb    -0.0440    -5.905    -2.107    -1.970  1.0000 -0.0000 -0.0001
              Bcc     0.0963    12.925     4.612     4.311  0.0001  0.1666  0.9860
 
              Baa    -0.0610    -8.191    -2.923    -2.732  0.9285 -0.3623  0.0813
    12 C(13)  Bbb    -0.0567    -7.604    -2.713    -2.537  0.3550  0.8020 -0.4804
              Bcc     0.1177    15.796     5.636     5.269  0.1089  0.4749  0.8733
 
              Baa    -0.0610    -8.192    -2.923    -2.732  0.9285  0.3622 -0.0814
    13 C(13)  Bbb    -0.0567    -7.605    -2.714    -2.537 -0.3550  0.8020 -0.4803
              Bcc     0.1177    15.797     5.637     5.269 -0.1087  0.4749  0.8733
 
              Baa    -0.0529    -7.092    -2.531    -2.366 -0.0886  0.3457  0.9342
    14 C(13)  Bbb     0.0246     3.300     1.177     1.101  0.0203  0.9383 -0.3453
              Bcc     0.0283     3.793     1.353     1.265  0.9959  0.0116  0.0901
 
              Baa    -0.0529    -7.093    -2.531    -2.366  0.0888  0.3456  0.9342
    15 C(13)  Bbb     0.0246     3.300     1.177     1.101 -0.0203  0.9383 -0.3452
              Bcc     0.0283     3.793     1.353     1.265  0.9958 -0.0117 -0.0903
 
              Baa    -0.1104   -14.816    -5.287    -4.942  0.0000  0.9401 -0.3410
    16 C(13)  Bbb    -0.1052   -14.114    -5.036    -4.708  1.0000 -0.0000 -0.0000
              Bcc     0.2156    28.930    10.323     9.650  0.0000  0.3410  0.9401
 
              Baa    -0.0053    -2.809    -1.002    -0.937  0.9634  0.2567  0.0773
    17 H(1)   Bbb    -0.0040    -2.129    -0.760    -0.710 -0.1413  0.2411  0.9602
              Bcc     0.0093     4.939     1.762     1.647 -0.2279  0.9359 -0.2685
 
              Baa    -0.0053    -2.810    -1.003    -0.937  0.9634 -0.2568 -0.0775
    18 H(1)   Bbb    -0.0040    -2.129    -0.760    -0.710  0.1414  0.2410  0.9602
              Bcc     0.0093     4.939     1.762     1.647  0.2279  0.9359 -0.2685
 
              Baa    -0.0029    -1.540    -0.549    -0.514 -0.0578  0.4220  0.9047
    19 H(1)   Bbb     0.0001     0.067     0.024     0.022  0.7149  0.6501 -0.2575
              Bcc     0.0028     1.473     0.526     0.491  0.6969 -0.6319  0.3393
 
              Baa    -0.0029    -1.540    -0.550    -0.514  0.0579  0.4220  0.9048
    20 H(1)   Bbb     0.0001     0.067     0.024     0.022  0.7149 -0.6501  0.2574
              Bcc     0.0028     1.473     0.526     0.491  0.6969  0.6319 -0.3393
 
              Baa    -0.0038    -2.020    -0.721    -0.674  0.0158 -0.2906  0.9567
    21 H(1)   Bbb    -0.0015    -0.774    -0.276    -0.258  0.9975  0.0700  0.0048
              Bcc     0.0052     2.794     0.997     0.932 -0.0684  0.9543  0.2910
 
              Baa    -0.0512    -6.870    -2.452    -2.292  0.0000  0.0114  0.9999
    22 C(13)  Bbb     0.0164     2.203     0.786     0.735 -0.0000  0.9999 -0.0114
              Bcc     0.0348     4.668     1.666     1.557  1.0000  0.0000 -0.0000
 
              Baa    -0.0141    -1.896    -0.677    -0.632  0.8181  0.3045 -0.4879
    23 C(13)  Bbb    -0.0026    -0.350    -0.125    -0.117 -0.2334  0.9511  0.2022
              Bcc     0.0167     2.246     0.801     0.749  0.5256 -0.0515  0.8491
 
              Baa    -0.0141    -1.897    -0.677    -0.633  0.8183 -0.3035  0.4882
    24 C(13)  Bbb    -0.0026    -0.353    -0.126    -0.118  0.2318  0.9514  0.2029
              Bcc     0.0168     2.250     0.803     0.750 -0.5260 -0.0529  0.8488
 
              Baa    -0.0971    -3.743    -1.336    -1.249  0.2276  0.9695  0.0904
    25 N(14)  Bbb    -0.0963    -3.713    -1.325    -1.238  0.9727 -0.2308  0.0261
              Bcc     0.1933     7.456     2.661     2.487 -0.0462 -0.0820  0.9956
 
              Baa    -0.0971    -3.743    -1.336    -1.249 -0.2277  0.9695  0.0907
    26 N(14)  Bbb    -0.0963    -3.713    -1.325    -1.238  0.9727  0.2308 -0.0256
              Bcc     0.1933     7.456     2.661     2.487  0.0457 -0.0823  0.9956
 
              Baa    -0.0020    -0.269    -0.096    -0.090  0.9118 -0.3803 -0.1547
    27 C(13)  Bbb    -0.0003    -0.035    -0.013    -0.012  0.1899  0.7248 -0.6622
              Bcc     0.0023     0.305     0.109     0.102  0.3640  0.5745  0.7331
 
              Baa    -0.0013    -0.704    -0.251    -0.235 -0.0378  0.3602  0.9321
    28 H(1)   Bbb    -0.0005    -0.285    -0.102    -0.095  0.9947 -0.0753  0.0695
              Bcc     0.0019     0.988     0.353     0.330  0.0952  0.9298 -0.3554
 
              Baa    -0.0016    -0.864    -0.308    -0.288 -0.0413 -0.1584  0.9865
    29 H(1)   Bbb     0.0003     0.163     0.058     0.055 -0.1006  0.9830  0.1536
              Bcc     0.0013     0.700     0.250     0.234  0.9941  0.0929  0.0565
 
              Baa    -0.0014    -0.729    -0.260    -0.243  0.1094 -0.4377  0.8924
    30 H(1)   Bbb    -0.0004    -0.201    -0.072    -0.067  0.9866  0.1572 -0.0439
              Bcc     0.0017     0.931     0.332     0.310 -0.1211  0.8853  0.4491
 
              Baa    -0.0025    -0.336    -0.120    -0.112  0.0978  0.9739  0.2047
    31 C(13)  Bbb    -0.0001    -0.014    -0.005    -0.005 -0.5006 -0.1297  0.8559
              Bcc     0.0026     0.349     0.125     0.117  0.8601 -0.1861  0.4749
 
              Baa    -0.0013    -0.684    -0.244    -0.228 -0.1630  0.3583  0.9193
    32 H(1)   Bbb    -0.0007    -0.380    -0.136    -0.127  0.5593  0.8011 -0.2131
              Bcc     0.0020     1.064     0.379     0.355  0.8128 -0.4794  0.3310
 
              Baa    -0.0012    -0.644    -0.230    -0.215  0.1818 -0.5412  0.8210
    33 H(1)   Bbb    -0.0009    -0.495    -0.177    -0.165  0.4319  0.7940  0.4277
              Bcc     0.0021     1.139     0.406     0.380  0.8834 -0.2769 -0.3781
 
              Baa    -0.0013    -0.690    -0.246    -0.230 -0.1908  0.0457  0.9806
    34 H(1)   Bbb    -0.0003    -0.175    -0.062    -0.058 -0.2213  0.9712 -0.0883
              Bcc     0.0016     0.865     0.309     0.289  0.9564  0.2338  0.1752
 
              Baa    -0.0020    -0.270    -0.096    -0.090  0.9120  0.3794  0.1555
    35 C(13)  Bbb    -0.0003    -0.036    -0.013    -0.012 -0.1892  0.7259 -0.6613
              Bcc     0.0023     0.306     0.109     0.102 -0.3638  0.5737  0.7338
 
              Baa    -0.0013    -0.704    -0.251    -0.235  0.0376  0.3592  0.9325
    36 H(1)   Bbb    -0.0005    -0.285    -0.102    -0.095  0.9948  0.0752 -0.0691
              Bcc     0.0019     0.990     0.353     0.330 -0.0950  0.9302 -0.3545
 
              Baa    -0.0016    -0.864    -0.308    -0.288  0.0414 -0.1587  0.9865
    37 H(1)   Bbb     0.0003     0.163     0.058     0.055  0.1003  0.9830  0.1539
              Bcc     0.0013     0.700     0.250     0.234  0.9941 -0.0925 -0.0566
 
              Baa    -0.0014    -0.729    -0.260    -0.243 -0.1103 -0.4388  0.8918
    38 H(1)   Bbb    -0.0004    -0.201    -0.072    -0.067  0.9865 -0.1579  0.0443
              Bcc     0.0017     0.930     0.332     0.310  0.1214  0.8846  0.4502
 
              Baa    -0.0025    -0.336    -0.120    -0.112 -0.0973  0.9733  0.2078
    39 C(13)  Bbb    -0.0001    -0.012    -0.004    -0.004  0.4974 -0.1333  0.8572
              Bcc     0.0026     0.348     0.124     0.116  0.8621  0.1867 -0.4712
 
              Baa    -0.0013    -0.684    -0.244    -0.228  0.1636  0.3517  0.9217
    40 H(1)   Bbb    -0.0007    -0.381    -0.136    -0.127 -0.5583  0.8033 -0.2074
              Bcc     0.0020     1.065     0.380     0.355  0.8134  0.4806 -0.3278
 
              Baa    -0.0012    -0.643    -0.229    -0.214 -0.1829 -0.5446  0.8185
    41 H(1)   Bbb    -0.0009    -0.495    -0.177    -0.165 -0.4313  0.7926  0.4310
              Bcc     0.0021     1.138     0.406     0.380  0.8835  0.2742  0.3798
 
              Baa    -0.0013    -0.691    -0.247    -0.231  0.1919  0.0453  0.9804
    42 H(1)   Bbb    -0.0003    -0.174    -0.062    -0.058  0.2202  0.9715 -0.0880
              Bcc     0.0016     0.865     0.309     0.289  0.9564 -0.2328 -0.1764
 

 ---------------------------------------------------------------------------------

 No NMR shielding tensors so no spin-rotation constants.
 Leave Link  601 at Thu Jan 21 04:54:08 2021, MaxMem=  4026531840 cpu:               4.8 elap:               0.7
 (Enter /opt/ohpc/pub/libs/gaussian/g16-A.03/sandybridge/g16/l9999.exe)

 Test job not archived.
 1\1\GINC-CASCADEB025\SP\ULC-wHPBE\TZVP\C19H21N2(2+,2)\RDU230\21-Jan-20
 21\0\\#P LC-wHPBE/TZVP iop(3/107=0208900000, 3/108=0208900000) scf=(co
 nver=6,fermi,ndamp=35,noincfock,novaracc,vshift=500,xqc)\\H21 C19 N2\\
 2,2\C,0,5.924302,-1.175178,0.28256\C,0,6.625626,0.000025,-0.000251\C,0
 ,4.530324,-1.177472,0.278212\C,0,5.924206,1.175202,-0.282951\C,0,3.810
 936,-0.000036,-0.000021\C,0,4.530233,1.177435,-0.278371\H,0,7.716547,0
 .000056,-0.000331\H,0,3.994064,-2.094974,0.527939\H,0,6.466302,2.09321
 ,-0.514746\H,0,3.99388,2.094904,-0.52801\C,0,2.333716,-0.000062,0.0001
 09\C,0,1.604784,1.119278,0.452707\C,0,1.604752,-1.119433,-0.452341\C,0
 ,0.21685,1.12577,0.449243\C,0,0.216813,-1.125977,-0.44867\C,0,-0.50491
 9,-0.000106,0.000309\H,0,2.141671,1.985727,0.840835\H,0,2.141597,-1.98
 5891,-0.840507\H,0,-0.315693,1.995203,0.838189\H,0,-0.315745,-1.995465
 ,-0.837475\H,0,6.466484,-2.093156,0.514265\C,0,-1.942874,-0.000086,0.0
 00402\C,0,-3.143323,-0.702637,-0.003392\C,0,-3.143127,0.702801,0.00391
 5\N,0,-3.78708,-1.855019,0.001668\N,0,-3.786774,1.855252,-0.001097\C,0
 ,-3.068411,-3.12252,0.167733\H,0,-3.187886,-3.74858,-0.728596\H,0,-2.0
 05788,-2.927607,0.341041\H,0,-3.471162,-3.663551,1.036238\C,0,-5.24512
 1,-1.94416,-0.100275\H,0,-5.509149,-2.713998,-0.838669\H,0,-5.688951,-
 2.217262,0.869111\H,0,-5.659251,-0.989594,-0.439085\C,0,-3.068047,3.12
 2616,-0.16813\H,0,-3.188116,3.749602,0.727455\H,0,-2.005304,2.927538,-
 0.340531\H,0,-3.470192,3.662707,-1.037509\C,0,-5.24495,1.944232,0.0993
 91\H,0,-5.509538,2.71844,0.832954\H,0,-5.688631,2.211256,-0.871774\H,0
 ,-5.658779,0.991638,0.444142\\Version=EM64L-G16RevA.03\State=2-A\HF=-8
 44.9916329\S2=0.780957\S2-1=0.\S2A=0.750621\RMSD=4.320e-08\Dipole=-1.1
 111143,0.0000461,-0.0008356\Quadrupole=87.0826122,-23.5494099,-63.5332
 023,-0.0001406,0.0046087,0.19398\PG=C01 [X(C19H21N2)]\\@


 Sacred cows make the best hamburger.
                               -- Mark Twain
 Job cpu time:       0 days  3 hours 48 minutes 12.9 seconds.
 Elapsed time:       0 days  0 hours 28 minutes 37.2 seconds.
 File lengths (MBytes):  RWF=    188 Int=      0 D2E=      0 Chk=     24 Scr=      8
 Normal termination of Gaussian 16 at Thu Jan 21 04:54:08 2021.
