 Entering Gaussian System, Link 0=g16
 Input=mol_bp_pa_whol_opt_0.gjf
 Output=mol_bp_pa_whol_opt_0.log
 Initial command:
 /opt/ohpc/pub/libs/gaussian/g16-A.03/sandybridge/g16/l1.exe "/mnt/gpfs2_4m/scratch/rdu230/ondemand/projects/init_structures/wtuning/mol_bp_pa_whol/Gau-14030.inp" -scrdir="/mnt/gpfs2_4m/scratch/rdu230/ondemand/projects/init_structures/wtuning/mol_bp_pa_whol/"
 Entering Link 1 = /opt/ohpc/pub/libs/gaussian/g16-A.03/sandybridge/g16/l1.exe PID=     14031.
  
 Copyright (c) 1988,1990,1992,1993,1995,1998,2003,2009,2016,
            Gaussian, Inc.  All Rights Reserved.
  
 This is part of the Gaussian(R) 16 program.  It is based on
 the Gaussian(R) 09 system (copyright 2009, Gaussian, Inc.),
 the Gaussian(R) 03 system (copyright 2003, Gaussian, Inc.),
 the Gaussian(R) 98 system (copyright 1998, Gaussian, Inc.),
 the Gaussian(R) 94 system (copyright 1995, Gaussian, Inc.),
 the Gaussian 92(TM) system (copyright 1992, Gaussian, Inc.),
 the Gaussian 90(TM) system (copyright 1990, Gaussian, Inc.),
 the Gaussian 88(TM) system (copyright 1988, Gaussian, Inc.),
 the Gaussian 86(TM) system (copyright 1986, Carnegie Mellon
 University), and the Gaussian 82(TM) system (copyright 1983,
 Carnegie Mellon University). Gaussian is a federally registered
 trademark of Gaussian, Inc.
  
 This software contains proprietary and confidential information,
 including trade secrets, belonging to Gaussian, Inc.
  
 This software is provided under written license and may be
 used, copied, transmitted, or stored only in accord with that
 written license.
  
 The following legend is applicable only to US Government
 contracts under FAR:
  
                    RESTRICTED RIGHTS LEGEND
  
 Use, reproduction and disclosure by the US Government is
 subject to restrictions as set forth in subparagraphs (a)
 and (c) of the Commercial Computer Software - Restricted
 Rights clause in FAR 52.227-19.
  
 Gaussian, Inc.
 340 Quinnipiac St., Bldg. 40, Wallingford CT 06492
  
  
 ---------------------------------------------------------------
 Warning -- This program may not be used in any manner that
 competes with the business of Gaussian, Inc. or will provide
 assistance to any competitor of Gaussian, Inc.  The licensee
 of this program is prohibited from giving any competitor of
 Gaussian, Inc. access to this program.  By using this program,
 the user acknowledges that Gaussian, Inc. is engaged in the
 business of creating and licensing software in the field of
 computational chemistry and represents and warrants to the
 licensee that it is not a competitor of Gaussian, Inc. and that
 it will not use this program in any manner prohibited above.
 ---------------------------------------------------------------
  

 Cite this work as:
 Gaussian 16, Revision A.03,
 M. J. Frisch, G. W. Trucks, H. B. Schlegel, G. E. Scuseria, 
 M. A. Robb, J. R. Cheeseman, G. Scalmani, V. Barone, 
 G. A. Petersson, H. Nakatsuji, X. Li, M. Caricato, A. V. Marenich, 
 J. Bloino, B. G. Janesko, R. Gomperts, B. Mennucci, H. P. Hratchian, 
 J. V. Ortiz, A. F. Izmaylov, J. L. Sonnenberg, D. Williams-Young, 
 F. Ding, F. Lipparini, F. Egidi, J. Goings, B. Peng, A. Petrone, 
 T. Henderson, D. Ranasinghe, V. G. Zakrzewski, J. Gao, N. Rega, 
 G. Zheng, W. Liang, M. Hada, M. Ehara, K. Toyota, R. Fukuda, 
 J. Hasegawa, M. Ishida, T. Nakajima, Y. Honda, O. Kitao, H. Nakai, 
 T. Vreven, K. Throssell, J. A. Montgomery, Jr., J. E. Peralta, 
 F. Ogliaro, M. J. Bearpark, J. J. Heyd, E. N. Brothers, K. N. Kudin, 
 V. N. Staroverov, T. A. Keith, R. Kobayashi, J. Normand, 
 K. Raghavachari, A. P. Rendell, J. C. Burant, S. S. Iyengar, 
 J. Tomasi, M. Cossi, J. M. Millam, M. Klene, C. Adamo, R. Cammi, 
 J. W. Ochterski, R. L. Martin, K. Morokuma, O. Farkas, 
 J. B. Foresman, and D. J. Fox, Gaussian, Inc., Wallingford CT, 2016.
 
 ******************************************
 Gaussian 16:  EM64L-G16RevA.03 25-Dec-2016
                17-Jan-2021 
 ******************************************
 %mem=30GB
 %nproc=8
 Will use up to    8 processors via shared memory.
 ------------------------------------------------------------
 #P LC-wHPBE/TZVP iop(3/107=0281800000, 3/108=0281800000) opt
 ------------------------------------------------------------
 1/18=20,19=15,26=3,38=1/1,3;
 2/9=110,12=2,17=6,18=5,40=1/2;
 3/5=19,7=101,11=2,25=1,30=1,71=1,74=-71,107=281800000,108=281800000/1,2,3;
 4//1;
 5/5=2,38=5/2;
 6/7=2,8=2,9=2,10=2,28=1/1;
 7//1,2,3,16;
 1/18=20,19=15,26=3/3(2);
 2/9=110/2;
 99//99;
 2/9=110/2;
 3/5=19,7=101,11=2,25=1,30=1,71=1,74=-71,107=281800000,108=281800000/1,2,3;
 4/5=5,16=3,69=1/1;
 5/5=2,38=5/2;
 7//1,2,3,16;
 1/18=20,19=15,26=3/3(-5);
 2/9=110/2;
 6/7=2,8=2,9=2,10=2,19=2,28=1/1;
 99/9=1/99;
 Leave Link    1 at Sun Jan 17 16:37:49 2021, MaxMem=  4026531840 cpu:               1.4 elap:               0.2
 (Enter /opt/ohpc/pub/libs/gaussian/g16-A.03/sandybridge/g16/l101.exe)
 ----------
 H28 C36 N2
 ----------
 Symbolic Z-matrix:
 Charge =  0 Multiplicity = 1
 C                    -0.12615  -0.39261  -1.42027 
 C                    -1.11646   0.39652  -0.9195 
 C                     1.13467  -0.42494  -0.67769 
 C                    -1.01748   1.15355   0.32904 
 C                     1.2573    0.291     0.58482 
 C                     0.20694   1.09423   1.06062 
 H                     1.92349  -1.08608  -1.05226 
 H                    -1.82077   1.75449   0.61509 
 H                     0.327     1.5814    1.9398 
 C                     2.55963   0.15016   1.2825 
 C                     2.75069   0.90875   2.47603 
 C                     3.64864  -0.58678   0.82868 
 C                     3.95664   0.75217   3.24129 
 C                     4.80727  -0.66637   1.58251 
 C                     5.00624   0.05001   2.76281 
 H                     1.94151   1.50054   2.8502 
 H                     3.50455  -1.1454   -0.02977 
 H                     4.07995   1.40438   4.13697 
 H                     5.67578  -1.32364   1.21251 
 H                    -0.23526  -0.95132  -2.34326 
 N                     6.16158  -0.01625   3.51782 
 C                     7.33677  -0.13642   2.79587 
 C                     8.25113  -1.13158   3.05929 
 C                     7.74138   0.84457   1.7747 
 C                     9.44157  -1.24293   2.35045 
 C                     8.91762   0.74587   1.06251 
 C                     9.81873  -0.32919   1.30842 
 H                     8.05887  -1.92472   3.86353 
 H                     7.078     1.61278   1.57925 
 H                     10.14454  -2.05601   2.52424 
 H                     9.09021   1.42868   0.30465 
 H                     10.73714  -0.44413   0.83632 
 C                     6.11921  -0.96334   4.72369 
 C                     6.99139  -0.72438   5.73833 
 C                     5.16756  -1.99034   4.71775 
 C                     6.95371  -1.65863   6.887 
 C                     5.19728  -2.88946   5.81435 
 C                     6.07667  -2.68507   6.86754 
 H                     7.67015   0.12008   5.77032 
 H                     4.49969  -2.19108   3.9123 
 H                     7.67945  -1.44125   7.65643 
 H                     4.51173  -3.66339   5.85391 
 H                     6.02297  -3.31266   7.73338 
 N                    -2.32665   0.80111  -1.62842 
 C                    -2.4961    2.27248  -1.93859 
 C                    -3.5515    3.04114  -1.46751 
 C                    -1.4379    2.89732  -2.71737 
 C                    -3.57066   4.36478  -1.68643 
 C                    -1.54934   4.26227  -3.03976 
 C                    -2.65071   5.0354   -2.49639 
 H                    -4.30947   2.51726  -0.80968 
 H                    -0.60551   2.30269  -3.10699 
 H                    -4.45843   4.98844  -1.36771 
 H                    -0.81109   4.65532  -3.59694 
 H                    -2.66018   6.0248   -2.76201 
 C                    -3.5977    0.34026  -0.96484 
 C                    -4.83699   0.25629  -1.76837 
 C                    -3.65914  -0.11786   0.36224 
 C                    -5.95599  -0.18565  -1.17784 
 C                    -4.80487  -0.56666   0.93606 
 C                    -5.94548  -0.64022   0.18642 
 H                    -4.86978   0.61005  -2.73279 
 H                    -2.72595  -0.13406   0.95406 
 H                    -6.87263  -0.20255  -1.69577 
 H                    -4.82211  -0.9128    1.93339 
 H                    -6.93073  -1.03092   0.59545 
 
 ITRead=  0  0  0  0  0  0  0  0  0  0  0  0  0  0  0  0  0  0  0  0
 ITRead=  0  0  0  0  0  0  0  0  0  0  0  0  0  0  0  0  0  0  0  0
 ITRead=  0  0  0  0  0  0  0  0  0  0  0  0  0  0  0  0  0  0  0  0
 ITRead=  0  0  0  0  0  0
 MicOpt= -1 -1 -1 -1 -1 -1 -1 -1 -1 -1 -1 -1 -1 -1 -1 -1 -1 -1 -1 -1
 MicOpt= -1 -1 -1 -1 -1 -1 -1 -1 -1 -1 -1 -1 -1 -1 -1 -1 -1 -1 -1 -1
 MicOpt= -1 -1 -1 -1 -1 -1 -1 -1 -1 -1 -1 -1 -1 -1 -1 -1 -1 -1 -1 -1
 MicOpt= -1 -1 -1 -1 -1 -1
 NAtoms=     66 NQM=       66 NQMF=       0 NMMI=      0 NMMIF=      0
                NMic=       0 NMicF=      0.
                    Isotopes and Nuclear Properties:
 (Nuclear quadrupole moments (NQMom) in fm**2, nuclear magnetic moments (NMagM)
  in nuclear magnetons)

  Atom         1           2           3           4           5           6           7           8           9          10
 IAtWgt=          12          12          12          12          12          12           1           1           1          12
 AtmWgt=  12.0000000  12.0000000  12.0000000  12.0000000  12.0000000  12.0000000   1.0078250   1.0078250   1.0078250  12.0000000
 NucSpn=           0           0           0           0           0           0           1           1           1           0
 AtZEff=  -0.0000000  -0.0000000  -0.0000000  -0.0000000  -0.0000000  -0.0000000  -0.0000000  -0.0000000  -0.0000000  -0.0000000
 NQMom=    0.0000000   0.0000000   0.0000000   0.0000000   0.0000000   0.0000000   0.0000000   0.0000000   0.0000000   0.0000000
 NMagM=    0.0000000   0.0000000   0.0000000   0.0000000   0.0000000   0.0000000   2.7928460   2.7928460   2.7928460   0.0000000
 AtZNuc=   6.0000000   6.0000000   6.0000000   6.0000000   6.0000000   6.0000000   1.0000000   1.0000000   1.0000000   6.0000000

  Atom        11          12          13          14          15          16          17          18          19          20
 IAtWgt=          12          12          12          12          12           1           1           1           1           1
 AtmWgt=  12.0000000  12.0000000  12.0000000  12.0000000  12.0000000   1.0078250   1.0078250   1.0078250   1.0078250   1.0078250
 NucSpn=           0           0           0           0           0           1           1           1           1           1
 AtZEff=  -0.0000000  -0.0000000  -0.0000000  -0.0000000  -0.0000000  -0.0000000  -0.0000000  -0.0000000  -0.0000000  -0.0000000
 NQMom=    0.0000000   0.0000000   0.0000000   0.0000000   0.0000000   0.0000000   0.0000000   0.0000000   0.0000000   0.0000000
 NMagM=    0.0000000   0.0000000   0.0000000   0.0000000   0.0000000   2.7928460   2.7928460   2.7928460   2.7928460   2.7928460
 AtZNuc=   6.0000000   6.0000000   6.0000000   6.0000000   6.0000000   1.0000000   1.0000000   1.0000000   1.0000000   1.0000000

  Atom        21          22          23          24          25          26          27          28          29          30
 IAtWgt=          14          12          12          12          12          12          12           1           1           1
 AtmWgt=  14.0030740  12.0000000  12.0000000  12.0000000  12.0000000  12.0000000  12.0000000   1.0078250   1.0078250   1.0078250
 NucSpn=           2           0           0           0           0           0           0           1           1           1
 AtZEff=  -0.0000000  -0.0000000  -0.0000000  -0.0000000  -0.0000000  -0.0000000  -0.0000000  -0.0000000  -0.0000000  -0.0000000
 NQMom=    2.0440000   0.0000000   0.0000000   0.0000000   0.0000000   0.0000000   0.0000000   0.0000000   0.0000000   0.0000000
 NMagM=    0.4037610   0.0000000   0.0000000   0.0000000   0.0000000   0.0000000   0.0000000   2.7928460   2.7928460   2.7928460
 AtZNuc=   7.0000000   6.0000000   6.0000000   6.0000000   6.0000000   6.0000000   6.0000000   1.0000000   1.0000000   1.0000000

  Atom        31          32          33          34          35          36          37          38          39          40
 IAtWgt=           1           1          12          12          12          12          12          12           1           1
 AtmWgt=   1.0078250   1.0078250  12.0000000  12.0000000  12.0000000  12.0000000  12.0000000  12.0000000   1.0078250   1.0078250
 NucSpn=           1           1           0           0           0           0           0           0           1           1
 AtZEff=  -0.0000000  -0.0000000  -0.0000000  -0.0000000  -0.0000000  -0.0000000  -0.0000000  -0.0000000  -0.0000000  -0.0000000
 NQMom=    0.0000000   0.0000000   0.0000000   0.0000000   0.0000000   0.0000000   0.0000000   0.0000000   0.0000000   0.0000000
 NMagM=    2.7928460   2.7928460   0.0000000   0.0000000   0.0000000   0.0000000   0.0000000   0.0000000   2.7928460   2.7928460
 AtZNuc=   1.0000000   1.0000000   6.0000000   6.0000000   6.0000000   6.0000000   6.0000000   6.0000000   1.0000000   1.0000000

  Atom        41          42          43          44          45          46          47          48          49          50
 IAtWgt=           1           1           1          14          12          12          12          12          12          12
 AtmWgt=   1.0078250   1.0078250   1.0078250  14.0030740  12.0000000  12.0000000  12.0000000  12.0000000  12.0000000  12.0000000
 NucSpn=           1           1           1           2           0           0           0           0           0           0
 AtZEff=  -0.0000000  -0.0000000  -0.0000000  -0.0000000  -0.0000000  -0.0000000  -0.0000000  -0.0000000  -0.0000000  -0.0000000
 NQMom=    0.0000000   0.0000000   0.0000000   2.0440000   0.0000000   0.0000000   0.0000000   0.0000000   0.0000000   0.0000000
 NMagM=    2.7928460   2.7928460   2.7928460   0.4037610   0.0000000   0.0000000   0.0000000   0.0000000   0.0000000   0.0000000
 AtZNuc=   1.0000000   1.0000000   1.0000000   7.0000000   6.0000000   6.0000000   6.0000000   6.0000000   6.0000000   6.0000000

  Atom        51          52          53          54          55          56          57          58          59          60
 IAtWgt=           1           1           1           1           1          12          12          12          12          12
 AtmWgt=   1.0078250   1.0078250   1.0078250   1.0078250   1.0078250  12.0000000  12.0000000  12.0000000  12.0000000  12.0000000
 NucSpn=           1           1           1           1           1           0           0           0           0           0
 AtZEff=  -0.0000000  -0.0000000  -0.0000000  -0.0000000  -0.0000000  -0.0000000  -0.0000000  -0.0000000  -0.0000000  -0.0000000
 NQMom=    0.0000000   0.0000000   0.0000000   0.0000000   0.0000000   0.0000000   0.0000000   0.0000000   0.0000000   0.0000000
 NMagM=    2.7928460   2.7928460   2.7928460   2.7928460   2.7928460   0.0000000   0.0000000   0.0000000   0.0000000   0.0000000
 AtZNuc=   1.0000000   1.0000000   1.0000000   1.0000000   1.0000000   6.0000000   6.0000000   6.0000000   6.0000000   6.0000000

  Atom        61          62          63          64          65          66
 IAtWgt=          12           1           1           1           1           1
 AtmWgt=  12.0000000   1.0078250   1.0078250   1.0078250   1.0078250   1.0078250
 NucSpn=           0           1           1           1           1           1
 AtZEff=  -0.0000000  -0.0000000  -0.0000000  -0.0000000  -0.0000000  -0.0000000
 NQMom=    0.0000000   0.0000000   0.0000000   0.0000000   0.0000000   0.0000000
 NMagM=    0.0000000   2.7928460   2.7928460   2.7928460   2.7928460   2.7928460
 AtZNuc=   6.0000000   1.0000000   1.0000000   1.0000000   1.0000000   1.0000000
 Leave Link  101 at Sun Jan 17 16:37:50 2021, MaxMem=  4026531840 cpu:               3.3 elap:               0.5
 (Enter /opt/ohpc/pub/libs/gaussian/g16-A.03/sandybridge/g16/l103.exe)

 GradGradGradGradGradGradGradGradGradGradGradGradGradGradGradGradGradGrad
 Berny optimization.
 Initialization pass.
                           ----------------------------
                           !    Initial Parameters    !
                           ! (Angstroms and Degrees)  !
 --------------------------                            --------------------------
 ! Name  Definition              Value          Derivative Info.                !
 --------------------------------------------------------------------------------
 ! R1    R(1,2)                  1.3617         estimate D2E/DX2                !
 ! R2    R(1,3)                  1.4636         estimate D2E/DX2                !
 ! R3    R(1,20)                 1.0844         estimate D2E/DX2                !
 ! R4    R(2,4)                  1.4635         estimate D2E/DX2                !
 ! R5    R(2,44)                 1.4597         estimate D2E/DX2                !
 ! R6    R(3,5)                  1.4565         estimate D2E/DX2                !
 ! R7    R(3,7)                  1.0953         estimate D2E/DX2                !
 ! R8    R(4,6)                  1.4276         estimate D2E/DX2                !
 ! R9    R(4,8)                  1.0432         estimate D2E/DX2                !
 ! R10   R(5,6)                  1.4053         estimate D2E/DX2                !
 ! R11   R(5,10)                 1.4841         estimate D2E/DX2                !
 ! R12   R(6,9)                  1.0123         estimate D2E/DX2                !
 ! R13   R(10,11)                1.4271         estimate D2E/DX2                !
 ! R14   R(10,12)                1.391          estimate D2E/DX2                !
 ! R15   R(11,13)                1.4368         estimate D2E/DX2                !
 ! R16   R(11,16)                1.07           estimate D2E/DX2                !
 ! R17   R(12,14)                1.3846         estimate D2E/DX2                !
 ! R18   R(12,17)                1.0343         estimate D2E/DX2                !
 ! R19   R(13,15)                1.3504         estimate D2E/DX2                !
 ! R20   R(13,18)                1.1148         estimate D2E/DX2                !
 ! R21   R(14,15)                1.395          estimate D2E/DX2                !
 ! R22   R(14,19)                1.1503         estimate D2E/DX2                !
 ! R23   R(15,21)                1.3818         estimate D2E/DX2                !
 ! R24   R(21,22)                1.3845         estimate D2E/DX2                !
 ! R25   R(21,33)                1.5339         estimate D2E/DX2                !
 ! R26   R(22,23)                1.3769         estimate D2E/DX2                !
 ! R27   R(22,24)                1.4727         estimate D2E/DX2                !
 ! R28   R(23,25)                1.39           estimate D2E/DX2                !
 ! R29   R(23,28)                1.1458         estimate D2E/DX2                !
 ! R30   R(24,26)                1.3786         estimate D2E/DX2                !
 ! R31   R(24,29)                1.0336         estimate D2E/DX2                !
 ! R32   R(25,27)                1.4363         estimate D2E/DX2                !
 ! R33   R(25,30)                1.0888         estimate D2E/DX2                !
 ! R34   R(26,27)                1.4242         estimate D2E/DX2                !
 ! R35   R(26,31)                1.0346         estimate D2E/DX2                !
 ! R36   R(27,32)                1.039          estimate D2E/DX2                !
 ! R37   R(33,34)                1.3592         estimate D2E/DX2                !
 ! R38   R(33,35)                1.4001         estimate D2E/DX2                !
 ! R39   R(34,36)                1.4811         estimate D2E/DX2                !
 ! R40   R(34,39)                1.0839         estimate D2E/DX2                !
 ! R41   R(35,37)                1.4184         estimate D2E/DX2                !
 ! R42   R(35,40)                1.0654         estimate D2E/DX2                !
 ! R43   R(36,38)                1.3502         estimate D2E/DX2                !
 ! R44   R(36,41)                1.0798         estimate D2E/DX2                !
 ! R45   R(37,38)                1.3872         estimate D2E/DX2                !
 ! R46   R(37,42)                1.0347         estimate D2E/DX2                !
 ! R47   R(38,43)                1.0707         estimate D2E/DX2                !
 ! R48   R(44,45)                1.5132         estimate D2E/DX2                !
 ! R49   R(44,56)                1.5061         estimate D2E/DX2                !
 ! R50   R(45,46)                1.388          estimate D2E/DX2                !
 ! R51   R(45,47)                1.4549         estimate D2E/DX2                !
 ! R52   R(46,48)                1.3418         estimate D2E/DX2                !
 ! R53   R(46,51)                1.1321         estimate D2E/DX2                !
 ! R54   R(47,49)                1.4069         estimate D2E/DX2                !
 ! R55   R(47,52)                1.0947         estimate D2E/DX2                !
 ! R56   R(48,50)                1.3972         estimate D2E/DX2                !
 ! R57   R(48,53)                1.1308         estimate D2E/DX2                !
 ! R58   R(49,50)                1.4512         estimate D2E/DX2                !
 ! R59   R(49,54)                1.005          estimate D2E/DX2                !
 ! R60   R(50,55)                1.0245         estimate D2E/DX2                !
 ! R61   R(56,57)                1.4794         estimate D2E/DX2                !
 ! R62   R(56,58)                1.4053         estimate D2E/DX2                !
 ! R63   R(57,59)                1.3402         estimate D2E/DX2                !
 ! R64   R(57,62)                1.0278         estimate D2E/DX2                !
 ! R65   R(58,60)                1.3577         estimate D2E/DX2                !
 ! R66   R(58,63)                1.1051         estimate D2E/DX2                !
 ! R67   R(59,61)                1.438          estimate D2E/DX2                !
 ! R68   R(59,64)                1.053          estimate D2E/DX2                !
 ! R69   R(60,61)                1.3669         estimate D2E/DX2                !
 ! R70   R(60,65)                1.0558         estimate D2E/DX2                !
 ! R71   R(61,66)                1.1361         estimate D2E/DX2                !
 ! A1    A(2,1,3)              116.9179         estimate D2E/DX2                !
 ! A2    A(2,1,20)             122.5757         estimate D2E/DX2                !
 ! A3    A(3,1,20)             120.4729         estimate D2E/DX2                !
 ! A4    A(1,2,4)              124.3562         estimate D2E/DX2                !
 ! A5    A(1,2,44)             125.8002         estimate D2E/DX2                !
 ! A6    A(4,2,44)             109.088          estimate D2E/DX2                !
 ! A7    A(1,3,5)              120.0957         estimate D2E/DX2                !
 ! A8    A(1,3,7)              117.4022         estimate D2E/DX2                !
 ! A9    A(5,3,7)              122.174          estimate D2E/DX2                !
 ! A10   A(2,4,6)              118.2762         estimate D2E/DX2                !
 ! A11   A(2,4,8)              118.6758         estimate D2E/DX2                !
 ! A12   A(6,4,8)              122.9473         estimate D2E/DX2                !
 ! A13   A(3,5,6)              120.7636         estimate D2E/DX2                !
 ! A14   A(3,5,10)             115.7661         estimate D2E/DX2                !
 ! A15   A(6,5,10)             123.4325         estimate D2E/DX2                !
 ! A16   A(4,6,5)              119.4268         estimate D2E/DX2                !
 ! A17   A(4,6,9)              121.791          estimate D2E/DX2                !
 ! A18   A(5,6,9)              118.7174         estimate D2E/DX2                !
 ! A19   A(5,10,11)            117.4005         estimate D2E/DX2                !
 ! A20   A(5,10,12)            125.7245         estimate D2E/DX2                !
 ! A21   A(11,10,12)           116.7218         estimate D2E/DX2                !
 ! A22   A(10,11,13)           119.9932         estimate D2E/DX2                !
 ! A23   A(10,11,16)           119.0251         estimate D2E/DX2                !
 ! A24   A(13,11,16)           120.5798         estimate D2E/DX2                !
 ! A25   A(10,12,14)           120.528          estimate D2E/DX2                !
 ! A26   A(10,12,17)           116.6057         estimate D2E/DX2                !
 ! A27   A(14,12,17)           122.5083         estimate D2E/DX2                !
 ! A28   A(11,13,15)           121.3523         estimate D2E/DX2                !
 ! A29   A(11,13,18)           117.1938         estimate D2E/DX2                !
 ! A30   A(15,13,18)           120.1914         estimate D2E/DX2                !
 ! A31   A(12,14,15)           123.4018         estimate D2E/DX2                !
 ! A32   A(12,14,19)           119.3103         estimate D2E/DX2                !
 ! A33   A(15,14,19)           117.2519         estimate D2E/DX2                !
 ! A34   A(13,15,14)           117.1271         estimate D2E/DX2                !
 ! A35   A(13,15,21)           118.7643         estimate D2E/DX2                !
 ! A36   A(14,15,21)           123.8464         estimate D2E/DX2                !
 ! A37   A(15,21,22)           115.4026         estimate D2E/DX2                !
 ! A38   A(15,21,33)           115.8531         estimate D2E/DX2                !
 ! A39   A(22,21,33)           112.3214         estimate D2E/DX2                !
 ! A40   A(21,22,23)           121.7809         estimate D2E/DX2                !
 ! A41   A(21,22,24)           122.4788         estimate D2E/DX2                !
 ! A42   A(23,22,24)           115.5723         estimate D2E/DX2                !
 ! A43   A(22,23,25)           121.9441         estimate D2E/DX2                !
 ! A44   A(22,23,28)           121.545          estimate D2E/DX2                !
 ! A45   A(25,23,28)           116.5008         estimate D2E/DX2                !
 ! A46   A(22,24,26)           123.0212         estimate D2E/DX2                !
 ! A47   A(22,24,29)           116.734          estimate D2E/DX2                !
 ! A48   A(26,24,29)           120.2058         estimate D2E/DX2                !
 ! A49   A(23,25,27)           122.9502         estimate D2E/DX2                !
 ! A50   A(23,25,30)           122.0992         estimate D2E/DX2                !
 ! A51   A(27,25,30)           114.9189         estimate D2E/DX2                !
 ! A52   A(24,26,27)           120.3113         estimate D2E/DX2                !
 ! A53   A(24,26,31)           118.2628         estimate D2E/DX2                !
 ! A54   A(27,26,31)           121.2745         estimate D2E/DX2                !
 ! A55   A(25,27,26)           116.0626         estimate D2E/DX2                !
 ! A56   A(25,27,32)           119.4309         estimate D2E/DX2                !
 ! A57   A(26,27,32)           124.3558         estimate D2E/DX2                !
 ! A58   A(21,33,34)           117.4254         estimate D2E/DX2                !
 ! A59   A(21,33,35)           117.9257         estimate D2E/DX2                !
 ! A60   A(34,33,35)           124.6305         estimate D2E/DX2                !
 ! A61   A(33,34,36)           116.8556         estimate D2E/DX2                !
 ! A62   A(33,34,39)           124.115          estimate D2E/DX2                !
 ! A63   A(36,34,39)           118.9778         estimate D2E/DX2                !
 ! A64   A(33,35,37)           116.5799         estimate D2E/DX2                !
 ! A65   A(33,35,40)           124.5748         estimate D2E/DX2                !
 ! A66   A(37,35,40)           118.5666         estimate D2E/DX2                !
 ! A67   A(34,36,38)           119.003          estimate D2E/DX2                !
 ! A68   A(34,36,41)           114.1136         estimate D2E/DX2                !
 ! A69   A(38,36,41)           126.8603         estimate D2E/DX2                !
 ! A70   A(35,37,38)           120.4547         estimate D2E/DX2                !
 ! A71   A(35,37,42)           119.33           estimate D2E/DX2                !
 ! A72   A(38,37,42)           120.0811         estimate D2E/DX2                !
 ! A73   A(36,38,37)           122.3247         estimate D2E/DX2                !
 ! A74   A(36,38,43)           117.8074         estimate D2E/DX2                !
 ! A75   A(37,38,43)           119.7219         estimate D2E/DX2                !
 ! A76   A(2,44,45)            117.5089         estimate D2E/DX2                !
 ! A77   A(2,44,56)            113.6335         estimate D2E/DX2                !
 ! A78   A(45,44,56)           107.0573         estimate D2E/DX2                !
 ! A79   A(44,45,46)           123.645          estimate D2E/DX2                !
 ! A80   A(44,45,47)           116.4785         estimate D2E/DX2                !
 ! A81   A(46,45,47)           119.7933         estimate D2E/DX2                !
 ! A82   A(45,46,48)           120.1185         estimate D2E/DX2                !
 ! A83   A(45,46,51)           116.7447         estimate D2E/DX2                !
 ! A84   A(48,46,51)           122.8015         estimate D2E/DX2                !
 ! A85   A(45,47,49)           118.7969         estimate D2E/DX2                !
 ! A86   A(45,47,52)           120.6844         estimate D2E/DX2                !
 ! A87   A(49,47,52)           120.3765         estimate D2E/DX2                !
 ! A88   A(46,48,50)           123.9647         estimate D2E/DX2                !
 ! A89   A(46,48,53)           120.6177         estimate D2E/DX2                !
 ! A90   A(50,48,53)           114.5579         estimate D2E/DX2                !
 ! A91   A(47,49,50)           119.4177         estimate D2E/DX2                !
 ! A92   A(47,49,54)           116.6346         estimate D2E/DX2                !
 ! A93   A(50,49,54)           123.8309         estimate D2E/DX2                !
 ! A94   A(48,50,49)           117.4557         estimate D2E/DX2                !
 ! A95   A(48,50,55)           127.4281         estimate D2E/DX2                !
 ! A96   A(49,50,55)           115.1157         estimate D2E/DX2                !
 ! A97   A(44,56,57)           119.0151         estimate D2E/DX2                !
 ! A98   A(44,56,58)           123.5547         estimate D2E/DX2                !
 ! A99   A(57,56,58)           117.2452         estimate D2E/DX2                !
 ! A100  A(56,57,59)           118.6091         estimate D2E/DX2                !
 ! A101  A(56,57,62)           121.1218         estimate D2E/DX2                !
 ! A102  A(59,57,62)           120.021          estimate D2E/DX2                !
 ! A103  A(56,58,60)           122.9413         estimate D2E/DX2                !
 ! A104  A(56,58,63)           118.2672         estimate D2E/DX2                !
 ! A105  A(60,58,63)           118.7754         estimate D2E/DX2                !
 ! A106  A(57,59,61)           121.0743         estimate D2E/DX2                !
 ! A107  A(57,59,64)           121.0238         estimate D2E/DX2                !
 ! A108  A(61,59,64)           117.8996         estimate D2E/DX2                !
 ! A109  A(58,60,61)           119.3517         estimate D2E/DX2                !
 ! A110  A(58,60,65)           121.4246         estimate D2E/DX2                !
 ! A111  A(61,60,65)           119.1288         estimate D2E/DX2                !
 ! A112  A(59,61,60)           120.6229         estimate D2E/DX2                !
 ! A113  A(59,61,66)           116.3555         estimate D2E/DX2                !
 ! A114  A(60,61,66)           123.0058         estimate D2E/DX2                !
 ! D1    D(3,1,2,4)             -2.8822         estimate D2E/DX2                !
 ! D2    D(3,1,2,44)           166.0594         estimate D2E/DX2                !
 ! D3    D(20,1,2,4)           179.2155         estimate D2E/DX2                !
 ! D4    D(20,1,2,44)          -11.8429         estimate D2E/DX2                !
 ! D5    D(2,1,3,5)              4.1825         estimate D2E/DX2                !
 ! D6    D(2,1,3,7)            177.7475         estimate D2E/DX2                !
 ! D7    D(20,1,3,5)          -177.8685         estimate D2E/DX2                !
 ! D8    D(20,1,3,7)            -4.3035         estimate D2E/DX2                !
 ! D9    D(1,2,4,6)              1.6703         estimate D2E/DX2                !
 ! D10   D(1,2,4,8)            178.1315         estimate D2E/DX2                !
 ! D11   D(44,2,4,6)          -168.8545         estimate D2E/DX2                !
 ! D12   D(44,2,4,8)             7.6066         estimate D2E/DX2                !
 ! D13   D(1,2,44,45)         -114.5922         estimate D2E/DX2                !
 ! D14   D(1,2,44,56)          119.3306         estimate D2E/DX2                !
 ! D15   D(4,2,44,45)           55.7619         estimate D2E/DX2                !
 ! D16   D(4,2,44,56)          -70.3153         estimate D2E/DX2                !
 ! D17   D(1,3,5,6)             -4.4486         estimate D2E/DX2                !
 ! D18   D(1,3,5,10)           177.7134         estimate D2E/DX2                !
 ! D19   D(7,3,5,6)           -177.6977         estimate D2E/DX2                !
 ! D20   D(7,3,5,10)             4.4644         estimate D2E/DX2                !
 ! D21   D(2,4,6,5)             -1.6899         estimate D2E/DX2                !
 ! D22   D(2,4,6,9)           -178.7245         estimate D2E/DX2                !
 ! D23   D(8,4,6,5)           -177.9898         estimate D2E/DX2                !
 ! D24   D(8,4,6,9)              4.9756         estimate D2E/DX2                !
 ! D25   D(3,5,6,4)              3.1515         estimate D2E/DX2                !
 ! D26   D(3,5,6,9)           -179.7224         estimate D2E/DX2                !
 ! D27   D(10,5,6,4)          -179.1817         estimate D2E/DX2                !
 ! D28   D(10,5,6,9)            -2.0556         estimate D2E/DX2                !
 ! D29   D(3,5,10,11)          175.8543         estimate D2E/DX2                !
 ! D30   D(3,5,10,12)            0.5193         estimate D2E/DX2                !
 ! D31   D(6,5,10,11)           -1.9195         estimate D2E/DX2                !
 ! D32   D(6,5,10,12)         -177.2545         estimate D2E/DX2                !
 ! D33   D(5,10,11,13)         176.124          estimate D2E/DX2                !
 ! D34   D(5,10,11,16)           3.3566         estimate D2E/DX2                !
 ! D35   D(12,10,11,13)         -8.1152         estimate D2E/DX2                !
 ! D36   D(12,10,11,16)        179.1174         estimate D2E/DX2                !
 ! D37   D(5,10,12,14)        -178.6923         estimate D2E/DX2                !
 ! D38   D(5,10,12,17)          -5.3915         estimate D2E/DX2                !
 ! D39   D(11,10,12,14)          5.9445         estimate D2E/DX2                !
 ! D40   D(11,10,12,17)        179.2453         estimate D2E/DX2                !
 ! D41   D(10,11,13,15)          9.8261         estimate D2E/DX2                !
 ! D42   D(10,11,13,18)        177.0103         estimate D2E/DX2                !
 ! D43   D(16,11,13,15)       -177.5204         estimate D2E/DX2                !
 ! D44   D(16,11,13,18)        -10.3362         estimate D2E/DX2                !
 ! D45   D(10,12,14,15)         -5.2563         estimate D2E/DX2                !
 ! D46   D(10,12,14,19)        176.9875         estimate D2E/DX2                !
 ! D47   D(17,12,14,15)       -178.1516         estimate D2E/DX2                !
 ! D48   D(17,12,14,19)          4.0922         estimate D2E/DX2                !
 ! D49   D(11,13,15,14)         -8.5296         estimate D2E/DX2                !
 ! D50   D(11,13,15,21)        177.1246         estimate D2E/DX2                !
 ! D51   D(18,13,15,14)       -175.3347         estimate D2E/DX2                !
 ! D52   D(18,13,15,21)         10.3194         estimate D2E/DX2                !
 ! D53   D(12,14,15,13)          6.3762         estimate D2E/DX2                !
 ! D54   D(12,14,15,21)       -179.5927         estimate D2E/DX2                !
 ! D55   D(19,14,15,13)       -175.8246         estimate D2E/DX2                !
 ! D56   D(19,14,15,21)         -1.7935         estimate D2E/DX2                !
 ! D57   D(13,15,21,22)       -149.6345         estimate D2E/DX2                !
 ! D58   D(13,15,21,33)         76.1524         estimate D2E/DX2                !
 ! D59   D(14,15,21,22)         36.4259         estimate D2E/DX2                !
 ! D60   D(14,15,21,33)        -97.7872         estimate D2E/DX2                !
 ! D61   D(15,21,22,23)       -127.601          estimate D2E/DX2                !
 ! D62   D(15,21,22,24)         57.3202         estimate D2E/DX2                !
 ! D63   D(33,21,22,23)          8.1911         estimate D2E/DX2                !
 ! D64   D(33,21,22,24)       -166.8877         estimate D2E/DX2                !
 ! D65   D(15,21,33,34)       -156.9847         estimate D2E/DX2                !
 ! D66   D(15,21,33,35)         21.5239         estimate D2E/DX2                !
 ! D67   D(22,21,33,34)         67.4342         estimate D2E/DX2                !
 ! D68   D(22,21,33,35)       -114.0572         estimate D2E/DX2                !
 ! D69   D(21,22,23,25)       -178.9839         estimate D2E/DX2                !
 ! D70   D(21,22,23,28)          2.2135         estimate D2E/DX2                !
 ! D71   D(24,22,23,25)         -3.5855         estimate D2E/DX2                !
 ! D72   D(24,22,23,28)        177.6119         estimate D2E/DX2                !
 ! D73   D(21,22,24,26)        179.075          estimate D2E/DX2                !
 ! D74   D(21,22,24,29)         -3.1972         estimate D2E/DX2                !
 ! D75   D(23,22,24,26)          3.7121         estimate D2E/DX2                !
 ! D76   D(23,22,24,29)       -178.5601         estimate D2E/DX2                !
 ! D77   D(22,23,25,27)          0.8047         estimate D2E/DX2                !
 ! D78   D(22,23,25,30)       -177.0436         estimate D2E/DX2                !
 ! D79   D(28,23,25,27)        179.6645         estimate D2E/DX2                !
 ! D80   D(28,23,25,30)          1.8162         estimate D2E/DX2                !
 ! D81   D(22,24,26,27)         -0.8886         estimate D2E/DX2                !
 ! D82   D(22,24,26,31)        174.6968         estimate D2E/DX2                !
 ! D83   D(29,24,26,27)       -178.5404         estimate D2E/DX2                !
 ! D84   D(29,24,26,31)         -2.955          estimate D2E/DX2                !
 ! D85   D(23,25,27,26)          2.143          estimate D2E/DX2                !
 ! D86   D(23,25,27,32)        177.8755         estimate D2E/DX2                !
 ! D87   D(30,25,27,26)       -179.8667         estimate D2E/DX2                !
 ! D88   D(30,25,27,32)         -4.1343         estimate D2E/DX2                !
 ! D89   D(24,26,27,25)         -2.0008         estimate D2E/DX2                !
 ! D90   D(24,26,27,32)       -177.4981         estimate D2E/DX2                !
 ! D91   D(31,26,27,25)       -177.4512         estimate D2E/DX2                !
 ! D92   D(31,26,27,32)          7.0515         estimate D2E/DX2                !
 ! D93   D(21,33,34,36)       -179.0989         estimate D2E/DX2                !
 ! D94   D(21,33,34,39)          3.5459         estimate D2E/DX2                !
 ! D95   D(35,33,34,36)          2.5026         estimate D2E/DX2                !
 ! D96   D(35,33,34,39)       -174.8526         estimate D2E/DX2                !
 ! D97   D(21,33,35,37)        176.9436         estimate D2E/DX2                !
 ! D98   D(21,33,35,40)          3.1143         estimate D2E/DX2                !
 ! D99   D(34,33,35,37)         -4.6653         estimate D2E/DX2                !
 ! D100  D(34,33,35,40)       -178.4946         estimate D2E/DX2                !
 ! D101  D(33,34,36,38)          0.3018         estimate D2E/DX2                !
 ! D102  D(33,34,36,41)        178.6716         estimate D2E/DX2                !
 ! D103  D(39,34,36,38)        177.7988         estimate D2E/DX2                !
 ! D104  D(39,34,36,41)         -3.8314         estimate D2E/DX2                !
 ! D105  D(33,35,37,38)          4.0905         estimate D2E/DX2                !
 ! D106  D(33,35,37,42)        179.8829         estimate D2E/DX2                !
 ! D107  D(40,35,37,38)        178.3066         estimate D2E/DX2                !
 ! D108  D(40,35,37,42)         -5.9009         estimate D2E/DX2                !
 ! D109  D(34,36,38,37)         -0.6861         estimate D2E/DX2                !
 ! D110  D(34,36,38,43)       -176.2783         estimate D2E/DX2                !
 ! D111  D(41,36,38,37)       -178.8263         estimate D2E/DX2                !
 ! D112  D(41,36,38,43)          5.5815         estimate D2E/DX2                !
 ! D113  D(35,37,38,36)         -1.5951         estimate D2E/DX2                !
 ! D114  D(35,37,38,43)        173.9153         estimate D2E/DX2                !
 ! D115  D(42,37,38,36)       -177.3559         estimate D2E/DX2                !
 ! D116  D(42,37,38,43)         -1.8455         estimate D2E/DX2                !
 ! D117  D(2,44,45,46)        -119.4596         estimate D2E/DX2                !
 ! D118  D(2,44,45,47)          57.2104         estimate D2E/DX2                !
 ! D119  D(56,44,45,46)          9.7802         estimate D2E/DX2                !
 ! D120  D(56,44,45,47)       -173.5498         estimate D2E/DX2                !
 ! D121  D(2,44,56,57)        -159.0347         estimate D2E/DX2                !
 ! D122  D(2,44,56,58)          15.8819         estimate D2E/DX2                !
 ! D123  D(45,44,56,57)         69.5408         estimate D2E/DX2                !
 ! D124  D(45,44,56,58)       -115.5426         estimate D2E/DX2                !
 ! D125  D(44,45,46,48)        174.0698         estimate D2E/DX2                !
 ! D126  D(44,45,46,51)          0.5332         estimate D2E/DX2                !
 ! D127  D(47,45,46,48)         -2.4954         estimate D2E/DX2                !
 ! D128  D(47,45,46,51)       -176.0319         estimate D2E/DX2                !
 ! D129  D(44,45,47,49)        179.6688         estimate D2E/DX2                !
 ! D130  D(44,45,47,52)          3.9888         estimate D2E/DX2                !
 ! D131  D(46,45,47,49)         -3.5255         estimate D2E/DX2                !
 ! D132  D(46,45,47,52)       -179.2055         estimate D2E/DX2                !
 ! D133  D(45,46,48,50)          7.0812         estimate D2E/DX2                !
 ! D134  D(45,46,48,53)        175.8785         estimate D2E/DX2                !
 ! D135  D(51,46,48,50)       -179.7876         estimate D2E/DX2                !
 ! D136  D(51,46,48,53)        -10.9903         estimate D2E/DX2                !
 ! D137  D(45,47,49,50)          5.1775         estimate D2E/DX2                !
 ! D138  D(45,47,49,54)       -178.6013         estimate D2E/DX2                !
 ! D139  D(52,47,49,50)       -179.1288         estimate D2E/DX2                !
 ! D140  D(52,47,49,54)         -2.9076         estimate D2E/DX2                !
 ! D141  D(46,48,50,49)         -5.2366         estimate D2E/DX2                !
 ! D142  D(46,48,50,55)        174.5107         estimate D2E/DX2                !
 ! D143  D(53,48,50,49)       -174.644          estimate D2E/DX2                !
 ! D144  D(53,48,50,55)          5.1033         estimate D2E/DX2                !
 ! D145  D(47,49,50,48)         -1.1038         estimate D2E/DX2                !
 ! D146  D(47,49,50,55)        179.1178         estimate D2E/DX2                !
 ! D147  D(54,49,50,48)       -177.037          estimate D2E/DX2                !
 ! D148  D(54,49,50,55)          3.1846         estimate D2E/DX2                !
 ! D149  D(44,56,57,59)        178.4043         estimate D2E/DX2                !
 ! D150  D(44,56,57,62)         -7.3168         estimate D2E/DX2                !
 ! D151  D(58,56,57,59)          3.1685         estimate D2E/DX2                !
 ! D152  D(58,56,57,62)        177.4473         estimate D2E/DX2                !
 ! D153  D(44,56,58,60)       -178.0482         estimate D2E/DX2                !
 ! D154  D(44,56,58,63)          0.4726         estimate D2E/DX2                !
 ! D155  D(57,56,58,60)         -3.0481         estimate D2E/DX2                !
 ! D156  D(57,56,58,63)        175.4727         estimate D2E/DX2                !
 ! D157  D(56,57,59,61)         -3.3872         estimate D2E/DX2                !
 ! D158  D(56,57,59,64)        176.043          estimate D2E/DX2                !
 ! D159  D(62,57,59,61)       -177.7309         estimate D2E/DX2                !
 ! D160  D(62,57,59,64)          1.6993         estimate D2E/DX2                !
 ! D161  D(56,58,60,61)          3.0816         estimate D2E/DX2                !
 ! D162  D(56,58,60,65)        179.5081         estimate D2E/DX2                !
 ! D163  D(63,58,60,61)       -175.432          estimate D2E/DX2                !
 ! D164  D(63,58,60,65)          0.9945         estimate D2E/DX2                !
 ! D165  D(57,59,61,60)          3.4267         estimate D2E/DX2                !
 ! D166  D(57,59,61,66)       -177.9752         estimate D2E/DX2                !
 ! D167  D(64,59,61,60)       -176.0208         estimate D2E/DX2                !
 ! D168  D(64,59,61,66)          2.5773         estimate D2E/DX2                !
 ! D169  D(58,60,61,59)         -3.1082         estimate D2E/DX2                !
 ! D170  D(58,60,61,66)        178.3898         estimate D2E/DX2                !
 ! D171  D(65,60,61,59)       -179.6175         estimate D2E/DX2                !
 ! D172  D(65,60,61,66)          1.8805         estimate D2E/DX2                !
 --------------------------------------------------------------------------------
 Trust Radius=3.00D-01 FncErr=1.00D-07 GrdErr=1.00D-06 EigMax=2.50D+02 EigMin=1.00D-04
 Number of steps in this run=    367 maximum allowed number of steps=    396.
 GradGradGradGradGradGradGradGradGradGradGradGradGradGradGradGradGradGrad

 Leave Link  103 at Sun Jan 17 16:37:50 2021, MaxMem=  4026531840 cpu:               0.1 elap:               0.0
 (Enter /opt/ohpc/pub/libs/gaussian/g16-A.03/sandybridge/g16/l202.exe)
 Stoichiometry    C36H28N2
 Framework group  C1[X(C36H28N2)]
 Deg. of freedom   192
 Full point group                 C1      NOp   1
 Largest Abelian subgroup         C1      NOp   1
 Largest concise Abelian subgroup C1      NOp   1
                         Standard orientation:                         
 ---------------------------------------------------------------------
 Center     Atomic      Atomic             Coordinates (Angstroms)
 Number     Number       Type             X           Y           Z
 ---------------------------------------------------------------------
      1          6           0        2.705538   -0.427248   -1.922538
      2          6           0        3.530728   -0.103749   -0.888798
      3          6           0        1.271494   -0.478846   -1.634455
      4          6           0        3.071551    0.249099    0.455225
      5          6           0        0.777244   -0.103255   -0.316812
      6          6           0        1.668901    0.222353    0.719410
      7          1           0        0.597437   -0.701110   -2.468650
      8          1           0        3.783442    0.453536    1.189829
      9          1           0        1.291741    0.474891    1.624221
     10          6           0       -0.696546   -0.140393   -0.145884
     11          6           0       -1.213823    0.132869    1.155749
     12          6           0       -1.618282   -0.507459   -1.120888
     13          6           0       -2.633847    0.194039    1.366054
     14          6           0       -2.976136   -0.477614   -0.851855
     15          6           0       -3.503348   -0.192148    0.407687
     16          1           0       -0.535539    0.404635    1.937452
     17          1           0       -1.242950   -0.693380   -2.066571
     18          1           0       -2.987570    0.359671    2.410210
     19          1           0       -3.721857   -0.735116   -1.688989
     20          1           0        3.076979   -0.672380   -2.911427
     21          7           0       -4.856094   -0.167822    0.688280
     22          6           0       -5.617320   -1.115171    0.025118
     23          6           0       -6.737559   -0.769364   -0.696891
     24          6           0       -5.349195   -2.559474    0.129623
     25          6           0       -7.516014   -1.719945   -1.346814
     26          6           0       -6.111124   -3.513289   -0.510844
     27          6           0       -7.228381   -3.126531   -1.304817
     28          1           0       -7.064735    0.322958   -0.809233
     29          1           0       -4.525323   -2.840314    0.687108
     30          1           0       -8.374866   -1.445355   -1.957086
     31          1           0       -5.808235   -4.500955   -0.454776
     32          1           0       -7.866177   -3.792582   -1.783522
     33          6           0       -5.515510    1.217110    0.683020
     34          6           0       -6.665156    1.365775    1.392602
     35          6           0       -4.877655    2.244395   -0.022826
     36          6           0       -7.302126    2.702569    1.362101
     37          6           0       -5.545343    3.495101   -0.064848
     38          6           0       -6.724514    3.686673    0.640260
     39          1           0       -7.109205    0.586260    2.000899
     40          1           0       -3.988926    2.121768   -0.597485
     41          1           0       -8.223595    2.765037    1.921540
     42          1           0       -5.111107    4.284596   -0.573427
     43          1           0       -7.166825    4.660936    0.680242
     44          7           0        4.980812   -0.270153   -0.869484
     45          6           0        5.557341   -1.262995    0.116291
     46          6           0        6.448472   -0.918068    1.123027
     47          6           0        5.073558   -2.631482    0.016705
     48          6           0        6.823928   -1.831052    2.031767
     49          6           0        5.582427   -3.596538    0.905051
     50          6           0        6.484803   -3.184763    1.964366
     51          1           0        6.737648    0.174124    1.195285
     52          1           0        4.380647   -2.922493   -0.779200
     53          1           0        7.601445   -1.579697    2.813390
     54          1           0        5.242103   -4.535519    0.793458
     55          1           0        6.803961   -3.938049    2.581010
     56          6           0        5.734355    1.021142   -0.687793
     57          6           0        7.151504    1.090013   -1.106719
     58          6           0        5.139428    2.210260   -0.232998
     59          6           0        7.804949    2.252284   -0.971363
     60          6           0        5.822158    3.377400   -0.110270
     61          6           0        7.131456    3.431804   -0.499061
     62          1           0        7.656585    0.248698   -1.412349
     63          1           0        4.061872    2.195966    0.011991
     64          1           0        8.830184    2.328207   -1.199197
     65          1           0        5.349080    4.259051    0.226880
     66          1           0        7.753036    4.381429   -0.448661
 ---------------------------------------------------------------------
 Rotational constants (GHZ):           0.2037461           0.0351372           0.0319198
 Leave Link  202 at Sun Jan 17 16:37:50 2021, MaxMem=  4026531840 cpu:               0.3 elap:               0.1
 (Enter /opt/ohpc/pub/libs/gaussian/g16-A.03/sandybridge/g16/l301.exe)
 Standard basis: TZVP (5D, 7F)
 Ernie: Thresh=  0.10000D-02 Tol=  0.10000D-05 Strict=F.
 There are   928 symmetry adapted cartesian basis functions of A   symmetry.
 There are   890 symmetry adapted basis functions of A   symmetry.
   890 basis functions,  1554 primitive gaussians,   928 cartesian basis functions
   129 alpha electrons      129 beta electrons
       nuclear repulsion energy      3541.7028163855 Hartrees.
 IExCor=33909 DFT=T Ex+Corr=LC-wHPBE ExCW=0 ScaHFX=  1.000000
 ScaDFX=  1.000000  1.000000  1.000000  1.000000 ScalE2=  1.000000  1.000000
 IRadAn=      5 IRanWt=     -1 IRanGd=            0 ICorTp=0 IEmpDi=  4
 HFx  wShort=  0.000000 wLong=  0.281800 cFull=  0.000000 cShort=  0.000000 cLong=  1.000000
 DFx  wShort=  0.000000 wLong=  0.281800 cFull=  0.000000 cShort=  1.000000 cLong=  0.000000
 NAtoms=   66 NActive=   66 NUniq=   66 SFac= 1.00D+00 NAtFMM=   60 NAOKFM=T Big=T
 Integral buffers will be    131072 words long.
 Raffenetti 2 integral format.
 Two-electron integral symmetry is turned on.
 Leave Link  301 at Sun Jan 17 16:37:50 2021, MaxMem=  4026531840 cpu:               0.6 elap:               0.1
 (Enter /opt/ohpc/pub/libs/gaussian/g16-A.03/sandybridge/g16/l302.exe)
 NPDir=0 NMtPBC=     1 NCelOv=     1 NCel=       1 NClECP=     1 NCelD=      1
         NCelK=      1 NCelE2=     1 NClLst=     1 CellRange=     0.0.
 One-electron integrals computed using PRISM.
 One-electron integral symmetry used in STVInt
 NBasis=   890 RedAO= T EigKep=  1.02D-05  NBF=   890
 NBsUse=   890 1.00D-06 EigRej= -1.00D+00 NBFU=   890
 Precomputing XC quadrature grid using
 IXCGrd= 4 IRadAn=           5 IRanWt=          -1 IRanGd=           0 AccXCQ= 0.00D+00.
 Generated NRdTot=       0 NPtTot=           0 NUsed=           0 NTot=          32
 NSgBfM=   866   863   863   864   866 MxSgAt=    66 MxSgA2=    66.
 Leave Link  302 at Sun Jan 17 16:37:53 2021, MaxMem=  4026531840 cpu:              22.0 elap:               2.8
 (Enter /opt/ohpc/pub/libs/gaussian/g16-A.03/sandybridge/g16/l303.exe)
 DipDrv:  MaxL=1.
 Leave Link  303 at Sun Jan 17 16:37:54 2021, MaxMem=  4026531840 cpu:               1.4 elap:               0.2
 (Enter /opt/ohpc/pub/libs/gaussian/g16-A.03/sandybridge/g16/l401.exe)
 ExpMin= 9.52D-02 ExpMax= 1.97D+04 ExpMxC= 6.73D+02 IAcc=3 IRadAn=         5 AccDes= 0.00D+00
 Harris functional with IExCor=33909 and IRadAn=       5 diagonalized for initial guess.
 HarFok:  IExCor=33909 AccDes= 0.00D+00 IRadAn=         5 IDoV= 1 UseB2=F ITyADJ=14
 ICtDFT=  3500011 ScaDFX=  1.000000  1.000000  1.000000  1.000000
 FoFCou: FMM=F IPFlag=           0 FMFlag=      100000 FMFlg1=        2001
         NFxFlg=           0 DoJE=T BraDBF=F KetDBF=T FulRan=T
         wScrn=  0.000000 ICntrl=       500 IOpCl=  0 I1Cent=   200000004 NGrid=           0
         NMat0=    1 NMatS0=      1 NMatT0=    0 NMatD0=    1 NMtDS0=    0 NMtDT0=    0
 Petite list used in FoFCou.
 Harris En= -1459.71202741985    
 JPrj=0 DoOrth=F DoCkMO=F.
 Leave Link  401 at Sun Jan 17 16:38:06 2021, MaxMem=  4026531840 cpu:             101.9 elap:              12.8
 (Enter /opt/ohpc/pub/libs/gaussian/g16-A.03/sandybridge/g16/l502.exe)
 Integral symmetry usage will be decided dynamically.
 Closed shell SCF:
 Using DIIS extrapolation, IDIIS=  1040.
 NGot=  4026531840 LenX=  4024793050 LenY=  4023930938
 Requested convergence on RMS density matrix=1.00D-08 within 128 cycles.
 Requested convergence on MAX density matrix=1.00D-06.
 Requested convergence on             energy=1.00D-06.
 No special actions if energy rises.
 Fock matrices will be formed incrementally for  20 cycles.
 Integral accuracy reduced to 1.0D-05 until final iterations.

 Cycle   1  Pass 0  IDiag  1:
 FoFJK:  IHMeth= 1 ICntrl=       0 DoSepK=T KAlg= 0 I1Cent=           0 FoldK=F
 IRaf=         1 NMat=       1 IRICut=       1 DoRegI=T DoRafI=F ISym2E= 0 IDoP0=0 IntGTp=1.
 FoFCou: FMM=T IPFlag=           0 FMFlag=      100000 FMFlg1=        2001
         NFxFlg=           0 DoJE=T BraDBF=F KetDBF=F FulRan=T
         wScrn=  0.000000 ICntrl=       500 IOpCl=  0 I1Cent=           0 NGrid=           0
         NMat0=    1 NMatS0=      1 NMatT0=    0 NMatD0=    1 NMtDS0=    0 NMtDT0=    0
 Symmetry not used in FoFCou.
 FMM levels:  10  Number of levels for PrismC:   9
 E= -1496.72008227269    
 DIIS: error= 1.81D-02 at cycle   1 NSaved=   1.
 NSaved= 1 IEnMin= 1 EnMin= -1496.72008227269     IErMin= 1 ErrMin= 1.81D-02
 ErrMax= 1.81D-02  0.00D+00 EMaxC= 1.00D-01 BMatC= 5.28D-01 BMatP= 5.28D-01
 IDIUse=3 WtCom= 8.19D-01 WtEn= 1.81D-01
 Coeff-Com:  0.100D+01
 Coeff-En:   0.100D+01
 Coeff:      0.100D+01
 Gap=     0.291 Goal=   None    Shift=    0.000
 GapD=    0.291 DampG=1.000 DampE=0.500 DampFc=0.5000 IDamp=-1.
 Damping current iteration by 5.00D-01
 RMSDP=6.94D+01 MaxDP=6.92D+03              OVMax= 9.92D-01

 Problem detected with inexpensive integrals.
 Switching to full accuracy and repeating last cycle.
 Cycle   2  Pass 1  IDiag  1:
 E= -1496.72013094479     Delta-E=       -0.000048672104 Rises=F Damp=F
 DIIS: error= 1.81D-02 at cycle   1 NSaved=   1.
 NSaved= 1 IEnMin= 1 EnMin= -1496.72013094479     IErMin= 1 ErrMin= 1.81D-02
 ErrMax= 1.81D-02  0.00D+00 EMaxC= 1.00D-01 BMatC= 5.27D-01 BMatP= 5.27D-01
 IDIUse=3 WtCom= 8.19D-01 WtEn= 1.81D-01
 Coeff-Com:  0.100D+01
 Coeff-En:   0.100D+01
 Coeff:      0.100D+01
 Gap=     0.291 Goal=   None    Shift=    0.000
 GapD=    0.291 DampG=1.000 DampE=0.500 DampFc=0.5000 IDamp=-1.
 Damping current iteration by 5.00D-01
 RMSDP=5.26D-03 MaxDP=4.04D-01 DE=-4.87D-05 OVMax= 1.66D-01

 Cycle   3  Pass 1  IDiag  1:
 RMSU=  2.38D-03    CP:  8.94D-01
 E= -1496.97660879468     Delta-E=       -0.256477849891 Rises=F Damp=T
 DIIS: error= 4.66D-03 at cycle   2 NSaved=   2.
 NSaved= 2 IEnMin= 2 EnMin= -1496.97660879468     IErMin= 2 ErrMin= 4.66D-03
 ErrMax= 4.66D-03  0.00D+00 EMaxC= 1.00D-01 BMatC= 4.31D-02 BMatP= 5.27D-01
 IDIUse=3 WtCom= 9.53D-01 WtEn= 4.66D-02
 Coeff-Com: -0.718D-01 0.107D+01
 Coeff-En:   0.000D+00 0.100D+01
 Coeff:     -0.684D-01 0.107D+01
 Gap=     0.289 Goal=   None    Shift=    0.000
 GapD=    0.289 DampG=1.000 DampE=1.000 DampFc=1.0000 IDamp=-1.
 RMSDP=2.88D-03 MaxDP=2.46D-01 DE=-2.56D-01 OVMax= 1.14D-01

 Cycle   4  Pass 1  IDiag  1:
 RMSU=  2.13D-03    CP:  7.29D-01  6.45D-01
 E= -1497.20915442595     Delta-E=       -0.232545631270 Rises=F Damp=F
 DIIS: error= 5.68D-03 at cycle   3 NSaved=   3.
 NSaved= 3 IEnMin= 3 EnMin= -1497.20915442595     IErMin= 2 ErrMin= 4.66D-03
 ErrMax= 5.68D-03  0.00D+00 EMaxC= 1.00D-01 BMatC= 2.69D-02 BMatP= 4.31D-02
 IDIUse=3 WtCom= 9.43D-01 WtEn= 5.68D-02
 Coeff-Com: -0.925D-01 0.503D+00 0.589D+00
 Coeff-En:   0.000D+00 0.000D+00 0.100D+01
 Coeff:     -0.873D-01 0.475D+00 0.612D+00
 Gap=     0.293 Goal=   None    Shift=    0.000
 RMSDP=9.24D-04 MaxDP=5.75D-02 DE=-2.33D-01 OVMax= 5.18D-02

 Cycle   5  Pass 1  IDiag  1:
 RMSU=  8.87D-04    CP:  7.07D-01  6.81D-01  9.73D-01
 E= -1497.23288672370     Delta-E=       -0.023732297743 Rises=F Damp=F
 DIIS: error= 1.64D-03 at cycle   4 NSaved=   4.
 NSaved= 4 IEnMin= 4 EnMin= -1497.23288672370     IErMin= 4 ErrMin= 1.64D-03
 ErrMax= 1.64D-03  0.00D+00 EMaxC= 1.00D-01 BMatC= 3.32D-03 BMatP= 2.69D-02
 IDIUse=3 WtCom= 9.84D-01 WtEn= 1.64D-02
 Coeff-Com: -0.193D-01 0.752D-01 0.286D+00 0.658D+00
 Coeff-En:   0.000D+00 0.000D+00 0.612D-01 0.939D+00
 Coeff:     -0.190D-01 0.740D-01 0.283D+00 0.662D+00
 Gap=     0.281 Goal=   None    Shift=    0.000
 RMSDP=3.25D-04 MaxDP=2.63D-02 DE=-2.37D-02 OVMax= 1.08D-02

 Cycle   6  Pass 1  IDiag  1:
 RMSU=  1.30D-04    CP:  6.98D-01  7.00D-01  1.03D+00  7.14D-01
 E= -1497.23604496653     Delta-E=       -0.003158242829 Rises=F Damp=F
 DIIS: error= 2.76D-04 at cycle   5 NSaved=   5.
 NSaved= 5 IEnMin= 5 EnMin= -1497.23604496653     IErMin= 5 ErrMin= 2.76D-04
 ErrMax= 2.76D-04  0.00D+00 EMaxC= 1.00D-01 BMatC= 1.36D-04 BMatP= 3.32D-03
 IDIUse=3 WtCom= 9.97D-01 WtEn= 2.76D-03
 Coeff-Com: -0.241D-02 0.489D-02 0.927D-01 0.267D+00 0.638D+00
 Coeff-En:   0.000D+00 0.000D+00 0.000D+00 0.000D+00 0.100D+01
 Coeff:     -0.241D-02 0.488D-02 0.924D-01 0.266D+00 0.639D+00
 Gap=     0.282 Goal=   None    Shift=    0.000
 RMSDP=9.34D-05 MaxDP=8.49D-03 DE=-3.16D-03 OVMax= 3.04D-03

 Cycle   7  Pass 1  IDiag  1:
 RMSU=  5.86D-05    CP:  6.95D-01  6.93D-01  1.04D+00  7.66D-01  7.35D-01
 E= -1497.23618810919     Delta-E=       -0.000143142663 Rises=F Damp=F
 DIIS: error= 1.54D-04 at cycle   6 NSaved=   6.
 NSaved= 6 IEnMin= 6 EnMin= -1497.23618810919     IErMin= 6 ErrMin= 1.54D-04
 ErrMax= 1.54D-04  0.00D+00 EMaxC= 1.00D-01 BMatC= 2.13D-05 BMatP= 1.36D-04
 IDIUse=3 WtCom= 9.98D-01 WtEn= 1.54D-03
 Coeff-Com:  0.246D-02-0.101D-01-0.546D-02-0.106D-01 0.248D+00 0.776D+00
 Coeff-En:   0.000D+00 0.000D+00 0.000D+00 0.000D+00 0.000D+00 0.100D+01
 Coeff:      0.245D-02-0.101D-01-0.545D-02-0.106D-01 0.247D+00 0.776D+00
 Gap=     0.282 Goal=   None    Shift=    0.000
 RMSDP=4.18D-05 MaxDP=3.30D-03 DE=-1.43D-04 OVMax= 1.87D-03

 Cycle   8  Pass 1  IDiag  1:
 RMSU=  1.76D-05    CP:  6.94D-01  6.84D-01  1.05D+00  7.63D-01  8.65D-01
                    CP:  9.63D-01
 E= -1497.23622180756     Delta-E=       -0.000033698368 Rises=F Damp=F
 DIIS: error= 5.22D-05 at cycle   7 NSaved=   7.
 NSaved= 7 IEnMin= 7 EnMin= -1497.23622180756     IErMin= 7 ErrMin= 5.22D-05
 ErrMax= 5.22D-05  0.00D+00 EMaxC= 1.00D-01 BMatC= 2.16D-06 BMatP= 2.13D-05
 IDIUse=1 WtCom= 1.00D+00 WtEn= 0.00D+00
 Coeff-Com:  0.115D-02-0.399D-02-0.118D-01-0.399D-01-0.294D-01 0.193D+00
 Coeff-Com:  0.891D+00
 Coeff:      0.115D-02-0.399D-02-0.118D-01-0.399D-01-0.294D-01 0.193D+00
 Coeff:      0.891D+00
 Gap=     0.283 Goal=   None    Shift=    0.000
 RMSDP=1.44D-05 MaxDP=1.06D-03 DE=-3.37D-05 OVMax= 1.04D-03

 Cycle   9  Pass 1  IDiag  1:
 RMSU=  7.30D-06    CP:  6.94D-01  6.83D-01  1.06D+00  7.65D-01  8.70D-01
                    CP:  1.09D+00  1.20D+00
 E= -1497.23622656524     Delta-E=       -0.000004757685 Rises=F Damp=F
 DIIS: error= 1.55D-05 at cycle   8 NSaved=   8.
 NSaved= 8 IEnMin= 8 EnMin= -1497.23622656524     IErMin= 8 ErrMin= 1.55D-05
 ErrMax= 1.55D-05  0.00D+00 EMaxC= 1.00D-01 BMatC= 4.47D-07 BMatP= 2.16D-06
 IDIUse=1 WtCom= 1.00D+00 WtEn= 0.00D+00
 Coeff-Com:  0.253D-03-0.598D-03-0.398D-02-0.163D-01-0.482D-01-0.198D-01
 Coeff-Com:  0.381D+00 0.708D+00
 Coeff:      0.253D-03-0.598D-03-0.398D-02-0.163D-01-0.482D-01-0.198D-01
 Coeff:      0.381D+00 0.708D+00
 Gap=     0.283 Goal=   None    Shift=    0.000
 RMSDP=4.29D-06 MaxDP=3.79D-04 DE=-4.76D-06 OVMax= 4.06D-04

 Cycle  10  Pass 1  IDiag  1:
 RMSU=  2.62D-06    CP:  6.93D-01  6.83D-01  1.06D+00  7.63D-01  8.79D-01
                    CP:  1.11D+00  1.28D+00  1.01D+00
 E= -1497.23622735585     Delta-E=       -0.000000790606 Rises=F Damp=F
 DIIS: error= 6.27D-06 at cycle   9 NSaved=   9.
 NSaved= 9 IEnMin= 9 EnMin= -1497.23622735585     IErMin= 9 ErrMin= 6.27D-06
 ErrMax= 6.27D-06  0.00D+00 EMaxC= 1.00D-01 BMatC= 3.13D-08 BMatP= 4.47D-07
 IDIUse=1 WtCom= 1.00D+00 WtEn= 0.00D+00
 Coeff-Com: -0.118D-03 0.528D-03 0.162D-02 0.421D-02-0.286D-02-0.330D-01
 Coeff-Com: -0.861D-01 0.740D-01 0.104D+01
 Coeff:     -0.118D-03 0.528D-03 0.162D-02 0.421D-02-0.286D-02-0.330D-01
 Coeff:     -0.861D-01 0.740D-01 0.104D+01
 Gap=     0.283 Goal=   None    Shift=    0.000
 RMSDP=2.24D-06 MaxDP=3.60D-04 DE=-7.91D-07 OVMax= 1.88D-04

 Cycle  11  Pass 1  IDiag  1:
 RMSU=  7.84D-07    CP:  6.94D-01  6.83D-01  1.06D+00  7.62D-01  8.76D-01
                    CP:  1.11D+00  1.33D+00  1.16D+00  1.38D+00
 E= -1497.23622746722     Delta-E=       -0.000000111371 Rises=F Damp=F
 DIIS: error= 3.40D-06 at cycle  10 NSaved=  10.
 NSaved=10 IEnMin=10 EnMin= -1497.23622746722     IErMin=10 ErrMin= 3.40D-06
 ErrMax= 3.40D-06  0.00D+00 EMaxC= 1.00D-01 BMatC= 1.05D-08 BMatP= 3.13D-08
 IDIUse=1 WtCom= 1.00D+00 WtEn= 0.00D+00
 Coeff-Com: -0.817D-04 0.318D-03 0.126D-02 0.391D-02 0.411D-02-0.133D-01
 Coeff-Com: -0.836D-01-0.503D-01 0.501D+00 0.636D+00
 Coeff:     -0.817D-04 0.318D-03 0.126D-02 0.391D-02 0.411D-02-0.133D-01
 Coeff:     -0.836D-01-0.503D-01 0.501D+00 0.636D+00
 Gap=     0.283 Goal=   None    Shift=    0.000
 RMSDP=6.91D-07 MaxDP=4.82D-05 DE=-1.11D-07 OVMax= 5.65D-05

 Cycle  12  Pass 1  IDiag  1:
 RMSU=  3.46D-07    CP:  6.94D-01  6.83D-01  1.06D+00  7.62D-01  8.75D-01
                    CP:  1.11D+00  1.34D+00  1.21D+00  1.51D+00  8.52D-01
 E= -1497.23622748434     Delta-E=       -0.000000017124 Rises=F Damp=F
 DIIS: error= 1.01D-06 at cycle  11 NSaved=  11.
 NSaved=11 IEnMin=11 EnMin= -1497.23622748434     IErMin=11 ErrMin= 1.01D-06
 ErrMax= 1.01D-06  0.00D+00 EMaxC= 1.00D-01 BMatC= 1.12D-09 BMatP= 1.05D-08
 IDIUse=1 WtCom= 1.00D+00 WtEn= 0.00D+00
 Coeff-Com: -0.286D-05 0.703D-05 0.101D-03 0.458D-03 0.157D-02 0.160D-02
 Coeff-Com: -0.886D-02-0.275D-01-0.332D-01 0.189D+00 0.877D+00
 Coeff:     -0.286D-05 0.703D-05 0.101D-03 0.458D-03 0.157D-02 0.160D-02
 Coeff:     -0.886D-02-0.275D-01-0.332D-01 0.189D+00 0.877D+00
 Gap=     0.283 Goal=   None    Shift=    0.000
 RMSDP=3.42D-07 MaxDP=2.90D-05 DE=-1.71D-08 OVMax= 2.55D-05

 Cycle  13  Pass 1  IDiag  1:
 RMSU=  1.92D-07    CP:  6.94D-01  6.83D-01  1.06D+00  7.62D-01  8.74D-01
                    CP:  1.11D+00  1.33D+00  1.23D+00  1.58D+00  9.90D-01
                    CP:  1.19D+00
 E= -1497.23622748759     Delta-E=       -0.000000003251 Rises=F Damp=F
 DIIS: error= 6.61D-07 at cycle  12 NSaved=  12.
 NSaved=12 IEnMin=12 EnMin= -1497.23622748759     IErMin=12 ErrMin= 6.61D-07
 ErrMax= 6.61D-07  0.00D+00 EMaxC= 1.00D-01 BMatC= 3.33D-10 BMatP= 1.12D-09
 IDIUse=1 WtCom= 1.00D+00 WtEn= 0.00D+00
 Coeff-Com:  0.167D-04-0.672D-04-0.226D-03-0.630D-03-0.225D-03 0.360D-02
 Coeff-Com:  0.143D-01-0.172D-02-0.127D+00-0.499D-01 0.415D+00 0.746D+00
 Coeff:      0.167D-04-0.672D-04-0.226D-03-0.630D-03-0.225D-03 0.360D-02
 Coeff:      0.143D-01-0.172D-02-0.127D+00-0.499D-01 0.415D+00 0.746D+00
 Gap=     0.283 Goal=   None    Shift=    0.000
 RMSDP=1.45D-07 MaxDP=8.80D-06 DE=-3.25D-09 OVMax= 1.22D-05

 Cycle  14  Pass 1  IDiag  1:
 RMSU=  6.58D-08    CP:  6.94D-01  6.83D-01  1.06D+00  7.62D-01  8.74D-01
                    CP:  1.11D+00  1.33D+00  1.23D+00  1.61D+00  1.05D+00
                    CP:  1.41D+00  9.77D-01
 E= -1497.23622748844     Delta-E=       -0.000000000846 Rises=F Damp=F
 DIIS: error= 2.17D-07 at cycle  13 NSaved=  13.
 NSaved=13 IEnMin=13 EnMin= -1497.23622748844     IErMin=13 ErrMin= 2.17D-07
 ErrMax= 2.17D-07  0.00D+00 EMaxC= 1.00D-01 BMatC= 3.63D-11 BMatP= 3.33D-10
 IDIUse=1 WtCom= 1.00D+00 WtEn= 0.00D+00
 Coeff-Com:  0.436D-05-0.178D-04-0.748D-04-0.234D-03-0.348D-03 0.595D-03
 Coeff-Com:  0.509D-02 0.467D-02-0.253D-01-0.451D-01-0.446D-01 0.183D+00
 Coeff-Com:  0.923D+00
 Coeff:      0.436D-05-0.178D-04-0.748D-04-0.234D-03-0.348D-03 0.595D-03
 Coeff:      0.509D-02 0.467D-02-0.253D-01-0.451D-01-0.446D-01 0.183D+00
 Coeff:      0.923D+00
 Gap=     0.283 Goal=   None    Shift=    0.000
 RMSDP=5.21D-08 MaxDP=3.97D-06 DE=-8.46D-10 OVMax= 5.52D-06

 Cycle  15  Pass 1  IDiag  1:
 RMSU=  3.24D-08    CP:  6.94D-01  6.83D-01  1.06D+00  7.62D-01  8.74D-01
                    CP:  1.11D+00  1.33D+00  1.23D+00  1.61D+00  1.08D+00
                    CP:  1.46D+00  1.09D+00  1.16D+00
 E= -1497.23622748846     Delta-E=       -0.000000000024 Rises=F Damp=F
 DIIS: error= 1.26D-07 at cycle  14 NSaved=  14.
 NSaved=14 IEnMin=14 EnMin= -1497.23622748846     IErMin=14 ErrMin= 1.26D-07
 ErrMax= 1.26D-07  0.00D+00 EMaxC= 1.00D-01 BMatC= 1.08D-11 BMatP= 3.63D-11
 IDIUse=1 WtCom= 1.00D+00 WtEn= 0.00D+00
 Coeff-Com: -0.190D-05 0.688D-05 0.153D-04 0.349D-04-0.978D-04-0.514D-03
 Coeff-Com: -0.820D-03 0.235D-02 0.154D-01-0.101D-01-0.106D+00-0.787D-01
 Coeff-Com:  0.397D+00 0.781D+00
 Coeff:     -0.190D-05 0.688D-05 0.153D-04 0.349D-04-0.978D-04-0.514D-03
 Coeff:     -0.820D-03 0.235D-02 0.154D-01-0.101D-01-0.106D+00-0.787D-01
 Coeff:      0.397D+00 0.781D+00
 Gap=     0.283 Goal=   None    Shift=    0.000
 RMSDP=2.47D-08 MaxDP=1.65D-06 DE=-2.36D-11 OVMax= 2.42D-06

 Cycle  16  Pass 1  IDiag  1:
 RMSU=  1.37D-08    CP:  6.94D-01  6.83D-01  1.06D+00  7.62D-01  8.74D-01
                    CP:  1.11D+00  1.33D+00  1.23D+00  1.61D+00  1.07D+00
                    CP:  1.48D+00  1.14D+00  1.35D+00  1.16D+00
 E= -1497.23622748855     Delta-E=       -0.000000000090 Rises=F Damp=F
 DIIS: error= 4.21D-08 at cycle  15 NSaved=  15.
 NSaved=15 IEnMin=15 EnMin= -1497.23622748855     IErMin=15 ErrMin= 4.21D-08
 ErrMax= 4.21D-08  0.00D+00 EMaxC= 1.00D-01 BMatC= 1.04D-12 BMatP= 1.08D-11
 IDIUse=1 WtCom= 1.00D+00 WtEn= 0.00D+00
 Coeff-Com: -0.124D-05 0.437D-05 0.137D-04 0.428D-04 0.407D-04-0.193D-03
 Coeff-Com: -0.963D-03-0.302D-03 0.670D-02 0.482D-02-0.110D-01-0.431D-01
 Coeff-Com: -0.829D-01 0.151D+00 0.976D+00
 Coeff:     -0.124D-05 0.437D-05 0.137D-04 0.428D-04 0.407D-04-0.193D-03
 Coeff:     -0.963D-03-0.302D-03 0.670D-02 0.482D-02-0.110D-01-0.431D-01
 Coeff:     -0.829D-01 0.151D+00 0.976D+00
 Gap=     0.283 Goal=   None    Shift=    0.000
 RMSDP=1.04D-08 MaxDP=6.34D-07 DE=-9.00D-11 OVMax= 1.03D-06

 Cycle  17  Pass 1  IDiag  1:
 RMSU=  4.85D-09    CP:  6.94D-01  6.83D-01  1.06D+00  7.62D-01  8.74D-01
                    CP:  1.11D+00  1.33D+00  1.23D+00  1.61D+00  1.07D+00
                    CP:  1.48D+00  1.14D+00  1.42D+00  1.34D+00  1.16D+00
 E= -1497.23622748863     Delta-E=       -0.000000000081 Rises=F Damp=F
 DIIS: error= 1.78D-08 at cycle  16 NSaved=  16.
 NSaved=16 IEnMin=16 EnMin= -1497.23622748863     IErMin=16 ErrMin= 1.78D-08
 ErrMax= 1.78D-08  0.00D+00 EMaxC= 1.00D-01 BMatC= 1.97D-13 BMatP= 1.04D-12
 IDIUse=1 WtCom= 1.00D+00 WtEn= 0.00D+00
 Coeff-Com: -0.149D-06 0.497D-06 0.228D-05 0.891D-05 0.292D-04 0.129D-04
 Coeff-Com: -0.189D-03-0.406D-03-0.535D-04 0.287D-02 0.128D-01-0.215D-02
 Coeff-Com: -0.862D-01-0.646D-01 0.301D+00 0.837D+00
 Coeff:     -0.149D-06 0.497D-06 0.228D-05 0.891D-05 0.292D-04 0.129D-04
 Coeff:     -0.189D-03-0.406D-03-0.535D-04 0.287D-02 0.128D-01-0.215D-02
 Coeff:     -0.862D-01-0.646D-01 0.301D+00 0.837D+00
 Gap=     0.283 Goal=   None    Shift=    0.000
 RMSDP=3.85D-09 MaxDP=2.50D-07 DE=-8.09D-11 OVMax= 3.21D-07

 SCF Done:  E(RLC-wHPBE) =  -1497.23622749     A.U. after   17 cycles
            NFock= 17  Conv=0.39D-08     -V/T= 2.0054
 KE= 1.489144779264D+03 PE=-1.055869998445D+04 EE= 4.030616161310D+03
 Leave Link  502 at Sun Jan 17 16:57:23 2021, MaxMem=  4026531840 cpu:            8957.9 elap:            1156.7
 (Enter /opt/ohpc/pub/libs/gaussian/g16-A.03/sandybridge/g16/l601.exe)
 Copying SCF densities to generalized density rwf, IOpCl= 0 IROHF=0.

 **********************************************************************

            Population analysis using the SCF density.

 **********************************************************************

 Orbital symmetries:
       Occupied  (A) (A) (A) (A) (A) (A) (A) (A) (A) (A) (A) (A)
                 (A) (A) (A) (A) (A) (A) (A) (A) (A) (A) (A) (A)
                 (A) (A) (A) (A) (A) (A) (A) (A) (A) (A) (A) (A)
                 (A) (A) (A) (A) (A) (A) (A) (A) (A) (A) (A) (A)
                 (A) (A) (A) (A) (A) (A) (A) (A) (A) (A) (A) (A)
                 (A) (A) (A) (A) (A) (A) (A) (A) (A) (A) (A) (A)
                 (A) (A) (A) (A) (A) (A) (A) (A) (A) (A) (A) (A)
                 (A) (A) (A) (A) (A) (A) (A) (A) (A) (A) (A) (A)
                 (A) (A) (A) (A) (A) (A) (A) (A) (A) (A) (A) (A)
                 (A) (A) (A) (A) (A) (A) (A) (A) (A) (A) (A) (A)
                 (A) (A) (A) (A) (A) (A) (A) (A) (A)
       Virtual   (A) (A) (A) (A) (A) (A) (A) (A) (A) (A) (A) (A)
                 (A) (A) (A) (A) (A) (A) (A) (A) (A) (A) (A) (A)
                 (A) (A) (A) (A) (A) (A) (A) (A) (A) (A) (A) (A)
                 (A) (A) (A) (A) (A) (A) (A) (A) (A) (A) (A) (A)
                 (A) (A) (A) (A) (A) (A) (A) (A) (A) (A) (A) (A)
                 (A) (A) (A) (A) (A) (A) (A) (A) (A) (A) (A) (A)
                 (A) (A) (A) (A) (A) (A) (A) (A) (A) (A) (A) (A)
                 (A) (A) (A) (A) (A) (A) (A) (A) (A) (A) (A) (A)
                 (A) (A) (A) (A) (A) (A) (A) (A) (A) (A) (A) (A)
                 (A) (A) (A) (A) (A) (A) (A) (A) (A) (A) (A) (A)
                 (A) (A) (A) (A) (A) (A) (A) (A) (A) (A) (A) (A)
                 (A) (A) (A) (A) (A) (A) (A) (A) (A) (A) (A) (A)
                 (A) (A) (A) (A) (A) (A) (A) (A) (A) (A) (A) (A)
                 (A) (A) (A) (A) (A) (A) (A) (A) (A) (A) (A) (A)
                 (A) (A) (A) (A) (A) (A) (A) (A) (A) (A) (A) (A)
                 (A) (A) (A) (A) (A) (A) (A) (A) (A) (A) (A) (A)
                 (A) (A) (A) (A) (A) (A) (A) (A) (A) (A) (A) (A)
                 (A) (A) (A) (A) (A) (A) (A) (A) (A) (A) (A) (A)
                 (A) (A) (A) (A) (A) (A) (A) (A) (A) (A) (A) (A)
                 (A) (A) (A) (A) (A) (A) (A) (A) (A) (A) (A) (A)
                 (A) (A) (A) (A) (A) (A) (A) (A) (A) (A) (A) (A)
                 (A) (A) (A) (A) (A) (A) (A) (A) (A) (A) (A) (A)
                 (A) (A) (A) (A) (A) (A) (A) (A) (A) (A) (A) (A)
                 (A) (A) (A) (A) (A) (A) (A) (A) (A) (A) (A) (A)
                 (A) (A) (A) (A) (A) (A) (A) (A) (A) (A) (A) (A)
                 (A) (A) (A) (A) (A) (A) (A) (A) (A) (A) (A) (A)
                 (A) (A) (A) (A) (A) (A) (A) (A) (A) (A) (A) (A)
                 (A) (A) (A) (A) (A) (A) (A) (A) (A) (A) (A) (A)
                 (A) (A) (A) (A) (A) (A) (A) (A) (A) (A) (A) (A)
                 (A) (A) (A) (A) (A) (A) (A) (A) (A) (A) (A) (A)
                 (A) (A) (A) (A) (A) (A) (A) (A) (A) (A) (A) (A)
                 (A) (A) (A) (A) (A) (A) (A) (A) (A) (A) (A) (A)
                 (A) (A) (A) (A) (A) (A) (A) (A) (A) (A) (A) (A)
                 (A) (A) (A) (A) (A) (A) (A) (A) (A) (A) (A) (A)
                 (A) (A) (A) (A) (A) (A) (A) (A) (A) (A) (A) (A)
                 (A) (A) (A) (A) (A) (A) (A) (A) (A) (A) (A) (A)
                 (A) (A) (A) (A) (A) (A) (A) (A) (A) (A) (A) (A)
                 (A) (A) (A) (A) (A) (A) (A) (A) (A) (A) (A) (A)
                 (A) (A) (A) (A) (A) (A) (A) (A) (A) (A) (A) (A)
                 (A) (A) (A) (A) (A) (A) (A) (A) (A) (A) (A) (A)
                 (A) (A) (A) (A) (A) (A) (A) (A) (A) (A) (A) (A)
                 (A) (A) (A) (A) (A) (A) (A) (A) (A) (A) (A) (A)
                 (A) (A) (A) (A) (A) (A) (A) (A) (A) (A) (A) (A)
                 (A) (A) (A) (A) (A) (A) (A) (A) (A) (A) (A) (A)
                 (A) (A) (A) (A) (A) (A) (A) (A) (A) (A) (A) (A)
                 (A) (A) (A) (A) (A) (A) (A) (A) (A) (A) (A) (A)
                 (A) (A) (A) (A) (A) (A) (A) (A) (A) (A) (A) (A)
                 (A) (A) (A) (A) (A) (A) (A) (A) (A) (A) (A) (A)
                 (A) (A) (A) (A) (A) (A) (A) (A) (A) (A) (A) (A)
                 (A) (A) (A) (A) (A) (A) (A) (A) (A) (A) (A) (A)
                 (A) (A) (A) (A) (A) (A) (A) (A) (A) (A) (A) (A)
                 (A) (A) (A) (A) (A) (A) (A) (A) (A) (A) (A) (A)
                 (A) (A) (A) (A) (A) (A) (A) (A) (A) (A) (A) (A)
                 (A) (A) (A) (A) (A) (A) (A) (A) (A) (A) (A) (A)
                 (A) (A) (A) (A) (A) (A) (A) (A) (A) (A) (A) (A)
                 (A) (A) (A) (A) (A) (A) (A) (A) (A) (A) (A) (A)
                 (A) (A) (A) (A) (A) (A) (A) (A) (A) (A) (A) (A)
                 (A) (A) (A) (A) (A) (A) (A) (A) (A) (A) (A) (A)
                 (A) (A) (A) (A) (A) (A) (A) (A) (A) (A) (A) (A)
                 (A) (A) (A) (A) (A) (A) (A) (A) (A) (A) (A) (A)
                 (A) (A) (A) (A) (A) (A) (A) (A) (A) (A) (A) (A)
                 (A) (A) (A) (A) (A) (A) (A) (A) (A) (A) (A) (A)
                 (A) (A) (A) (A) (A) (A) (A) (A) (A) (A) (A) (A)
                 (A) (A) (A) (A) (A)
 The electronic state is 1-A.
 Alpha  occ. eigenvalues --  -14.17323 -14.17236 -10.09670 -10.09600 -10.09499
 Alpha  occ. eigenvalues --  -10.09195 -10.08640 -10.07932 -10.07498 -10.06927
 Alpha  occ. eigenvalues --  -10.06420 -10.06317 -10.06002 -10.05967 -10.05823
 Alpha  occ. eigenvalues --  -10.05715 -10.05558 -10.05544 -10.05470 -10.05334
 Alpha  occ. eigenvalues --  -10.05066 -10.04999 -10.04911 -10.04819 -10.04775
 Alpha  occ. eigenvalues --  -10.04718 -10.04526 -10.04410 -10.04369 -10.04352
 Alpha  occ. eigenvalues --  -10.04348 -10.04227 -10.04214 -10.04058 -10.04029
 Alpha  occ. eigenvalues --  -10.03982 -10.03902 -10.03870  -1.05704  -1.02315
 Alpha  occ. eigenvalues --   -0.96124  -0.95155  -0.94457  -0.94077  -0.92875
 Alpha  occ. eigenvalues --   -0.91826  -0.87375  -0.85292  -0.85186  -0.85046
 Alpha  occ. eigenvalues --   -0.84323  -0.84018  -0.83436  -0.83350  -0.82967
 Alpha  occ. eigenvalues --   -0.82294  -0.80506  -0.78457  -0.73636  -0.72944
 Alpha  occ. eigenvalues --   -0.71559  -0.71131  -0.70688  -0.70387  -0.69364
 Alpha  occ. eigenvalues --   -0.69227  -0.68499  -0.68068  -0.67250  -0.66064
 Alpha  occ. eigenvalues --   -0.63900  -0.63184  -0.62388  -0.62209  -0.60853
 Alpha  occ. eigenvalues --   -0.58924  -0.58127  -0.57989  -0.57334  -0.56103
 Alpha  occ. eigenvalues --   -0.55880  -0.55251  -0.54974  -0.54565  -0.54010
 Alpha  occ. eigenvalues --   -0.53944  -0.53490  -0.53042  -0.52846  -0.52528
 Alpha  occ. eigenvalues --   -0.52425  -0.51956  -0.51714  -0.51610  -0.50796
 Alpha  occ. eigenvalues --   -0.50215  -0.49975  -0.49106  -0.48338  -0.47756
 Alpha  occ. eigenvalues --   -0.47147  -0.46865  -0.46776  -0.46358  -0.45976
 Alpha  occ. eigenvalues --   -0.45820  -0.45355  -0.44939  -0.43936  -0.43665
 Alpha  occ. eigenvalues --   -0.43611  -0.42830  -0.42476  -0.41648  -0.41222
 Alpha  occ. eigenvalues --   -0.40037  -0.38253  -0.37683  -0.35794  -0.35608
 Alpha  occ. eigenvalues --   -0.35227  -0.34654  -0.34494  -0.34036  -0.33549
 Alpha  occ. eigenvalues --   -0.33297  -0.31415  -0.28579  -0.27398
 Alpha virt. eigenvalues --    0.00869   0.02493   0.03513   0.04508   0.04789
 Alpha virt. eigenvalues --    0.05175   0.05916   0.06388   0.06622   0.07236
 Alpha virt. eigenvalues --    0.07801   0.09564   0.12028   0.12411   0.13000
 Alpha virt. eigenvalues --    0.13251   0.13585   0.14222   0.14649   0.15223
 Alpha virt. eigenvalues --    0.15647   0.15839   0.15974   0.16233   0.16449
 Alpha virt. eigenvalues --    0.16768   0.17154   0.17495   0.17516   0.17824
 Alpha virt. eigenvalues --    0.18135   0.18394   0.18555   0.18918   0.19133
 Alpha virt. eigenvalues --    0.19486   0.19622   0.20215   0.20626   0.20736
 Alpha virt. eigenvalues --    0.21208   0.21916   0.22087   0.22528   0.22726
 Alpha virt. eigenvalues --    0.23489   0.23676   0.24618   0.24907   0.25219
 Alpha virt. eigenvalues --    0.25456   0.25919   0.26151   0.26680   0.26877
 Alpha virt. eigenvalues --    0.26929   0.27147   0.27454   0.27683   0.28078
 Alpha virt. eigenvalues --    0.28242   0.28433   0.28642   0.28982   0.29069
 Alpha virt. eigenvalues --    0.29315   0.29530   0.29729   0.29997   0.30194
 Alpha virt. eigenvalues --    0.30402   0.30528   0.30611   0.30839   0.31082
 Alpha virt. eigenvalues --    0.31333   0.31465   0.31925   0.32087   0.32152
 Alpha virt. eigenvalues --    0.32442   0.32679   0.32811   0.33072   0.33295
 Alpha virt. eigenvalues --    0.33788   0.33989   0.34150   0.34603   0.34782
 Alpha virt. eigenvalues --    0.35215   0.35579   0.35774   0.36134   0.36492
 Alpha virt. eigenvalues --    0.36590   0.36773   0.37339   0.37449   0.37760
 Alpha virt. eigenvalues --    0.38193   0.38335   0.38480   0.38756   0.39018
 Alpha virt. eigenvalues --    0.39280   0.39604   0.40025   0.40440   0.40737
 Alpha virt. eigenvalues --    0.40947   0.41177   0.41536   0.41752   0.42126
 Alpha virt. eigenvalues --    0.42608   0.42695   0.43035   0.43280   0.43549
 Alpha virt. eigenvalues --    0.43795   0.44104   0.44350   0.44556   0.44696
 Alpha virt. eigenvalues --    0.44929   0.45660   0.45810   0.45889   0.46232
 Alpha virt. eigenvalues --    0.46573   0.46736   0.46858   0.46915   0.47132
 Alpha virt. eigenvalues --    0.47445   0.47957   0.48174   0.48453   0.48677
[...]
 Alpha virt. eigenvalues --    0.02486   0.04090   0.04146   0.04547   0.04549
 Alpha virt. eigenvalues --    0.06144   0.06549   0.06766   0.06793   0.06802
 Alpha virt. eigenvalues --    0.08978   0.10875   0.12062   0.12296   0.13074
 Alpha virt. eigenvalues --    0.13116   0.13395   0.14108   0.14638   0.15248
 Alpha virt. eigenvalues --    0.15361   0.15654   0.15790   0.15879   0.16178
 Alpha virt. eigenvalues --    0.16202   0.16977   0.17174   0.17343   0.18211
 Alpha virt. eigenvalues --    0.18257   0.18305   0.18538   0.18559   0.18744
 Alpha virt. eigenvalues --    0.19383   0.19555   0.20123   0.20133   0.20583
 Alpha virt. eigenvalues --    0.21547   0.21553   0.21725   0.22310   0.23822
 Alpha virt. eigenvalues --    0.23837   0.24179   0.24219   0.25170   0.25482
 Alpha virt. eigenvalues --    0.26314   0.26562   0.26779   0.26810   0.27280
 Alpha virt. eigenvalues --    0.27503   0.27649   0.27820   0.27825   0.28243
 Alpha virt. eigenvalues --    0.28513   0.28680   0.28958   0.29042   0.29129
 Alpha virt. eigenvalues --    0.29836   0.30084   0.30332   0.30423   0.30557
 Alpha virt. eigenvalues --    0.30613   0.31182   0.31323   0.31449   0.31637
 Alpha virt. eigenvalues --    0.31690   0.31752   0.31880   0.32253   0.32336
 Alpha virt. eigenvalues --    0.32620   0.32869   0.33312   0.33545   0.33624
 Alpha virt. eigenvalues --    0.34162   0.34350   0.34560   0.34816   0.35140
 Alpha virt. eigenvalues --    0.35197   0.35439   0.36171   0.36318   0.36728
 Alpha virt. eigenvalues --    0.36758   0.37135   0.37207   0.37507   0.38499
 Alpha virt. eigenvalues --    0.38524   0.38658   0.38804   0.39262   0.40050
 Alpha virt. eigenvalues --    0.40136   0.40189   0.40481   0.40668   0.40712
 Alpha virt. eigenvalues --    0.40802   0.40971   0.41570   0.41622   0.42448
 Alpha virt. eigenvalues --    0.42927   0.43143   0.43590   0.43922   0.44173
 Alpha virt. eigenvalues --    0.44504   0.44971   0.45052   0.45618   0.45742
 Alpha virt. eigenvalues --    0.45770   0.46159   0.46217   0.46600   0.46688
 Alpha virt. eigenvalues --    0.47001   0.47042   0.47143   0.47195   0.47289
 Alpha virt. eigenvalues --    0.47561   0.47602   0.48067   0.48576   0.48605
 Alpha virt. eigenvalues --    0.48732   0.48773   0.49159   0.49567   0.49577
 Alpha virt. eigenvalues --    0.50281   0.50351   0.50495   0.50530   0.50689
 Alpha virt. eigenvalues --    0.50697   0.50909   0.51095   0.51414   0.51784
 Alpha virt. eigenvalues --    0.51833   0.52353   0.52540   0.52750   0.53322
 Alpha virt. eigenvalues --    0.53460   0.53514   0.53698   0.53991   0.54331
 Alpha virt. eigenvalues --    0.54342   0.55422   0.55515   0.55885   0.56622
 Alpha virt. eigenvalues --    0.56756   0.56760   0.56869   0.57053   0.57141
 Alpha virt. eigenvalues --    0.57451   0.57876   0.58011   0.58124   0.58190
 Alpha virt. eigenvalues --    0.58768   0.58807   0.59178   0.59524   0.59540
 Alpha virt. eigenvalues --    0.60256   0.60614   0.60813   0.61115   0.61281
 Alpha virt. eigenvalues --    0.62380   0.62867   0.63016   0.63040   0.63292
 Alpha virt. eigenvalues --    0.63582   0.63876   0.64510   0.64584   0.64647
 Alpha virt. eigenvalues --    0.65228   0.65645   0.65802   0.66513   0.66732
 Alpha virt. eigenvalues --    0.69642   0.69723   0.69906   0.70242   0.70543
 Alpha virt. eigenvalues --    0.70655   0.71232   0.71862   0.71896   0.73094
 Alpha virt. eigenvalues --    0.74163   0.74561   0.74618   0.75175   0.75591
 Alpha virt. eigenvalues --    0.76127   0.76333   0.76821   0.76904   0.77045
 Alpha virt. eigenvalues --    0.77529   0.77821   0.78067   0.78095   0.78143
 Alpha virt. eigenvalues --    0.78280   0.78730   0.78945   0.79320   0.79668
 Alpha virt. eigenvalues --    0.80205   0.81018   0.81092   0.81815   0.82325
 Alpha virt. eigenvalues --    0.82865   0.83187   0.83907   0.83913   0.84398
 Alpha virt. eigenvalues --    0.85243   0.85498   0.86098   0.86406   0.86668
 Alpha virt. eigenvalues --    0.88273   0.88655   0.89512   0.90224   0.90767
 Alpha virt. eigenvalues --    0.93275   0.93437   0.93654   0.93715   0.93776
 Alpha virt. eigenvalues --    0.94028   0.94307   0.95588   0.99510   1.00207
 Alpha virt. eigenvalues --    1.00357   1.00563   1.03189   1.03245   1.20991
 Alpha virt. eigenvalues --    1.22091   1.23604   1.23606   1.23783   1.27412
 Alpha virt. eigenvalues --    1.27735   1.28224   1.28524   1.29597   1.30161
 Alpha virt. eigenvalues --    1.30818   1.30914   1.31126   1.31172   1.31587
 Alpha virt. eigenvalues --    1.31768   1.32501   1.32971   1.33189   1.33823
 Alpha virt. eigenvalues --    1.34111   1.34161   1.34449   1.34517   1.34958
 Alpha virt. eigenvalues --    1.35603   1.35725   1.35771   1.35781   1.36206
 Alpha virt. eigenvalues --    1.36231   1.36278   1.36402   1.36563   1.37093
 Alpha virt. eigenvalues --    1.37635   1.38160   1.38188   1.38191   1.38436
 Alpha virt. eigenvalues --    1.38775   1.38846   1.39002   1.39112   1.39749
 Alpha virt. eigenvalues --    1.39831   1.40942   1.41141   1.41160   1.41492
 Alpha virt. eigenvalues --    1.41521   1.41810   1.42223   1.42898   1.43444
 Alpha virt. eigenvalues --    1.43649   1.44011   1.49137   1.49590   1.49794
 Alpha virt. eigenvalues --    1.49895   1.49976   1.50232   1.50588   1.50968
 Alpha virt. eigenvalues --    1.51079   1.51438   1.51496   1.51515   1.51623
 Alpha virt. eigenvalues --    1.51782   1.51791   1.52067   1.52077   1.52154
 Alpha virt. eigenvalues --    1.52494   1.52501   1.53072   1.53690   1.53911
 Alpha virt. eigenvalues --    1.53992   1.54142   1.54412   1.54516   1.54741
 Alpha virt. eigenvalues --    1.54859   1.55215   1.55290   1.55317   1.55593
 Alpha virt. eigenvalues --    1.55711   1.55829   1.55837   1.56895   1.57295
 Alpha virt. eigenvalues --    1.57553   1.57900   1.58212   1.58459   1.59059
 Alpha virt. eigenvalues --    1.59387   1.59504   1.59537   1.59959   1.60464
 Alpha virt. eigenvalues --    1.60579   1.61293   1.61746   1.61751   1.62376
 Alpha virt. eigenvalues --    1.62417   1.62730   1.62734   1.62786   1.62902
 Alpha virt. eigenvalues --    1.63112   1.63349   1.64179   1.64186   1.64731
 Alpha virt. eigenvalues --    1.64790   1.64893   1.65019   1.65148   1.65375
 Alpha virt. eigenvalues --    1.65779   1.65794   1.65906   1.65962   1.66934
 Alpha virt. eigenvalues --    1.66948   1.67130   1.67930   1.68443   1.68611
 Alpha virt. eigenvalues --    1.68835   1.71765   1.72523   1.74009   1.74111
 Alpha virt. eigenvalues --    1.74492   1.74609   1.74667   1.74723   1.76436
 Alpha virt. eigenvalues --    1.78245   1.78503   1.79331   1.79449   1.80441
 Alpha virt. eigenvalues --    1.83047   1.83388   1.83864   1.83900   1.84090
 Alpha virt. eigenvalues --    1.84157   1.84358   1.84412   1.84490   1.84974
 Alpha virt. eigenvalues --    1.85026   1.85407   1.85448   1.85984   1.86599
 Alpha virt. eigenvalues --    1.86693   1.86726   1.86810   1.87263   1.88120
 Alpha virt. eigenvalues --    1.88235   1.88681   1.88941   1.89140   1.89534
 Alpha virt. eigenvalues --    1.89549   1.89580   1.89745   1.90142   1.90652
 Alpha virt. eigenvalues --    1.91835   1.92157   1.93247   1.93473   1.94793
 Alpha virt. eigenvalues --    1.94836   1.95167   1.95516   1.95811   1.95901
 Alpha virt. eigenvalues --    1.95921   1.96485   1.96676   1.96790   1.97929
 Alpha virt. eigenvalues --    1.98516   1.98804   1.99040   1.99174   1.99197
 Alpha virt. eigenvalues --    1.99207   1.99623   1.99732   1.99978   2.00061
 Alpha virt. eigenvalues --    2.00066   2.00167   2.00763   2.00889   2.00958
 Alpha virt. eigenvalues --    2.01093   2.01197   2.01999   2.02220   2.02789
 Alpha virt. eigenvalues --    2.03487   2.04365   2.04394   2.04828   2.04843
 Alpha virt. eigenvalues --    2.04948   2.04990   2.06562   2.07154   2.07699
 Alpha virt. eigenvalues --    2.07882   2.07970   2.08523   2.09716   2.10045
 Alpha virt. eigenvalues --    2.10275   2.10368   2.11016   2.12032   2.12769
 Alpha virt. eigenvalues --    2.13628   2.14828   2.14900   2.15749   2.16838
 Alpha virt. eigenvalues --    2.18777   2.19019   2.19080   2.20122   2.20521
 Alpha virt. eigenvalues --    2.22172   2.23789   2.25718   2.27132   2.27328
 Alpha virt. eigenvalues --    2.27449   2.28811   2.30390   2.30825   2.31706
 Alpha virt. eigenvalues --    2.31796   2.31864   2.33935   2.34545   2.34808
 Alpha virt. eigenvalues --    2.36917   2.37036   2.37821   2.37862   2.38035
 Alpha virt. eigenvalues --    2.38486   2.38724   2.38730   2.38821   2.39020
 Alpha virt. eigenvalues --    2.39031   2.39245   2.39951   2.40578   2.40807
 Alpha virt. eigenvalues --    2.41151   2.41218   2.41312   2.41549   2.41721
 Alpha virt. eigenvalues --    2.42493   2.42495   2.43133   2.43838   2.44079
 Alpha virt. eigenvalues --    2.44097   2.44113   2.44229   2.44479   2.44543
 Alpha virt. eigenvalues --    2.44729   2.45030   2.45708   2.45842   2.45975
 Alpha virt. eigenvalues --    2.46577   2.49069   2.51699   2.52807   2.53173
 Alpha virt. eigenvalues --    2.53411   2.53981   2.54022   2.54577   2.57526
 Alpha virt. eigenvalues --    2.57607   2.57678   2.57930   2.58974   2.59006
 Alpha virt. eigenvalues --    2.59018   2.59163   2.59743   2.59766   2.60097
 Alpha virt. eigenvalues --    2.60699   2.62467   2.62782   2.62915   2.62964
 Alpha virt. eigenvalues --    2.63324   2.65784   2.66537   2.67799   2.68165
 Alpha virt. eigenvalues --    2.68443   2.70535   2.70869   2.71095   2.71139
 Alpha virt. eigenvalues --    2.71812   2.71815   2.72001   2.72081   2.72131
 Alpha virt. eigenvalues --    2.72871   2.73120   2.73493   2.73500   2.73816
 Alpha virt. eigenvalues --    2.74252   2.74664   2.74699   2.75095   2.75704
 Alpha virt. eigenvalues --    2.76533   2.81378   2.81496   2.81523   2.81639
 Alpha virt. eigenvalues --    2.81717   2.83695   2.83963   2.84084   2.84183
 Alpha virt. eigenvalues --    2.85207   2.86257   2.86416   2.86769   2.87286
 Alpha virt. eigenvalues --    2.88806   2.89738   2.90083   2.90959   2.91677
 Alpha virt. eigenvalues --    2.92312   2.92386   2.92435   2.92708   2.93185
 Alpha virt. eigenvalues --    2.96994   2.97783   3.03211   3.04179   3.04286
 Alpha virt. eigenvalues --    3.04405   3.04768   3.04975   3.06129   3.06234
 Alpha virt. eigenvalues --    3.08528   3.08564   3.09230   3.09240   3.09913
 Alpha virt. eigenvalues --    3.10462   3.10642   3.10657   3.11458   3.11579
 Alpha virt. eigenvalues --    3.12082   3.12603   3.14195   3.14692   3.15124
 Alpha virt. eigenvalues --    3.16758   3.17311   3.17323   3.17891   3.19111
 Alpha virt. eigenvalues --    3.19478   3.19650   3.21840   3.21870   3.22260
 Alpha virt. eigenvalues --    3.22820   3.24656   3.24839   3.25596   3.25699
 Alpha virt. eigenvalues --    3.26682   3.26988   3.27363   3.27891   3.28018
 Alpha virt. eigenvalues --    3.28910   3.29779   3.30245   3.30698   3.31605
 Alpha virt. eigenvalues --    3.33305   3.33778   3.37103   3.39918   3.39933
 Alpha virt. eigenvalues --    3.40361   3.40842   3.42219   3.42297   3.44778
 Alpha virt. eigenvalues --    3.45541   3.46859   3.47825   3.47876   3.47880
 Alpha virt. eigenvalues --    3.52716   3.53482   3.59666   3.60467   3.62121
 Alpha virt. eigenvalues --    3.62226   3.63728   3.63900   3.66070   3.68475
 Alpha virt. eigenvalues --    3.68545   3.68805   3.85991   3.89413   3.97195
 Alpha virt. eigenvalues --    3.99551   3.99640   3.99855  21.21637  21.26221
 Alpha virt. eigenvalues --   21.26589  21.27950  21.28171  21.42608  21.74154
 Alpha virt. eigenvalues --   21.74234  21.74469  21.77255  21.77266  21.77692
 Alpha virt. eigenvalues --   21.80048  21.80666  21.83293  21.86441  21.86508
 Alpha virt. eigenvalues --   21.96009  21.96804  22.00576  22.00587  22.01623
 Alpha virt. eigenvalues --   22.03053  22.03693  22.03832  22.06115  22.08605
 Alpha virt. eigenvalues --   22.09071  22.09206  22.11185  22.14482  22.15365
 Alpha virt. eigenvalues --   22.20571  22.20795  22.21217  22.22438  32.10571
 Alpha virt. eigenvalues --   32.11516
          Condensed to atoms (all electrons):
 Mulliken charges:
               1
     1  C   -0.126230
     2  C   -0.049155
     3  C   -0.162873
     4  C   -0.126255
     5  C    0.026045
     6  C   -0.162860
     7  H    0.139166
     8  H    0.160693
     9  H    0.139163
    10  C    0.026138
    11  C   -0.162892
    12  C   -0.162885
    13  C   -0.125904
    14  C   -0.125994
    15  C   -0.049755
    16  H    0.139168
    17  H    0.139168
    18  H    0.160616
    19  H    0.160638
    20  H    0.160687
    21  N   -0.040183
    22  C   -0.052268
    23  C   -0.126038
    24  C   -0.119872
    25  C   -0.120528
    26  C   -0.120253
    27  C   -0.118753
    28  H    0.164480
    29  H    0.163010
    30  H    0.117421
    31  H    0.117387
    32  H    0.116368
    33  C   -0.052677
    34  C   -0.125853
    35  C   -0.119648
    36  C   -0.120550
    37  C   -0.120262
    38  C   -0.118703
    39  H    0.164458
    40  H    0.162949
    41  H    0.117428
    42  H    0.117393
    43  H    0.116379
    44  N   -0.040192
    45  C   -0.052652
    46  C   -0.125770
    47  C   -0.119760
    48  C   -0.120532
    49  C   -0.120263
    50  C   -0.118710
    51  H    0.164416
    52  H    0.162993
    53  H    0.117429
    54  H    0.117394
    55  H    0.116380
    56  C   -0.052850
    57  C   -0.125689
    58  C   -0.119643
    59  C   -0.120548
    60  C   -0.120278
    61  C   -0.118686
    62  H    0.164400
    63  H    0.162983
    64  H    0.117432
    65  H    0.117398
    66  H    0.116383
 Sum of Mulliken charges =  -0.00000
 Mulliken charges with hydrogens summed into heavy atoms:
               1
     1  C    0.034457
     2  C   -0.049155
     3  C   -0.023707
     4  C    0.034438
     5  C    0.026045
     6  C   -0.023697
    10  C    0.026138
    11  C   -0.023725
    12  C   -0.023717
    13  C    0.034712
    14  C    0.034644
    15  C   -0.049755
    21  N   -0.040183
    22  C   -0.052268
    23  C    0.038443
    24  C    0.043137
    25  C   -0.003107
    26  C   -0.002866
    27  C   -0.002385
    33  C   -0.052677
    34  C    0.038605
    35  C    0.043301
    36  C   -0.003122
    37  C   -0.002869
    38  C   -0.002324
    44  N   -0.040192
    45  C   -0.052652
    46  C    0.038646
    47  C    0.043233
    48  C   -0.003103
    49  C   -0.002869
    50  C   -0.002330
    56  C   -0.052850
    57  C    0.038711
    58  C    0.043340
    59  C   -0.003116
    60  C   -0.002880
    61  C   -0.002303
 Electronic spatial extent (au):  <R**2>=          32900.1643
 Charge=             -0.0000 electrons
 Dipole moment (field-independent basis, Debye):
    X=              0.0036    Y=              0.0007    Z=             -0.0005  Tot=              0.0037
 Quadrupole moment (field-independent basis, Debye-Ang):
   XX=           -203.5039   YY=           -205.6889   ZZ=           -217.2337
   XY=             -0.0142   XZ=              0.0006   YZ=              0.0051
 Traceless Quadrupole moment (field-independent basis, Debye-Ang):
   XX=              5.3049   YY=              3.1199   ZZ=             -8.4249
   XY=             -0.0142   XZ=              0.0006   YZ=              0.0051
 Octapole moment (field-independent basis, Debye-Ang**2):
  XXX=              0.1196  YYY=              0.0118  ZZZ=             -0.0206  XYY=              0.0434
  XXY=              0.0412  XXZ=             -0.0047  XZZ=              0.0473  YZZ=              0.0053
  YYZ=              0.0106  XYZ=             35.3709
 Hexadecapole moment (field-independent basis, Debye-Ang**3):
 XXXX=         -37294.5143 YYYY=          -5714.0450 ZZZZ=          -1523.0437 XXXY=             -0.6114
 XXXZ=             -0.0334 YYYX=             -0.1894 YYYZ=             -0.0277 ZZZX=              0.0407
 ZZZY=              0.0670 XXYY=          -6673.7425 XXZZ=          -6832.2235 YYZZ=          -1107.0751
 XXYZ=              0.0715 YYXZ=             -0.0229 ZZXY=             -0.1137
 N-N= 3.528765526123D+03 E-N=-1.053372372373D+04  KE= 1.489810116669D+03
 No NMR shielding tensors so no spin-rotation constants.
 Leave Link  601 at Sun Jan 17 21:29:45 2021, MaxMem=  4026531840 cpu:               5.3 elap:               0.7
 (Enter /opt/ohpc/pub/libs/gaussian/g16-A.03/sandybridge/g16/l9999.exe)

 Test job not archived.
 1\1\GINC-CASCADEB019\FOpt\RLC-wHPBE\TZVP\C36H28N2\RDU230\17-Jan-2021\0
 \\#P LC-wHPBE/TZVP iop(3/107=0281800000, 3/108=0281800000) opt\\H28 C3
 6 N2\\0,1\C,-0.2967301479,0.3603190609,-1.018055246\C,-1.262750854,1.0
 983429077,-0.3317828075\C,0.9121032643,0.0521967877,-0.4151313938\C,-0
 .9793268143,1.52388151,0.9672037071\C,1.2093257026,0.4802135512,0.8804
 850233\C,0.2393982802,1.2250128826,1.5547239631\H,1.6579390357,-0.5047
 877724,-0.9796457677\H,-1.7267290167,2.0885845314,1.5199468237\H,0.427
 1842688,1.5485450467,2.5770970651\C,2.5082994493,0.155454258,1.5174107
 388\C,3.1823940338,1.0921576155,2.3037478329\C,3.1013665904,-1.0980034
 435,1.3523927278\C,4.4005852633,0.796648646,2.894035078\C,4.3108621257
 ,-1.4093186565,1.952382762\C,4.9804788201,-0.462494772,2.7294894942\H,
 2.7622554754,2.0887441082,2.4281707814\H,2.5877890257,-1.8612297544,0.
 7702388364\H,4.9161696137,1.5495714839,3.4859055939\H,4.7432657962,-2.
 3992280457,1.8253538606\H,-0.4972501552,0.0326062258,-2.0356103281\N,6
 .2203023447,-0.772398992,3.3373636346\C,7.1855783716,-1.5316861575,2.6
 313602875\C,7.9249485843,-2.5200569012,3.2845281175\C,7.4116985773,-1.
 302761698,1.2724554827\C,8.8758228112,-3.2553978942,2.59161192\C,8.351
 6375405,-2.0552234023,0.5829640021\C,9.0926286015,-3.0321984131,1.2371
 163947\H,7.7501824524,-2.7060940026,4.3417992709\H,6.8427703972,-0.530
 6657808,0.7594547476\H,9.4440632413,-4.0214386827,3.1160349889\H,8.515
 0902277,-1.8643883521,-0.476094269\H,9.8338765139,-3.6154033049,0.6952
 082407\C,6.4966950661,-0.323305963,4.6521988684\C,7.7628439403,0.16463
 02281,4.9822613626\C,5.5072637976,-0.3621475232,5.6368971453\C,8.03215
 19348,0.5951525892,6.2734420094\C,5.7798433281,0.0874172455,6.92091455
 03\C,7.0432295427,0.5642502984,7.2494415906\H,8.5363007692,0.201538328
 6,4.2184699374\H,4.5207305519,-0.7461088906,5.3872774226\H,9.024591016
 6,0.9717667453,6.5141941588\H,4.9971313695,0.0508269976,7.6764045458\H
 ,7.2556692816,0.9092211604,8.2589495882\N,-2.5024605826,1.4083740558,-
 0.9397185798\C,-3.0835074811,2.6867637545,-0.7528021043\C,-4.458564948
 8,2.8161500856,-0.546331418\C,-2.2898713592,3.8356270862,-0.7724709814
 \C,-5.0251413219,4.0706981739,-0.3727328135\C,-2.8621350553,5.08481798
 78,-0.579799228\C,-4.2320802495,5.2119325421,-0.3834420916\H,-5.081279
 0479,1.9246528253,-0.5255175057\H,-1.2190268294,3.7417086445,-0.938178
 4178\H,-6.0987139474,4.1539168278,-0.2138330639\H,-2.2291480115,5.9701
 213534,-0.597456814\H,-4.6784945572,6.1934371635,-0.2399028494\C,-3.16
 32348155,0.4404128117,-1.7355254457\C,-3.7928128949,0.8121359608,-2.92
 52922514\C,-3.1946168582,-0.8989916421,-1.3416493539\C,-4.4466631333,-
 0.1373700043,-3.6972870528\C,-3.8350969942,-1.8450592171,-2.1289259975
 \C,-4.4686715087,-1.4713474998,-3.3080838878\H,-3.7679589807,1.8530869
 437,-3.2395823635\H,-2.7106495382,-1.1936852469,-0.4132511186\H,-4.933
 0872283,0.1693397185,-4.6214345334\H,-3.8497145714,-2.8849393248,-1.80
 77179088\H,-4.9761001038,-2.2144318057,-3.9193029619\\Version=EM64L-G1
 6RevA.03\State=1-A\HF=-1497.3935231\RMSD=6.307e-09\RMSF=4.225e-06\Dipo
 le=-0.0013649,0.0003943,-0.0002865\Quadrupole=1.716918,-0.9704341,-0.7
 464839,-2.7973142,3.1123248,3.2171648\PG=C01 [X(C36H28N2)]\\@


 CONFIDENCE: THAT QUIET ASSURED FEELING YOU HAVE
 JUST BEFORE YOU FALL FLAT ON YOUR FACE.
 Job cpu time:       1 days 14 hours 16 minutes 37.6 seconds.
 Elapsed time:       0 days  4 hours 51 minutes 54.4 seconds.
 File lengths (MBytes):  RWF=    544 Int=      0 D2E=      0 Chk=     64 Scr=      8
 Normal termination of Gaussian 16 at Sun Jan 17 21:29:45 2021.
