 Entering Gaussian System, Link 0=g16
 Input=mol_ta_NN_frag_tune_c3.gjf
 Output=mol_ta_NN_frag_tune_c3.log
 Initial command:
 /opt/ohpc/pub/libs/gaussian/g16-A.03/sandybridge/g16/l1.exe "/mnt/gpfs2_4m/scratch/rdu230/ondemand/projects/init_structures/gaussian/wtuning/mol_ta_NN_frag/tuning_mol_ta_NN_frag_ocycle0/Gau-22907.inp" -scrdir="/mnt/gpfs2_4m/scratch/rdu230/ondemand/projects/init_structures/gaussian/wtuning/mol_ta_NN_frag/tuning_mol_ta_NN_frag_ocycle0/"
 Entering Link 1 = /opt/ohpc/pub/libs/gaussian/g16-A.03/sandybridge/g16/l1.exe PID=     22908.
  
 Copyright (c) 1988,1990,1992,1993,1995,1998,2003,2009,2016,
            Gaussian, Inc.  All Rights Reserved.
  
 This is part of the Gaussian(R) 16 program.  It is based on
 the Gaussian(R) 09 system (copyright 2009, Gaussian, Inc.),
 the Gaussian(R) 03 system (copyright 2003, Gaussian, Inc.),
 the Gaussian(R) 98 system (copyright 1998, Gaussian, Inc.),
 the Gaussian(R) 94 system (copyright 1995, Gaussian, Inc.),
 the Gaussian 92(TM) system (copyright 1992, Gaussian, Inc.),
 the Gaussian 90(TM) system (copyright 1990, Gaussian, Inc.),
 the Gaussian 88(TM) system (copyright 1988, Gaussian, Inc.),
 the Gaussian 86(TM) system (copyright 1986, Carnegie Mellon
 University), and the Gaussian 82(TM) system (copyright 1983,
 Carnegie Mellon University). Gaussian is a federally registered
 trademark of Gaussian, Inc.
  
 This software contains proprietary and confidential information,
 including trade secrets, belonging to Gaussian, Inc.
  
 This software is provided under written license and may be
 used, copied, transmitted, or stored only in accord with that
 written license.
  
 The following legend is applicable only to US Government
 contracts under FAR:
  
                    RESTRICTED RIGHTS LEGEND
  
 Use, reproduction and disclosure by the US Government is
 subject to restrictions as set forth in subparagraphs (a)
 and (c) of the Commercial Computer Software - Restricted
 Rights clause in FAR 52.227-19.
  
 Gaussian, Inc.
 340 Quinnipiac St., Bldg. 40, Wallingford CT 06492
  
  
 ---------------------------------------------------------------
 Warning -- This program may not be used in any manner that
 competes with the business of Gaussian, Inc. or will provide
 assistance to any competitor of Gaussian, Inc.  The licensee
 of this program is prohibited from giving any competitor of
 Gaussian, Inc. access to this program.  By using this program,
 the user acknowledges that Gaussian, Inc. is engaged in the
 business of creating and licensing software in the field of
 computational chemistry and represents and warrants to the
 licensee that it is not a competitor of Gaussian, Inc. and that
 it will not use this program in any manner prohibited above.
 ---------------------------------------------------------------
  

 Cite this work as:
 Gaussian 16, Revision A.03,
 M. J. Frisch, G. W. Trucks, H. B. Schlegel, G. E. Scuseria, 
 M. A. Robb, J. R. Cheeseman, G. Scalmani, V. Barone, 
 G. A. Petersson, H. Nakatsuji, X. Li, M. Caricato, A. V. Marenich, 
 J. Bloino, B. G. Janesko, R. Gomperts, B. Mennucci, H. P. Hratchian, 
 J. V. Ortiz, A. F. Izmaylov, J. L. Sonnenberg, D. Williams-Young, 
 F. Ding, F. Lipparini, F. Egidi, J. Goings, B. Peng, A. Petrone, 
 T. Henderson, D. Ranasinghe, V. G. Zakrzewski, J. Gao, N. Rega, 
 G. Zheng, W. Liang, M. Hada, M. Ehara, K. Toyota, R. Fukuda, 
 J. Hasegawa, M. Ishida, T. Nakajima, Y. Honda, O. Kitao, H. Nakai, 
 T. Vreven, K. Throssell, J. A. Montgomery, Jr., J. E. Peralta, 
 F. Ogliaro, M. J. Bearpark, J. J. Heyd, E. N. Brothers, K. N. Kudin, 
 V. N. Staroverov, T. A. Keith, R. Kobayashi, J. Normand, 
 K. Raghavachari, A. P. Rendell, J. C. Burant, S. S. Iyengar, 
 J. Tomasi, M. Cossi, J. M. Millam, M. Klene, C. Adamo, R. Cammi, 
 J. W. Ochterski, R. L. Martin, K. Morokuma, O. Farkas, 
 J. B. Foresman, and D. J. Fox, Gaussian, Inc., Wallingford CT, 2016.
 
 ******************************************
 Gaussian 16:  EM64L-G16RevA.03 25-Dec-2016
                25-Jan-2021 
 ******************************************
 %mem=30GB
 %nproc=8
 Will use up to    8 processors via shared memory.
 ----------------------------------------------------------------------
 #P LC-wHPBE/TZVP iop(3/107=0236300000, 3/108=0236300000) scf=(conver=6
 ,fermi,ndamp=35,noincfock,novaracc,vshift=500,xqc)
 ----------------------------------------------------------------------
 1/38=1,172=1/1;
 2/12=2,17=6,18=5,40=1/2;
 3/5=19,7=101,11=2,25=1,30=1,74=-71,107=236300000,108=236300000/1,2,3;
 4//1;
 5/5=100002,6=6,8=3,10=500,13=1,18=-1,22=13,38=1,93=35/2,8;
 6/7=2,8=2,9=2,10=2,28=1/1;
 99/5=1,9=1/99;
 Leave Link    1 at Mon Jan 25 22:56:38 2021, MaxMem=  4026531840 cpu:               1.8 elap:               0.3
 (Enter /opt/ohpc/pub/libs/gaussian/g16-A.03/sandybridge/g16/l101.exe)
 ----------
 H10 C12 S2
 ----------
 Symbolic Z-matrix:
 Charge =  1 Multiplicity = 2
 C                    -2.57406  -1.43439  -0.04912 
 C                    -1.3689   -0.74526  -0.21633 
 S                     0.09361  -1.6785   -0.58502 
 C                    -1.39769   0.6269   -0.04601 
 C                     1.5004    0.81193   0.07728 
 C                     1.478     0.22042   1.30703 
 C                    -3.74692  -0.7831    0.22955 
 C                    -2.58435   1.29375   0.2566 
 H                    -0.03994   1.86089  -1.54701 
 C                     2.47311   0.78653  -0.92565 
 C                     2.64532  -0.55997   1.49244 
 C                     3.6555   -0.64998   0.56353 
 C                     3.58396   0.0351   -0.65675 
 H                     2.35765   1.30229  -1.87483 
 H                     2.7634   -1.11931   2.41921 
 H                     4.52778  -1.26248   0.77318 
 H                     4.39141  -0.03819  -1.37873 
 C                    -3.75991   0.59754   0.38456 
 H                    -2.55732  -2.51417  -0.13851 
 H                    -0.52597  -2.52836  -1.4318 
 H                    -4.66547  -1.34521   0.34964 
 H                    -2.5581    2.36848   0.40667 
 H                    -4.68189   1.11503   0.61977 
 S                     0.00401   1.73877  -0.20875 
 
 ITRead=  0  0  0  0  0  0  0  0  0  0  0  0  0  0  0  0  0  0  0  0
 ITRead=  0  0  0  0
 MicOpt= -1 -1 -1 -1 -1 -1 -1 -1 -1 -1 -1 -1 -1 -1 -1 -1 -1 -1 -1 -1
 MicOpt= -1 -1 -1 -1
 NAtoms=     24 NQM=       24 NQMF=       0 NMMI=      0 NMMIF=      0
                NMic=       0 NMicF=      0.
                    Isotopes and Nuclear Properties:
 (Nuclear quadrupole moments (NQMom) in fm**2, nuclear magnetic moments (NMagM)
  in nuclear magnetons)

  Atom         1           2           3           4           5           6           7           8           9          10
 IAtWgt=          12          12          32          12          12          12          12          12           1          12
 AtmWgt=  12.0000000  12.0000000  31.9720718  12.0000000  12.0000000  12.0000000  12.0000000  12.0000000   1.0078250  12.0000000
 NucSpn=           0           0           0           0           0           0           0           0           1           0
 AtZEff=  -0.0000000  -0.0000000  -0.0000000  -0.0000000  -0.0000000  -0.0000000  -0.0000000  -0.0000000  -0.0000000  -0.0000000
 NQMom=    0.0000000   0.0000000   0.0000000   0.0000000   0.0000000   0.0000000   0.0000000   0.0000000   0.0000000   0.0000000
 NMagM=    0.0000000   0.0000000   0.0000000   0.0000000   0.0000000   0.0000000   0.0000000   0.0000000   2.7928460   0.0000000
 AtZNuc=   6.0000000   6.0000000  16.0000000   6.0000000   6.0000000   6.0000000   6.0000000   6.0000000   1.0000000   6.0000000

  Atom        11          12          13          14          15          16          17          18          19          20
 IAtWgt=          12          12          12           1           1           1           1          12           1           1
 AtmWgt=  12.0000000  12.0000000  12.0000000   1.0078250   1.0078250   1.0078250   1.0078250  12.0000000   1.0078250   1.0078250
 NucSpn=           0           0           0           1           1           1           1           0           1           1
 AtZEff=  -0.0000000  -0.0000000  -0.0000000  -0.0000000  -0.0000000  -0.0000000  -0.0000000  -0.0000000  -0.0000000  -0.0000000
 NQMom=    0.0000000   0.0000000   0.0000000   0.0000000   0.0000000   0.0000000   0.0000000   0.0000000   0.0000000   0.0000000
 NMagM=    0.0000000   0.0000000   0.0000000   2.7928460   2.7928460   2.7928460   2.7928460   0.0000000   2.7928460   2.7928460
 AtZNuc=   6.0000000   6.0000000   6.0000000   1.0000000   1.0000000   1.0000000   1.0000000   6.0000000   1.0000000   1.0000000

  Atom        21          22          23          24
 IAtWgt=           1           1           1          32
 AtmWgt=   1.0078250   1.0078250   1.0078250  31.9720718
 NucSpn=           1           1           1           0
 AtZEff=  -0.0000000  -0.0000000  -0.0000000  -0.0000000
 NQMom=    0.0000000   0.0000000   0.0000000   0.0000000
 NMagM=    2.7928460   2.7928460   2.7928460   0.0000000
 AtZNuc=   1.0000000   1.0000000   1.0000000  16.0000000
 Leave Link  101 at Mon Jan 25 22:56:38 2021, MaxMem=  4026531840 cpu:               0.8 elap:               0.1
 (Enter /opt/ohpc/pub/libs/gaussian/g16-A.03/sandybridge/g16/l202.exe)
                          Input orientation:                          
 ---------------------------------------------------------------------
 Center     Atomic      Atomic             Coordinates (Angstroms)
 Number     Number       Type             X           Y           Z
 ---------------------------------------------------------------------
      1          6           0       -2.574063   -1.434391   -0.049117
      2          6           0       -1.368901   -0.745264   -0.216328
      3         16           0        0.093606   -1.678504   -0.585022
      4          6           0       -1.397687    0.626896   -0.046009
      5          6           0        1.500395    0.811934    0.077279
      6          6           0        1.478004    0.220423    1.307027
      7          6           0       -3.746915   -0.783096    0.229547
      8          6           0       -2.584351    1.293751    0.256604
      9          1           0       -0.039943    1.860892   -1.547006
     10          6           0        2.473105    0.786527   -0.925649
     11          6           0        2.645316   -0.559969    1.492438
     12          6           0        3.655495   -0.649979    0.563531
     13          6           0        3.583956    0.035098   -0.656753
     14          1           0        2.357645    1.302286   -1.874829
     15          1           0        2.763398   -1.119309    2.419207
     16          1           0        4.527775   -1.262476    0.773175
     17          1           0        4.391412   -0.038194   -1.378729
     18          6           0       -3.759914    0.597536    0.384558
     19          1           0       -2.557315   -2.514169   -0.138510
     20          1           0       -0.525974   -2.528359   -1.431800
     21          1           0       -4.665467   -1.345208    0.349638
     22          1           0       -2.558102    2.368477    0.406674
     23          1           0       -4.681894    1.115025    0.619767
     24         16           0        0.004008    1.738768   -0.208750
 ---------------------------------------------------------------------
                    Distance matrix (angstroms):
                    1          2          3          4          5
     1  C    0.000000
     2  C    1.398310   0.000000
     3  S    2.731894   1.773640   0.000000
     4  C    2.373347   1.382990   2.798099   0.000000
     5  C    4.654370   3.277793   2.935980   2.906599   0.000000
     6  C    4.582225   3.370168   3.017007   3.203986   1.364796
     7  C    1.370190   2.419749   4.026770   2.753703   5.486490
     8  C    2.745238   2.420447   4.088287   1.394432   4.116972
     9  H    4.418634   3.213858   3.670228   2.370487   2.472095
    10  C    5.583430   4.196490   3.443025   3.972692   1.397381
    11  C    5.512071   4.366710   3.475368   4.485682   2.279394
    12  C    6.308568   5.085451   3.881249   5.247532   2.649167
    13  C    6.360017   5.033263   3.888974   5.053712   2.341688
    14  H    5.928269   4.564015   3.959114   4.231224   2.187704
    15  H    5.889006   4.915470   4.057817   5.142096   3.287781
    16  H    7.151351   6.001451   4.656139   6.273108   3.735302
    17  H    7.227384   5.918812   4.668161   5.977638   3.346738
    18  C    2.392288   2.807333   4.579308   2.401326   5.273636
    19  H    1.083601   2.132465   2.815154   3.349565   5.251146
    20  H    2.702452   2.316749   1.350247   3.554706   4.188203
    21  H    2.130946   3.398176   4.861425   3.837202   6.537989
    22  H    3.830118   3.390828   4.938934   2.141165   4.359212
    23  H    3.374890   3.890457   5.662219   3.386376   6.213441
    24  S    4.091561   2.838195   3.439092   1.796522   1.783258
                    6          7          8          9         10
     6  C    0.000000
     7  C    5.428424   0.000000
     8  C    4.331068   2.380248   0.000000
     9  H    3.625025   4.887582   3.169964   0.000000
    10  C    2.509092   6.518193   5.218511   2.802812   0.000000
    11  C    1.416335   6.519609   5.684451   4.723283   2.773058
    12  C    2.460051   7.411136   6.542780   4.941164   2.383118
    13  C    2.885448   7.429444   6.361324   4.154361   1.367823
    14  H    3.473961   6.785490   5.382045   2.483533   1.086407
    15  H    2.164270   6.876905   6.252850   5.698348   3.860640
    16  H    3.432942   8.306373   7.575188   6.000226   3.362452
    17  H    3.970908   8.329093   7.287638   4.824080   2.136667
    18  C    5.331880   1.389368   1.372238   4.377807   6.372039
    19  H    5.084424   2.132423   3.828459   5.240437   6.067892
    20  H    4.367254   4.022496   4.657912   4.417581   4.498792
    21  H    6.411710   1.083573   3.362113   5.939007   7.558430
    22  H    4.659927   3.372990   1.085470   3.227326   5.439733
    23  H    6.262346   2.151586   2.136239   5.176768   7.327362
    24  S    2.603001   4.541071   2.667245   1.344535   2.741742
                   11         12         13         14         15
    11  C    0.000000
    12  C    1.375293   0.000000
    13  C    2.419540   1.401264   0.000000
    14  H    3.858657   3.382507   2.143202   0.000000
    15  H    1.088901   2.111786   3.386370   4.946464   0.000000
    16  H    2.134129   1.086267   2.149229   4.277779   2.417218
    17  H    3.400691   2.165232   1.085636   2.485802   4.271248
    18  C    6.602589   7.521743   7.438622   6.559423   7.045634
    19  H    5.791913   6.524345   6.669524   6.460415   6.066097
    20  H    4.741604   4.999434   4.905460   4.815119   5.256962
    21  H    7.441111   8.352694   8.424432   7.828255   7.715062
    22  H    6.068792   6.909737   6.655855   5.523277   6.673328
    23  H    7.566714   8.522350   8.433269   7.470822   7.978885
    24  S    3.892909   4.431240   3.989890   2.916495   4.763297
                   16         17         18         19         20
    16  H    0.000000
    17  H    2.479547   0.000000
    18  C    8.502732   8.364057   0.000000
    19  H    7.252338   7.480201   3.376767   0.000000
    20  H    5.657274   5.512207   4.850644   2.408142   0.000000
    21  H    9.203365   9.312497   2.143712   2.459484   4.659267
    22  H    7.970433   7.568056   2.140344   4.912989   5.611464
    23  H    9.512836   9.362093   1.083128   4.273157   5.895324
    24  S    5.516893   4.876039   3.977629   4.965157   4.470470
                   21         22         23         24
    21  H    0.000000
    22  H    4.270327   0.000000
    23  H    2.475073   2.475286   0.000000
    24  S    5.623762   2.709186   4.799289   0.000000
 Stoichiometry    C12H10S2(1+,2)
 Framework group  C1[X(C12H10S2)]
 Deg. of freedom    66
 Full point group                 C1      NOp   1
 Largest Abelian subgroup         C1      NOp   1
 Largest concise Abelian subgroup C1      NOp   1
                         Standard orientation:                         
 ---------------------------------------------------------------------
 Center     Atomic      Atomic             Coordinates (Angstroms)
 Number     Number       Type             X           Y           Z
 ---------------------------------------------------------------------
      1          6           0        2.574063    1.434391   -0.049117
      2          6           0        1.368901    0.745264   -0.216328
      3         16           0       -0.093606    1.678504   -0.585022
      4          6           0        1.397687   -0.626896   -0.046009
      5          6           0       -1.500395   -0.811934    0.077279
      6          6           0       -1.478004   -0.220423    1.307027
      7          6           0        3.746915    0.783096    0.229547
      8          6           0        2.584351   -1.293751    0.256604
      9          1           0        0.039943   -1.860892   -1.547006
     10          6           0       -2.473105   -0.786527   -0.925649
     11          6           0       -2.645316    0.559969    1.492438
     12          6           0       -3.655495    0.649979    0.563531
     13          6           0       -3.583956   -0.035098   -0.656753
     14          1           0       -2.357645   -1.302286   -1.874829
     15          1           0       -2.763398    1.119309    2.419207
     16          1           0       -4.527775    1.262476    0.773175
     17          1           0       -4.391412    0.038194   -1.378729
     18          6           0        3.759914   -0.597536    0.384558
     19          1           0        2.557315    2.514169   -0.138510
     20          1           0        0.525974    2.528359   -1.431800
     21          1           0        4.665467    1.345208    0.349638
     22          1           0        2.558102   -2.368477    0.406674
     23          1           0        4.681894   -1.115025    0.619767
     24         16           0       -0.004008   -1.738768   -0.208750
 ---------------------------------------------------------------------
 Rotational constants (GHZ):           1.2365549           0.3949099           0.3394237
 Leave Link  202 at Mon Jan 25 22:56:38 2021, MaxMem=  4026531840 cpu:               0.2 elap:               0.1
 (Enter /opt/ohpc/pub/libs/gaussian/g16-A.03/sandybridge/g16/l301.exe)
 Standard basis: TZVP (5D, 7F)
 Ernie: Thresh=  0.10000D-02 Tol=  0.10000D-05 Strict=F.
 There are   346 symmetry adapted cartesian basis functions of A   symmetry.
 There are   332 symmetry adapted basis functions of A   symmetry.
   332 basis functions,   594 primitive gaussians,   346 cartesian basis functions
    57 alpha electrons       56 beta electrons
       nuclear repulsion energy      1040.6420683200 Hartrees.
 IExCor=33909 DFT=T Ex+Corr=LC-wHPBE ExCW=0 ScaHFX=  1.000000
 ScaDFX=  1.000000  1.000000  1.000000  1.000000 ScalE2=  1.000000  1.000000
 IRadAn=      5 IRanWt=     -1 IRanGd=            0 ICorTp=0 IEmpDi=  4
 HFx  wShort=  0.000000 wLong=  0.236300 cFull=  0.000000 cShort=  0.000000 cLong=  1.000000
 DFx  wShort=  0.000000 wLong=  0.236300 cFull=  0.000000 cShort=  1.000000 cLong=  0.000000
 NAtoms=   24 NActive=   24 NUniq=   24 SFac= 1.00D+00 NAtFMM=   60 NAOKFM=F Big=F
 Integral buffers will be    131072 words long.
 Raffenetti 2 integral format.
 Two-electron integral symmetry is turned on.
 Leave Link  301 at Mon Jan 25 22:56:38 2021, MaxMem=  4026531840 cpu:               0.5 elap:               0.1
 (Enter /opt/ohpc/pub/libs/gaussian/g16-A.03/sandybridge/g16/l302.exe)
 NPDir=0 NMtPBC=     1 NCelOv=     1 NCel=       1 NClECP=     1 NCelD=      1
         NCelK=      1 NCelE2=     1 NClLst=     1 CellRange=     0.0.
 One-electron integrals computed using PRISM.
 One-electron integral symmetry used in STVInt
 NBasis=   332 RedAO= T EigKep=  8.19D-06  NBF=   332
 NBsUse=   332 1.00D-06 EigRej= -1.00D+00 NBFU=   332
 Precomputing XC quadrature grid using
 IXCGrd= 4 IRadAn=           5 IRanWt=          -1 IRanGd=           0 AccXCQ= 0.00D+00.
 Generated NRdTot=       0 NPtTot=           0 NUsed=           0 NTot=          32
 NSgBfM=   338   338   338   338   338 MxSgAt=    24 MxSgA2=    24.
 Leave Link  302 at Mon Jan 25 22:56:39 2021, MaxMem=  4026531840 cpu:               3.2 elap:               0.4
 (Enter /opt/ohpc/pub/libs/gaussian/g16-A.03/sandybridge/g16/l303.exe)
 DipDrv:  MaxL=1.
 Leave Link  303 at Mon Jan 25 22:56:39 2021, MaxMem=  4026531840 cpu:               0.4 elap:               0.1
 (Enter /opt/ohpc/pub/libs/gaussian/g16-A.03/sandybridge/g16/l401.exe)
 ExpMin= 9.52D-02 ExpMax= 6.07D+04 ExpMxC= 2.07D+03 IAcc=3 IRadAn=         5 AccDes= 0.00D+00
 Harris functional with IExCor=33909 and IRadAn=       5 diagonalized for initial guess.
 HarFok:  IExCor=33909 AccDes= 0.00D+00 IRadAn=         5 IDoV= 1 UseB2=F ITyADJ=14
 ICtDFT=  3500011 ScaDFX=  1.000000  1.000000  1.000000  1.000000
 FoFCou: FMM=F IPFlag=           0 FMFlag=      100000 FMFlg1=           0
         NFxFlg=           0 DoJE=T BraDBF=F KetDBF=T FulRan=T
         wScrn=  0.000000 ICntrl=       500 IOpCl=  0 I1Cent=   200000004 NGrid=           0
         NMat0=    1 NMatS0=      1 NMatT0=    0 NMatD0=    1 NMtDS0=    0 NMtDT0=    0
 Petite list used in FoFCou.
 Harris En= -1244.60684833079    
 JPrj=0 DoOrth=F DoCkMO=F.
 Initial guess <Sx>= 0.0000 <Sy>= 0.0000 <Sz>= 0.5000 <S**2>= 0.7500 S= 0.5000
 Leave Link  401 at Mon Jan 25 22:56:41 2021, MaxMem=  4026531840 cpu:              19.6 elap:               2.5
 (Enter /opt/ohpc/pub/libs/gaussian/g16-A.03/sandybridge/g16/l502.exe)
 Integral symmetry usage will be decided dynamically.
 UHF open shell SCF:
 Using DIIS extrapolation, IDIIS=    10.
 NGot=  4026531840 LenX=  4026286196 LenY=  4026166039
 Requested convergence on RMS density matrix=1.00D-06 within  32 cycles.
 Requested convergence on MAX density matrix=1.00D-04.
 Requested convergence on             energy=1.00D-04.
 Virtual orbitals will be shifted by   0.500 hartree.
 No special actions if energy rises.
 Dynamic level shift is on during FON iterations.

 Cycle   1  Pass 1  IDiag  1:
 FoFJK:  IHMeth= 1 ICntrl=       0 DoSepK=T KAlg= 0 I1Cent=           0 FoldK=F
 IRaf=         1 NMat=       1 IRICut=       1 DoRegI=T DoRafI=F ISym2E= 0 IDoP0=0 IntGTp=1.
 FoFCou: FMM=F IPFlag=           0 FMFlag=      100000 FMFlg1=           0
         NFxFlg=           0 DoJE=T BraDBF=F KetDBF=F FulRan=T
         wScrn=  0.000000 ICntrl=       500 IOpCl=  0 I1Cent=           0 NGrid=           0
         NMat0=    1 NMatS0=      1 NMatT0=    0 NMatD0=    1 NMtDS0=    0 NMtDT0=    0
 Symmetry not used in FoFCou.
 E= -1258.21292105303    
 DIIS: error= 2.93D-02 at cycle   1 NSaved=   1.
 NSaved= 1 IEnMin= 1 EnMin= -1258.21292105303     IErMin= 1 ErrMin= 2.93D-02
 ErrMax= 2.93D-02  0.00D+00 EMaxC= 1.00D+00 BMatC= 1.64D+00 BMatP= 1.64D+00
 IDIUse=1 WtCom= 1.00D+00 WtEn= 0.00D+00
 Coeff-Com:  0.100D+01
 Coeff:      0.100D+01
 Gap=     0.651 Goal=   None    Shift=    0.500
 T= 1481. Gap= 0.484 NK=0 IS=   58 IE=  332 IFin=   57
          NO(<0.9)=   0  NV(>0.1)=   0     57.00e < EF      0.00e >EF  Err=0.0D+00
 Gap=    -0.180 Goal=   None    Shift=    0.500
 T= 1481. Gap= 0.269 NK=0 IS=   57 IE=  332 IFin=   56
          NO(<0.9)=   0  NV(>0.1)=   0     56.00e < EF      0.00e >EF  Err=0.0D+00
 GapD=   -0.180 DampG=0.250 DampE=0.500 DampFc=0.1250 IDamp=-1.
 Damping current iteration by 1.25D-01
 RMSDP=9.32D-03 MaxDP=6.13D-01              OVMax= 1.41D-01

 Cycle   2  Pass 1  IDiag  1:
 E= -1258.29854860560     Delta-E=       -0.085627552568 Rises=F Damp=T
 DIIS: error= 2.59D-02 at cycle   2 NSaved=   2.
 NSaved= 2 IEnMin= 2 EnMin= -1258.29854860560     IErMin= 2 ErrMin= 2.59D-02
 ErrMax= 2.59D-02  0.00D+00 EMaxC= 1.00D+00 BMatC= 1.16D+00 BMatP= 1.64D+00
 IDIUse=1 WtCom= 1.00D+00 WtEn= 0.00D+00
 Coeff-Com: -0.509D+01 0.609D+01
 Coeff:     -0.509D+01 0.609D+01
 Gap=     0.212 Goal=   None    Shift=    0.500
 T= 1457. Gap= 0.680 NK=0 IS=   58 IE=  332 IFin=   57
          NO(<0.9)=   0  NV(>0.1)=   0     57.00e < EF      0.00e >EF  Err=0.0D+00
 Gap=     0.017 Goal=   None    Shift=    0.500
 T= 1457. Gap= 0.511 NK=0 IS=   57 IE=  332 IFin=   56
          NO(<0.9)=   0  NV(>0.1)=   0     56.00e < EF      0.00e >EF  Err=0.0D+00
 GapD=    0.017 DampG=0.250 DampE=0.500 DampFc=0.1250 IDamp=-1.
 Damping current iteration by 1.25D-01
 RMSDP=8.53D-03 MaxDP=5.38D-01 DE=-8.56D-02 OVMax= 3.99D-02

 Cycle   3  Pass 1  IDiag  1:
 E= -1258.36493658700     Delta-E=       -0.066387981397 Rises=F Damp=T
 DIIS: error= 2.26D-02 at cycle   3 NSaved=   3.
 NSaved= 3 IEnMin= 3 EnMin= -1258.36493658700     IErMin= 3 ErrMin= 2.26D-02
 ErrMax= 2.26D-02  0.00D+00 EMaxC= 1.00D+00 BMatC= 8.63D-01 BMatP= 1.16D+00
 IDIUse=1 WtCom= 1.00D+00 WtEn= 0.00D+00
 Coeff-Com:  0.780D+00-0.791D+01 0.813D+01
 Coeff:      0.780D+00-0.791D+01 0.813D+01
 Gap=     0.212 Goal=   None    Shift=    0.500
 T= 1408. Gap= 0.711 NK=0 IS=   58 IE=  332 IFin=   57
          NO(<0.9)=   0  NV(>0.1)=   0     57.00e < EF      0.00e >EF  Err=0.0D+00
 Gap=     0.054 Goal=   None    Shift=    0.500
 T= 1408. Gap= 0.555 NK=0 IS=   57 IE=  332 IFin=   56
          NO(<0.9)=   0  NV(>0.1)=   0     56.00e < EF      0.00e >EF  Err=0.0D+00
 GapD=    0.054 DampG=0.500 DampE=0.500 DampFc=0.2500 IDamp=-1.
 Damping current iteration by 2.50D-01
 RMSDP=7.01D-03 MaxDP=4.26D-01 DE=-6.64D-02 OVMax= 3.39D-02

 Cycle   4  Pass 1  IDiag  1:
 E= -1258.46539080717     Delta-E=       -0.100454220175 Rises=F Damp=T
 DIIS: error= 1.68D-02 at cycle   4 NSaved=   4.
 NSaved= 4 IEnMin= 4 EnMin= -1258.46539080717     IErMin= 4 ErrMin= 1.68D-02
 ErrMax= 1.68D-02  0.00D+00 EMaxC= 1.00D+00 BMatC= 4.71D-01 BMatP= 8.63D-01
 IDIUse=1 WtCom= 1.00D+00 WtEn= 0.00D+00
 Coeff-Com: -0.114D+00 0.461D+01-0.997D+01 0.648D+01
 Coeff:     -0.114D+00 0.461D+01-0.997D+01 0.648D+01
 Gap=     0.224 Goal=   None    Shift=    0.500
 T= 1303. Gap= 0.724 NK=0 IS=   58 IE=  332 IFin=   57
          NO(<0.9)=   0  NV(>0.1)=   0     57.00e < EF      0.00e >EF  Err=0.0D+00
 Gap=     0.068 Goal=   None    Shift=    0.500
 T= 1303. Gap= 0.570 NK=0 IS=   57 IE=  332 IFin=   56
          NO(<0.9)=   0  NV(>0.1)=   0     56.00e < EF      0.00e >EF  Err=0.0D+00
 GapD=    0.068 DampG=0.500 DampE=0.500 DampFc=0.2500 IDamp=-1.
 Damping current iteration by 2.50D-01
 RMSDP=4.83D-03 MaxDP=3.09D-01 DE=-1.00D-01 OVMax= 4.04D-02

 Cycle   5  Pass 1  IDiag  1:
 E= -1258.53074537815     Delta-E=       -0.065354570979 Rises=F Damp=T
 DIIS: error= 1.33D-02 at cycle   5 NSaved=   5.
 NSaved= 5 IEnMin= 5 EnMin= -1258.53074537815     IErMin= 5 ErrMin= 1.33D-02
 ErrMax= 1.33D-02  0.00D+00 EMaxC= 1.00D+00 BMatC= 2.62D-01 BMatP= 4.71D-01
 IDIUse=1 WtCom= 1.00D+00 WtEn= 0.00D+00
 Coeff-Com: -0.367D+00 0.188D+01 0.276D+00-0.803D+01 0.723D+01
 Coeff:     -0.367D+00 0.188D+01 0.276D+00-0.803D+01 0.723D+01
 Gap=     0.233 Goal=   None    Shift=    0.500
 T= 1174. Gap= 0.733 NK=0 IS=   58 IE=  332 IFin=   57
          NO(<0.9)=   0  NV(>0.1)=   0     57.00e < EF      0.00e >EF  Err=0.0D+00
 Gap=     0.075 Goal=   None    Shift=    0.500
 T= 1174. Gap= 0.579 NK=0 IS=   57 IE=  332 IFin=   56
          NO(<0.9)=   0  NV(>0.1)=   0     56.00e < EF      0.00e >EF  Err=0.0D+00
 GapD=    0.075 DampG=0.500 DampE=0.500 DampFc=0.2500 IDamp=-1.
 Damping current iteration by 2.50D-01
 RMSDP=3.36D-03 MaxDP=2.22D-01 DE=-6.54D-02 OVMax= 4.79D-02

 Cycle   6  Pass 1  IDiag  1:
 E= -1258.57517773166     Delta-E=       -0.044432353504 Rises=F Damp=T
 DIIS: error= 1.08D-02 at cycle   6 NSaved=   6.
 NSaved= 6 IEnMin= 6 EnMin= -1258.57517773166     IErMin= 6 ErrMin= 1.08D-02
 ErrMax= 1.08D-02  0.00D+00 EMaxC= 1.00D+00 BMatC= 1.46D-01 BMatP= 2.62D-01
 IDIUse=1 WtCom= 1.00D+00 WtEn= 0.00D+00
 Coeff-Com: -0.159D+00-0.119D+01 0.501D+01-0.610D+01-0.217D+01 0.561D+01
 Coeff:     -0.159D+00-0.119D+01 0.501D+01-0.610D+01-0.217D+01 0.561D+01
 Gap=     0.242 Goal=   None    Shift=    0.500
 T= 1023. Gap= 0.742 NK=0 IS=   58 IE=  332 IFin=   57
          NO(<0.9)=   0  NV(>0.1)=   0     57.00e < EF      0.00e >EF  Err=0.0D+00
 Gap=     0.084 Goal=   None    Shift=    0.500
 T= 1023. Gap= 0.588 NK=0 IS=   57 IE=  332 IFin=   56
          NO(<0.9)=   0  NV(>0.1)=   0     56.00e < EF      0.00e >EF  Err=0.0D+00
 GapD=    0.084 DampG=0.500 DampE=0.500 DampFc=0.2500 IDamp=-1.
 Damping current iteration by 2.50D-01
 RMSDP=2.36D-03 MaxDP=1.53D-01 DE=-4.44D-02 OVMax= 5.42D-02

 Cycle   7  Pass 1  IDiag  1:
 E= -1258.60642841954     Delta-E=       -0.031250687887 Rises=F Damp=T
 DIIS: error= 8.72D-03 at cycle   7 NSaved=   7.
 NSaved= 7 IEnMin= 7 EnMin= -1258.60642841954     IErMin= 7 ErrMin= 8.72D-03
 ErrMax= 8.72D-03  0.00D+00 EMaxC= 1.00D+00 BMatC= 8.21D-02 BMatP= 1.46D-01
 IDIUse=1 WtCom= 1.00D+00 WtEn= 0.00D+00
 Coeff-Com: -0.139D+00-0.965D+00 0.367D+01-0.382D+01-0.105D+01 0.329D+00
 Coeff-Com:  0.297D+01
 Coeff:     -0.139D+00-0.965D+00 0.367D+01-0.382D+01-0.105D+01 0.329D+00
 Coeff:      0.297D+01
 Gap=     0.246 Goal=   None    Shift=    0.500
 T=  891. Gap= 0.746 NK=0 IS=   58 IE=  332 IFin=   57
          NO(<0.9)=   0  NV(>0.1)=   0     57.00e < EF      0.00e >EF  Err=0.0D+00
 Gap=     0.092 Goal=   None    Shift=    0.500
 T=  891. Gap= 0.595 NK=0 IS=   57 IE=  332 IFin=   56
          NO(<0.9)=   0  NV(>0.1)=   0     56.00e < EF      0.00e >EF  Err=0.0D+00
 GapD=    0.092 DampG=0.500 DampE=1.000 DampFc=0.5000 IDamp=-1.
 Damping current iteration by 5.00D-01
 RMSDP=1.74D-03 MaxDP=1.02D-01 DE=-3.13D-02 OVMax= 5.18D-02

 Cycle   8  Pass 1  IDiag  1:
 E= -1258.65082235724     Delta-E=       -0.044393937699 Rises=F Damp=T
 DIIS: error= 9.05D-03 at cycle   8 NSaved=   8.
 NSaved= 8 IEnMin= 8 EnMin= -1258.65082235724     IErMin= 7 ErrMin= 8.72D-03
 ErrMax= 9.05D-03  0.00D+00 EMaxC= 1.00D+00 BMatC= 2.08D-02 BMatP= 8.21D-02
 IDIUse=1 WtCom= 1.00D+00 WtEn= 0.00D+00
 Large coefficients: NSaved=  8 BigCof=   16.20 CofMax=   10.00 Det=-6.81D-07
 Inversion failed.  Reducing to  7 matrices.
 Large coefficients: NSaved=  7 BigCof=   15.11 CofMax=   10.00 Det=-6.91D-07
 Inversion failed.  Reducing to  6 matrices.
 Large coefficients: NSaved=  6 BigCof=   15.13 CofMax=   10.00 Det=-7.28D-07
 Inversion failed.  Reducing to  5 matrices.
 Large coefficients: NSaved=  5 BigCof=   12.56 CofMax=   10.00 Det=-1.60D-06
 Inversion failed.  Reducing to  4 matrices.
 Large coefficients: NSaved=  4 BigCof=   11.91 CofMax=   10.00 Det=-1.42D-06
 Inversion failed.  Reducing to  3 matrices.
 Coeff-Com:  0.344D+01-0.662D+01 0.418D+01
 Coeff:      0.344D+01-0.662D+01 0.418D+01
 Gap=     0.263 Goal=   None    Shift=    0.500
 T=  807. Gap= 0.763 NK=0 IS=   58 IE=  332 IFin=   57
          NO(<0.9)=   0  NV(>0.1)=   0     57.00e < EF      0.00e >EF  Err=0.0D+00
 Gap=     0.102 Goal=   None    Shift=    0.500
 T=  807. Gap= 0.606 NK=0 IS=   57 IE=  332 IFin=   56
          NO(<0.9)=   0  NV(>0.1)=   0     56.00e < EF      0.00e >EF  Err=0.0D+00
 GapD=    0.102 DampG=1.000 DampE=1.000 DampFc=1.0000 IDamp=-1.
 RMSDP=1.04D-03 MaxDP=6.30D-02 DE=-4.44D-02 OVMax= 5.92D-02

 Cycle   9  Pass 1  IDiag  1:
 E= -1258.69541790034     Delta-E=       -0.044595543099 Rises=F Damp=F
 DIIS: error= 9.58D-03 at cycle   9 NSaved=   4.
 NSaved= 4 IEnMin= 4 EnMin= -1258.69541790034     IErMin= 2 ErrMin= 8.72D-03
 ErrMax= 9.58D-03  0.00D+00 EMaxC= 1.00D+00 BMatC= 2.50D-03 BMatP= 2.08D-02
 IDIUse=1 WtCom= 1.00D+00 WtEn= 0.00D+00
 Coeff-Com:  0.266D+01-0.375D+01 0.494D+00 0.160D+01
 Coeff:      0.266D+01-0.375D+01 0.494D+00 0.160D+01
 Gap=     0.273 Goal=   None    Shift=    0.500
 T=  781. Gap= 0.773 NK=4 IS=   58 IE=   67 IFin=   57
          NO(<0.9)=   0  NV(>0.1)=   0     57.00e < EF      0.00e >EF  Err=0.0D+00
 Gap=     0.111 Goal=   None    Shift=    0.500
 T=  781. Gap= 0.617 NK=4 IS=   57 IE=   66 IFin=   56
          NO(<0.9)=   0  NV(>0.1)=   0     56.00e < EF      0.00e >EF  Err=0.0D+00
 GapD=    0.111 DampG=1.000 DampE=1.000 DampFc=1.0000 IDamp=-1.
 RMSDP=6.65D-04 MaxDP=4.87D-02 DE=-4.46D-02 OVMax= 6.94D-02

 Cycle  10  Pass 1  IDiag  1:
 E= -1258.70072125381     Delta-E=       -0.005303353467 Rises=F Damp=F
 DIIS: error= 1.00D-02 at cycle  10 NSaved=   5.
 NSaved= 5 IEnMin= 5 EnMin= -1258.70072125381     IErMin= 2 ErrMin= 8.72D-03
 ErrMax= 1.00D-02  0.00D+00 EMaxC= 1.00D+00 BMatC= 2.65D-03 BMatP= 2.50D-03
 IDIUse=1 WtCom= 1.00D+00 WtEn= 0.00D+00
 Coeff-Com:  0.417D+01-0.681D+01 0.263D+01 0.230D+01-0.128D+01
 Coeff:      0.417D+01-0.681D+01 0.263D+01 0.230D+01-0.128D+01
 Gap=     0.256 Goal=   None    Shift=    0.500
 T=  781. Gap= 0.756 NK=4 IS=   58 IE=   67 IFin=   57
          NO(<0.9)=   0  NV(>0.1)=   0     57.00e < EF      0.00e >EF  Err=0.0D+00
 Gap=     0.119 Goal=   None    Shift=    0.500
 T=  781. Gap= 0.620 NK=4 IS=   57 IE=   66 IFin=   56
          NO(<0.9)=   0  NV(>0.1)=   0     56.00e < EF      0.00e >EF  Err=0.0D+00
 GapD=    0.119 DampG=1.000 DampE=0.500 DampFc=0.5000 IDamp=-1.
 Damping current iteration by 5.00D-01
 RMSDP=3.58D-04 MaxDP=2.88D-02 DE=-5.30D-03 OVMax= 3.30D-02

 Cycle  11  Pass 1  IDiag  1:
 E= -1258.70163473786     Delta-E=       -0.000913484049 Rises=F Damp=T
 DIIS: error= 9.42D-03 at cycle  11 NSaved=   6.
 NSaved= 6 IEnMin= 6 EnMin= -1258.70163473786     IErMin= 2 ErrMin= 8.72D-03
 ErrMax= 9.42D-03  0.00D+00 EMaxC= 1.00D+00 BMatC= 3.15D-03 BMatP= 2.50D-03
 IDIUse=1 WtCom= 1.00D+00 WtEn= 0.00D+00
 Coeff-Com:  0.946D+00-0.363D+00-0.166D+01 0.332D+01-0.239D+01 0.115D+01
 Coeff:      0.946D+00-0.363D+00-0.166D+01 0.332D+01-0.239D+01 0.115D+01
 Gap=     0.261 Goal=   None    Shift=    0.500
 T=  781. Gap= 0.761 NK=4 IS=   58 IE=   67 IFin=   57
          NO(<0.9)=   0  NV(>0.1)=   0     57.00e < EF      0.00e >EF  Err=0.0D+00
 Gap=     0.121 Goal=   None    Shift=    0.500
 T=  781. Gap= 0.622 NK=4 IS=   57 IE=   66 IFin=   56
          NO(<0.9)=   0  NV(>0.1)=   0     56.00e < EF      0.00e >EF  Err=0.0D+00
 GapD=    0.121 DampG=1.000 DampE=1.000 DampFc=1.0000 IDamp=-1.
 RMSDP=3.06D-04 MaxDP=2.37D-02 DE=-9.13D-04 OVMax= 3.25D-02

 Cycle  12  Pass 1  IDiag  1:
 E= -1258.70440281582     Delta-E=       -0.002768077959 Rises=F Damp=F
 DIIS: error= 8.24D-03 at cycle  12 NSaved=   7.
 NSaved= 7 IEnMin= 7 EnMin= -1258.70440281582     IErMin= 7 ErrMin= 8.24D-03
 ErrMax= 8.24D-03  0.00D+00 EMaxC= 1.00D+00 BMatC= 5.59D-03 BMatP= 2.50D-03
 IDIUse=1 WtCom= 1.00D+00 WtEn= 0.00D+00
 Coeff-Com:  0.464D+00 0.549D+00-0.220D+01 0.339D+01-0.174D+01 0.988D-01
 Coeff-Com:  0.427D+00
 Coeff:      0.464D+00 0.549D+00-0.220D+01 0.339D+01-0.174D+01 0.988D-01
 Coeff:      0.427D+00
 Gap=     0.264 Goal=   None    Shift=    0.500
 T=  781. Gap= 0.764 NK=4 IS=   58 IE=   67 IFin=   57
          NO(<0.9)=   0  NV(>0.1)=   0     57.00e < EF      0.00e >EF  Err=0.0D+00
 Gap=     0.123 Goal=   None    Shift=    0.500
 T=  781. Gap= 0.624 NK=4 IS=   57 IE=   66 IFin=   56
          NO(<0.9)=   0  NV(>0.1)=   0     56.00e < EF      0.00e >EF  Err=0.0D+00
 GapD=    0.123 DampG=1.000 DampE=1.000 DampFc=1.0000 IDamp=-1.
 RMSDP=1.79D-04 MaxDP=1.57D-02 DE=-2.77D-03 OVMax= 2.84D-02

 Cycle  13  Pass 1  IDiag  1:
 E= -1258.70610295723     Delta-E=       -0.001700141412 Rises=F Damp=F
 DIIS: error= 7.83D-03 at cycle  13 NSaved=   8.
 NSaved= 8 IEnMin= 8 EnMin= -1258.70610295723     IErMin= 8 ErrMin= 7.83D-03
 ErrMax= 7.83D-03  0.00D+00 EMaxC= 1.00D+00 BMatC= 6.76D-03 BMatP= 2.50D-03
 IDIUse=1 WtCom= 1.00D+00 WtEn= 0.00D+00
 Coeff-Com: -0.168D+00 0.191D+01-0.323D+01 0.365D+01-0.162D+01-0.821D+00
 Coeff-Com:  0.355D+01-0.226D+01
 Coeff:     -0.168D+00 0.191D+01-0.323D+01 0.365D+01-0.162D+01-0.821D+00
 Coeff:      0.355D+01-0.226D+01
 Gap=     0.261 Goal=   None    Shift=    0.500
 T=  739. Gap= 0.761 NK=4 IS=   58 IE=   67 IFin=   57
          NO(<0.9)=   0  NV(>0.1)=   0     57.00e < EF      0.00e >EF  Err=0.0D+00
 Gap=     0.126 Goal=   None    Shift=    0.500
 T=  739. Gap= 0.627 NK=4 IS=   57 IE=   66 IFin=   56
          NO(<0.9)=   0  NV(>0.1)=   0     56.00e < EF      0.00e >EF  Err=0.0D+00
 GapD=    0.126 DampG=1.000 DampE=1.000 DampFc=1.0000 IDamp=-1.
 RMSDP=1.22D-04 MaxDP=9.32D-03 DE=-1.70D-03 OVMax= 2.01D-02

 Cycle  14  Pass 1  IDiag  1:
 E= -1258.70694251030     Delta-E=       -0.000839553068 Rises=F Damp=F
 DIIS: error= 7.26D-03 at cycle  14 NSaved=   9.
 NSaved= 9 IEnMin= 9 EnMin= -1258.70694251030     IErMin= 9 ErrMin= 7.26D-03
 ErrMax= 7.26D-03  0.00D+00 EMaxC= 1.00D+00 BMatC= 8.60D-03 BMatP= 2.50D-03
 IDIUse=1 WtCom= 1.00D+00 WtEn= 0.00D+00
 Large coefficients: NSaved=  9 BigCof=   18.56 CofMax=   10.00 Det=-1.49D-07
 Inversion failed.  Reducing to  8 matrices.
 Large coefficients: NSaved=  8 BigCof=   18.03 CofMax=   10.00 Det=-1.58D-07
 Inversion failed.  Reducing to  7 matrices.
 Coeff-Com:  0.125D+00 0.212D+01 0.279D+01-0.562D+01 0.423D+01-0.746D+01
 Coeff-Com:  0.482D+01
 Coeff:      0.125D+00 0.212D+01 0.279D+01-0.562D+01 0.423D+01-0.746D+01
 Coeff:      0.482D+01
 Gap=     0.251 Goal=   None    Shift=    0.500
 T=  686. Gap= 0.751 NK=4 IS=   58 IE=   67 IFin=   57
          NO(<0.9)=   0  NV(>0.1)=   0     57.00e < EF      0.00e >EF  Err=0.0D+00
 Gap=     0.111 Goal=   None    Shift=    0.500
 T=  686. Gap= 0.611 NK=4 IS=   57 IE=   66 IFin=   56
          NO(<0.9)=   0  NV(>0.1)=   0     56.00e < EF      0.00e >EF  Err=0.0D+00
 GapD=    0.111 DampG=1.000 DampE=1.000 DampFc=1.0000 IDamp=-1.
 RMSDP=3.12D-04 MaxDP=2.89D-02 DE=-8.40D-04 OVMax= 5.08D-03

 Cycle  15  Pass 1  IDiag  1:
 E= -1258.70580949940     Delta-E=        0.001133010893 Rises=F Damp=F
 DIIS: error= 6.41D-03 at cycle  15 NSaved=   8.
 NSaved= 8 IEnMin= 7 EnMin= -1258.70694251030     IErMin= 8 ErrMin= 6.41D-03
 ErrMax= 6.41D-03  0.00D+00 EMaxC= 1.00D+00 BMatC= 1.18D-02 BMatP= 2.50D-03
 IDIUse=1 WtCom= 1.00D+00 WtEn= 0.00D+00
 Coeff-Com:  0.138D+00 0.350D+01-0.312D+01-0.770D+00-0.260D+01 0.495D+01
 Coeff-Com:  0.165D+01-0.276D+01
 Coeff:      0.138D+00 0.350D+01-0.312D+01-0.770D+00-0.260D+01 0.495D+01
 Coeff:      0.165D+01-0.276D+01
 Gap=     0.256 Goal=   None    Shift=    0.000
 T=  637. Gap= 0.256 NK=4 IS=   58 IE=   67 IFin=   57
          NO(<0.9)=   0  NV(>0.1)=   0     57.00e < EF      0.00e >EF  Err=0.0D+00
 Gap=     0.109 Goal=   None    Shift=    0.000
 T=  637. Gap= 0.109 NK=3 IS=   57 IE=   65 IFin=   56
          NO(<0.9)=   0  NV(>0.1)=   0     56.00e < EF      0.00e >EF  Err=0.0D+00
 GapD=    0.109 DampG=1.000 DampE=1.000 DampFc=1.0000 IDamp=-1.
 RMSDP=2.56D-04 MaxDP=2.45D-02 DE= 1.13D-03 OVMax= 3.87D-02

 Cycle  16  Pass 1  IDiag  1:
 E= -1258.70693127152     Delta-E=       -0.001121772121 Rises=F Damp=F
 DIIS: error= 5.43D-03 at cycle  16 NSaved=   9.
 NSaved= 9 IEnMin= 7 EnMin= -1258.70694251030     IErMin= 9 ErrMin= 5.43D-03
 ErrMax= 5.43D-03  0.00D+00 EMaxC= 1.00D+00 BMatC= 1.59D-02 BMatP= 2.50D-03
 IDIUse=1 WtCom= 1.00D+00 WtEn= 0.00D+00
 Coeff-Com:  0.139D+00 0.424D+01-0.508D+01-0.551D+00 0.487D-01 0.543D+01
 Coeff-Com:  0.134D+01-0.592D+01 0.137D+01
 Coeff:      0.139D+00 0.424D+01-0.508D+01-0.551D+00 0.487D-01 0.543D+01
 Coeff:      0.134D+01-0.592D+01 0.137D+01
 Gap=     0.252 Goal=   None    Shift=    0.000
 T=  566. Gap= 0.252 NK=4 IS=   58 IE=   67 IFin=   57
          NO(<0.9)=   0  NV(>0.1)=   0     57.00e < EF      0.00e >EF  Err=0.0D+00
 Gap=     0.105 Goal=   None    Shift=    0.000
 T=  566. Gap= 0.106 NK=3 IS=   57 IE=   65 IFin=   56
          NO(<0.9)=   0  NV(>0.1)=   0     56.00e < EF      0.00e >EF  Err=0.0D+00
 GapD=    0.105 DampG=1.000 DampE=1.000 DampFc=1.0000 IDamp=-1.
 RMSDP=2.36D-04 MaxDP=1.69D-02 DE=-1.12D-03 OVMax= 2.56D-02

 Cycle  17  Pass 1  IDiag  1:
 E= -1258.70503770153     Delta-E=        0.001893569995 Rises=F Damp=F
 DIIS: error= 5.58D-03 at cycle  17 NSaved=  10.
 NSaved=10 IEnMin= 7 EnMin= -1258.70694251030     IErMin= 9 ErrMin= 5.43D-03
 ErrMax= 5.58D-03  0.00D+00 EMaxC= 1.00D+00 BMatC= 1.51D-02 BMatP= 2.50D-03
 IDIUse=1 WtCom= 1.00D+00 WtEn= 0.00D+00
 Coeff-Com:  0.140D+00 0.426D+01-0.510D+00-0.653D+01 0.276D+01 0.219D+00
 Coeff-Com:  0.325D+01-0.145D+01 0.276D+01-0.389D+01
 Coeff:      0.140D+00 0.426D+01-0.510D+00-0.653D+01 0.276D+01 0.219D+00
 Coeff:      0.325D+01-0.145D+01 0.276D+01-0.389D+01
 Gap=     0.261 Goal=   None    Shift=    0.000
 T=  511. Gap= 0.261 NK=4 IS=   58 IE=   67 IFin=   57
          NO(<0.9)=   0  NV(>0.1)=   0     57.00e < EF      0.00e >EF  Err=0.0D+00
 Gap=     0.105 Goal=   None    Shift=    0.000
 T=  511. Gap= 0.106 NK=3 IS=   57 IE=   65 IFin=   56
          NO(<0.9)=   0  NV(>0.1)=   0     56.00e < EF      0.00e >EF  Err=0.0D+00
 GapD=    0.105 DampG=1.000 DampE=1.000 DampFc=1.0000 IDamp=-1.
 RMSDP=5.42D-04 MaxDP=3.81D-02 DE= 1.89D-03 OVMax= 5.38D-02

 Cycle  18  Pass 1  IDiag  1:
 E= -1258.70935562065     Delta-E=       -0.004317919123 Rises=F Damp=F
 DIIS: error= 5.37D-03 at cycle  18 NSaved=  11.
 NSaved=11 IEnMin=11 EnMin= -1258.70935562065     IErMin=11 ErrMin= 5.37D-03
 ErrMax= 5.37D-03  0.00D+00 EMaxC= 1.00D+00 BMatC= 1.63D-02 BMatP= 2.50D-03
 IDIUse=1 WtCom= 1.00D+00 WtEn= 0.00D+00
 Coeff-Com:  0.126D+00 0.572D+01-0.650D+01-0.302D+01 0.635D+01 0.653D+01
 Coeff-Com: -0.310D+01-0.746D+01 0.627D+01-0.589D+01 0.197D+01
 Coeff:      0.126D+00 0.572D+01-0.650D+01-0.302D+01 0.635D+01 0.653D+01
 Coeff:     -0.310D+01-0.746D+01 0.627D+01-0.589D+01 0.197D+01
 Gap=     0.265 Goal=   None    Shift=    0.500
 T=  450. Gap= 0.765 NK=4 IS=   58 IE=   67 IFin=   57
          NO(<0.9)=   0  NV(>0.1)=   0     57.00e < EF      0.00e >EF  Err=0.0D+00
 Gap=     0.099 Goal=   None    Shift=    0.500
 T=  450. Gap= 0.599 NK=4 IS=   57 IE=   66 IFin=   56
          NO(<0.9)=   0  NV(>0.1)=   0     56.00e < EF      0.00e >EF  Err=0.0D+00
 GapD=    0.099 DampG=0.500 DampE=1.000 DampFc=0.5000 IDamp=-1.
 Damping current iteration by 5.00D-01
 RMSDP=1.39D-04 MaxDP=1.14D-02 DE=-4.32D-03 OVMax= 8.37D-03

 Cycle  19  Pass 1  IDiag  1:
 E= -1258.70971240109     Delta-E=       -0.000356780443 Rises=F Damp=T
 DIIS: error= 5.45D-03 at cycle  19 NSaved=  12.
 NSaved=12 IEnMin=12 EnMin= -1258.70971240109     IErMin=11 ErrMin= 5.37D-03
 ErrMax= 5.45D-03  0.00D+00 EMaxC= 1.00D+00 BMatC= 1.57D-02 BMatP= 2.50D-03
 IDIUse=1 WtCom= 1.00D+00 WtEn= 0.00D+00
 Coeff-Com:  0.122D+00 0.579D+01-0.726D+01-0.234D+01 0.687D+01 0.710D+01
 Coeff-Com: -0.404D+01-0.809D+01 0.645D+01-0.581D+01 0.138D+01 0.843D+00
 Coeff:      0.122D+00 0.579D+01-0.726D+01-0.234D+01 0.687D+01 0.710D+01
 Coeff:     -0.404D+01-0.809D+01 0.645D+01-0.581D+01 0.138D+01 0.843D+00
 Gap=     0.265 Goal=   None    Shift=    0.500
 Gap=     0.099 Goal=   None    Shift=    0.500
 GapD=    0.099 DampG=0.500 DampE=1.000 DampFc=0.5000 IDamp=-1.
 Damping current iteration by 5.00D-01
 RMSDP=1.38D-04 MaxDP=1.07D-02 DE=-3.57D-04 OVMax= 7.45D-03

 Cycle  20  Pass 1  IDiag  1:
 E= -1258.71003995946     Delta-E=       -0.000327558370 Rises=F Damp=T
 DIIS: error= 5.50D-03 at cycle  20 NSaved=  13.
 NSaved=13 IEnMin=13 EnMin= -1258.71003995946     IErMin=11 ErrMin= 5.37D-03
 ErrMax= 5.50D-03  0.00D+00 EMaxC= 1.00D+00 BMatC= 1.54D-02 BMatP= 2.50D-03
 IDIUse=1 WtCom= 1.00D+00 WtEn= 0.00D+00
 Coeff-Com:  0.124D+00 0.573D+01-0.706D+01-0.240D+01 0.637D+01 0.716D+01
 Coeff-Com: -0.362D+01-0.810D+01 0.624D+01-0.555D+01 0.387D+01-0.515D+01
 Coeff-Com:  0.338D+01
 Coeff:      0.124D+00 0.573D+01-0.706D+01-0.240D+01 0.637D+01 0.716D+01
 Coeff:     -0.362D+01-0.810D+01 0.624D+01-0.555D+01 0.387D+01-0.515D+01
 Coeff:      0.338D+01
 Gap=     0.266 Goal=   None    Shift=    0.500
 Gap=     0.099 Goal=   None    Shift=    0.500
 GapD=    0.099 DampG=0.500 DampE=1.000 DampFc=0.5000 IDamp=-1.
 Damping current iteration by 5.00D-01
 RMSDP=1.27D-04 MaxDP=1.05D-02 DE=-3.28D-04 OVMax= 6.53D-03

 Cycle  21  Pass 1  IDiag  1:
 E= -1258.71035656626     Delta-E=       -0.000316606795 Rises=F Damp=T
 DIIS: error= 5.52D-03 at cycle  21 NSaved=  14.
 NSaved=14 IEnMin=14 EnMin= -1258.71035656626     IErMin=11 ErrMin= 5.37D-03
 ErrMax= 5.52D-03  0.00D+00 EMaxC= 1.00D+00 BMatC= 1.52D-02 BMatP= 2.50D-03
 IDIUse=1 WtCom= 1.00D+00 WtEn= 0.00D+00
 Coeff-Com:  0.126D+00 0.554D+01-0.602D+01-0.332D+01 0.719D+01 0.485D+01
 Coeff-Com: -0.225D+01-0.771D+01 0.601D+01-0.527D+01 0.309D+01-0.258D+00
 Coeff-Com: -0.657D+01 0.558D+01
 Coeff:      0.126D+00 0.554D+01-0.602D+01-0.332D+01 0.719D+01 0.485D+01
 Coeff:     -0.225D+01-0.771D+01 0.601D+01-0.527D+01 0.309D+01-0.258D+00
 Coeff:     -0.657D+01 0.558D+01
 Gap=     0.266 Goal=   None    Shift=    0.500
 Gap=     0.100 Goal=   None    Shift=    0.500
 GapD=    0.100 DampG=0.500 DampE=1.000 DampFc=0.5000 IDamp=-1.
 Damping current iteration by 5.00D-01
 RMSDP=9.63D-05 MaxDP=8.64D-03 DE=-3.17D-04 OVMax= 5.80D-03

 Cycle  22  Pass 1  IDiag  1:
 E= -1258.71056743392     Delta-E=       -0.000210867658 Rises=F Damp=T
 DIIS: error= 5.51D-03 at cycle  22 NSaved=  15.
 NSaved=15 IEnMin=15 EnMin= -1258.71056743392     IErMin=11 ErrMin= 5.37D-03
 ErrMax= 5.51D-03  0.00D+00 EMaxC= 1.00D+00 BMatC= 1.52D-02 BMatP= 2.50D-03
 IDIUse=1 WtCom= 1.00D+00 WtEn= 0.00D+00
 Large coefficients: NSaved= 15 BigCof=   11.80 CofMax=   10.00 Det=-2.09D-08
 Inversion failed.  Reducing to 14 matrices.
 Large coefficients: NSaved= 14 BigCof=   24.96 CofMax=   10.00 Det=-2.13D-08
 Inversion failed.  Reducing to 13 matrices.
 Large coefficients: NSaved= 13 BigCof=   34.10 CofMax=   10.00 Det=-2.17D-08
 Inversion failed.  Reducing to 12 matrices.
 Large coefficients: NSaved= 12 BigCof=   30.81 CofMax=   10.00 Det=-2.17D-08
 Inversion failed.  Reducing to 11 matrices.
 Large coefficients: NSaved= 11 BigCof=   34.65 CofMax=   10.00 Det=-2.18D-08
 Inversion failed.  Reducing to 10 matrices.
 Large coefficients: NSaved= 10 BigCof=   16.21 CofMax=   10.00 Det=-2.42D-08
 Inversion failed.  Reducing to  9 matrices.
 Large coefficients: NSaved=  9 BigCof=   14.04 CofMax=   10.00 Det=-2.42D-08
 Inversion failed.  Reducing to  8 matrices.
 Large coefficients: NSaved=  8 BigCof=   11.95 CofMax=   10.00 Det=-2.43D-08
 Inversion failed.  Reducing to  7 matrices.
 Large coefficients: NSaved=  7 BigCof=   28.44 CofMax=   10.00 Det=-2.43D-08
 Inversion failed.  Reducing to  6 matrices.
 Large coefficients: NSaved=  6 BigCof=   63.25 CofMax=   10.00 Det=-2.82D-08
 Inversion failed.  Reducing to  5 matrices.
 Large coefficients: NSaved=  5 BigCof=  250.80 CofMax=   10.00 Det=-2.94D-08
 Inversion failed.  Reducing to  4 matrices.
 Large coefficients: NSaved=  4 BigCof=  228.97 CofMax=   10.00 Det=-5.86D-08
 Inversion failed.  Reducing to  3 matrices.
 Large coefficients: NSaved=  3 BigCof=  173.24 CofMax=   10.00 Det=-2.13D-07
 Inversion failed.  Reducing to  2 matrices.
 Coeff-Com:  0.581D+01-0.481D+01
 Coeff:      0.581D+01-0.481D+01
 Gap=     0.338 Goal=   None    Shift=    0.500
 Gap=     0.149 Goal=   None    Shift=    0.500
 GapD=    0.149 DampG=1.000 DampE=1.000 DampFc=1.0000 IDamp=-1.
 RMSDP=1.25D-03 MaxDP=9.85D-02 DE=-2.11D-04 OVMax= 2.22D-02

 Cycle  23  Pass 1  IDiag  1:
 E= -1258.71704448056     Delta-E=       -0.006477046640 Rises=F Damp=F
 DIIS: error= 1.04D-02 at cycle  23 NSaved=   3.
 NSaved= 3 IEnMin= 3 EnMin= -1258.71704448056     IErMin= 2 ErrMin= 5.51D-03
 ErrMax= 1.04D-02  0.00D+00 EMaxC= 1.00D+00 BMatC= 4.40D-03 BMatP= 1.52D-02
 IDIUse=1 WtCom= 1.00D+00 WtEn= 0.00D+00
 Coeff-Com: -0.220D+01 0.241D+01 0.790D+00
 Coeff:     -0.220D+01 0.241D+01 0.790D+00
 Gap=     0.328 Goal=   None    Shift=    0.500
 Gap=     0.152 Goal=   None    Shift=    0.500
 GapD=    0.152 DampG=1.000 DampE=0.500 DampFc=0.5000 IDamp=-1.
 Damping current iteration by 5.00D-01
 RMSDP=5.26D-04 MaxDP=3.53D-02 DE=-6.48D-03 OVMax= 4.69D-02

 Cycle  24  Pass 1  IDiag  1:
 E= -1258.71893731261     Delta-E=       -0.001892832051 Rises=F Damp=T
 DIIS: error= 1.02D-02 at cycle  24 NSaved=   4.
 NSaved= 4 IEnMin= 4 EnMin= -1258.71893731261     IErMin= 2 ErrMin= 5.51D-03
 ErrMax= 1.02D-02  0.00D+00 EMaxC= 1.00D+00 BMatC= 3.17D-03 BMatP= 4.40D-03
 IDIUse=1 WtCom= 1.00D+00 WtEn= 0.00D+00
 Coeff-Com: -0.782D+01 0.777D+01-0.131D+01 0.237D+01
 Coeff:     -0.782D+01 0.777D+01-0.131D+01 0.237D+01
 Gap=     0.328 Goal=   None    Shift=    0.500
 Gap=     0.160 Goal=   None    Shift=    0.500
 GapD=    0.160 DampG=1.000 DampE=0.500 DampFc=0.5000 IDamp=-1.
 Damping current iteration by 5.00D-01
 RMSDP=7.69D-04 MaxDP=4.87D-02 DE=-1.89D-03 OVMax= 5.53D-02

 Cycle  25  Pass 1  IDiag  1:
 E= -1258.72173057331     Delta-E=       -0.002793260699 Rises=F Damp=T
 DIIS: error= 9.92D-03 at cycle  25 NSaved=   5.
 NSaved= 5 IEnMin= 5 EnMin= -1258.72173057331     IErMin= 2 ErrMin= 5.51D-03
 ErrMax= 9.92D-03  0.00D+00 EMaxC= 1.00D+00 BMatC= 2.69D-03 BMatP= 3.17D-03
 IDIUse=1 WtCom= 1.00D+00 WtEn= 0.00D+00
 Coeff-Com: -0.199D+01 0.189D+01 0.132D+01-0.468D+01 0.445D+01
 Coeff:     -0.199D+01 0.189D+01 0.132D+01-0.468D+01 0.445D+01
 Gap=     0.338 Goal=   None    Shift=    0.500
 Gap=     0.168 Goal=   None    Shift=    0.500
 GapD=    0.168 DampG=1.000 DampE=1.000 DampFc=1.0000 IDamp=-1.
 RMSDP=9.80D-04 MaxDP=5.97D-02 DE=-2.79D-03 OVMax= 6.45D-02

 Cycle  26  Pass 1  IDiag  1:
 E= -1258.73006100152     Delta-E=       -0.008330428213 Rises=F Damp=F
 DIIS: error= 9.70D-03 at cycle  26 NSaved=   6.
 NSaved= 6 IEnMin= 6 EnMin= -1258.73006100152     IErMin= 2 ErrMin= 5.51D-03
 ErrMax= 9.70D-03  0.00D+00 EMaxC= 1.00D+00 BMatC= 2.29D-03 BMatP= 2.69D-03
 IDIUse=1 WtCom= 1.00D+00 WtEn= 0.00D+00
 Coeff-Com:  0.809D+01-0.787D+01 0.113D+01 0.236D+00-0.417D+01 0.359D+01
 Coeff:      0.809D+01-0.787D+01 0.113D+01 0.236D+00-0.417D+01 0.359D+01
 Gap=     0.322 Goal=   None    Shift=    0.500
 Gap=     0.174 Goal=   None    Shift=    0.500
 GapD=    0.174 DampG=1.000 DampE=1.000 DampFc=1.0000 IDamp=-1.
 RMSDP=7.09D-04 MaxDP=4.29D-02 DE=-8.33D-03 OVMax= 7.90D-02

 Cycle  27  Pass 1  IDiag  1:
 E= -1258.73587174747     Delta-E=       -0.005810745954 Rises=F Damp=F
 DIIS: error= 9.84D-03 at cycle  27 NSaved=   7.
 NSaved= 7 IEnMin= 7 EnMin= -1258.73587174747     IErMin= 2 ErrMin= 5.51D-03
 ErrMax= 9.84D-03  0.00D+00 EMaxC= 1.00D+00 BMatC= 2.36D-03 BMatP= 2.29D-03
 IDIUse=1 WtCom= 1.00D+00 WtEn= 0.00D+00
 Coeff-Com:  0.334D+01-0.298D+01-0.504D+00 0.360D+01-0.573D+01 0.194D+01
 Coeff-Com:  0.134D+01
 Coeff:      0.334D+01-0.298D+01-0.504D+00 0.360D+01-0.573D+01 0.194D+01
 Coeff:      0.134D+01
 Gap=     0.319 Goal=   None    Shift=    0.500
 Gap=     0.187 Goal=   None    Shift=    0.500
 GapD=    0.187 DampG=1.000 DampE=1.000 DampFc=1.0000 IDamp=-1.
 RMSDP=4.68D-04 MaxDP=2.45D-02 DE=-5.81D-03 OVMax= 6.71D-02

 Cycle  28  Pass 1  IDiag  1:
 E= -1258.74041313209     Delta-E=       -0.004541384616 Rises=F Damp=F
 DIIS: error= 9.31D-03 at cycle  28 NSaved=   8.
 NSaved= 8 IEnMin= 8 EnMin= -1258.74041313209     IErMin= 2 ErrMin= 5.51D-03
 ErrMax= 9.31D-03  0.00D+00 EMaxC= 1.00D+00 BMatC= 2.12D-03 BMatP= 2.29D-03
 IDIUse=1 WtCom= 1.00D+00 WtEn= 0.00D+00
 Coeff-Com: -0.443D+01 0.481D+01-0.103D+00-0.215D+00 0.256D+00-0.131D+01
 Coeff-Com: -0.266D+01 0.465D+01
 Coeff:     -0.443D+01 0.481D+01-0.103D+00-0.215D+00 0.256D+00-0.131D+01
 Coeff:     -0.266D+01 0.465D+01
 Gap=     0.306 Goal=   None    Shift=    0.500
 Gap=     0.200 Goal=   None    Shift=    0.500
 GapD=    0.200 DampG=1.000 DampE=1.000 DampFc=1.0000 IDamp=-1.
 RMSDP=8.48D-04 MaxDP=4.42D-02 DE=-4.54D-03 OVMax= 1.01D-01

 Cycle  29  Pass 1  IDiag  1:
 E= -1258.74598787750     Delta-E=       -0.005574745415 Rises=F Damp=F
 DIIS: error= 8.86D-03 at cycle  29 NSaved=   9.
 NSaved= 9 IEnMin= 9 EnMin= -1258.74598787750     IErMin= 2 ErrMin= 5.51D-03
 ErrMax= 8.86D-03  0.00D+00 EMaxC= 1.00D+00 BMatC= 3.89D-03 BMatP= 2.12D-03
 IDIUse=1 WtCom= 1.00D+00 WtEn= 0.00D+00
 Coeff-Com: -0.865D+00 0.129D+01 0.115D+01-0.462D+01 0.506D+01-0.146D+01
 Coeff-Com: -0.470D+01 0.378D+01 0.136D+01
 Coeff:     -0.865D+00 0.129D+01 0.115D+01-0.462D+01 0.506D+01-0.146D+01
 Coeff:     -0.470D+01 0.378D+01 0.136D+01
 Gap=     0.312 Goal=   None    Shift=    0.500
 Gap=     0.204 Goal=   None    Shift=    0.500
 GapD=    0.204 DampG=1.000 DampE=1.000 DampFc=1.0000 IDamp=-1.
 RMSDP=4.54D-04 MaxDP=3.08D-02 DE=-5.57D-03 OVMax= 6.85D-02

 Cycle  30  Pass 1  IDiag  1:
 E= -1258.74980154337     Delta-E=       -0.003813665869 Rises=F Damp=F
 DIIS: error= 7.18D-03 at cycle  30 NSaved=  10.
 NSaved=10 IEnMin=10 EnMin= -1258.74980154337     IErMin= 2 ErrMin= 5.51D-03
 ErrMax= 7.18D-03  0.00D+00 EMaxC= 1.00D+00 BMatC= 1.97D-03 BMatP= 2.12D-03
 IDIUse=1 WtCom= 1.00D+00 WtEn= 0.00D+00
 Coeff-Com:  0.790D+01-0.780D+01 0.998D+00-0.220D+01 0.111D+01 0.139D+01
 Coeff-Com: -0.264D+01 0.392D+00-0.649D+00 0.249D+01
 Coeff:      0.790D+01-0.780D+01 0.998D+00-0.220D+01 0.111D+01 0.139D+01
 Coeff:     -0.264D+01 0.392D+00-0.649D+00 0.249D+01
 Gap=     0.310 Goal=   None    Shift=    0.500
 Gap=     0.216 Goal=   None    Shift=    0.500
 GapD=    0.216 DampG=1.000 DampE=1.000 DampFc=1.0000 IDamp=-1.
 RMSDP=4.72D-04 MaxDP=3.00D-02 DE=-3.81D-03 OVMax= 6.26D-02

 Cycle  31  Pass 1  IDiag  1:
 E= -1258.75259716506     Delta-E=       -0.002795621687 Rises=F Damp=F
 DIIS: error= 5.63D-03 at cycle  31 NSaved=  11.
 NSaved=11 IEnMin=11 EnMin= -1258.75259716506     IErMin= 2 ErrMin= 5.51D-03
 ErrMax= 5.63D-03  0.00D+00 EMaxC= 1.00D+00 BMatC= 1.28D-03 BMatP= 1.97D-03
 IDIUse=1 WtCom= 1.00D+00 WtEn= 0.00D+00
 Coeff-Com:  0.332D+01-0.340D+01 0.437D+00-0.794D+00 0.589D-01 0.183D+01
 Coeff-Com: -0.172D+01-0.299D+00-0.750D+00 0.877D+00 0.144D+01
 Coeff:      0.332D+01-0.340D+01 0.437D+00-0.794D+00 0.589D-01 0.183D+01
 Coeff:     -0.172D+01-0.299D+00-0.750D+00 0.877D+00 0.144D+01
 Gap=     0.308 Goal=   None    Shift=    0.500
 Gap=     0.225 Goal=   None    Shift=    0.500
 GapD=    0.225 DampG=1.000 DampE=1.000 DampFc=1.0000 IDamp=-1.
 RMSDP=3.64D-04 MaxDP=2.11D-02 DE=-2.80D-03 OVMax= 4.83D-02

 Cycle  32  Pass 1  IDiag  1:
 E= -1258.75425803715     Delta-E=       -0.001660872085 Rises=F Damp=F
 DIIS: error= 4.41D-03 at cycle  32 NSaved=  12.
 NSaved=12 IEnMin=12 EnMin= -1258.75425803715     IErMin=12 ErrMin= 4.41D-03
 ErrMax= 4.41D-03  0.00D+00 EMaxC= 1.00D+00 BMatC= 7.57D-04 BMatP= 1.28D-03
 IDIUse=1 WtCom= 1.00D+00 WtEn= 0.00D+00
 Coeff-Com: -0.225D+01 0.226D+01 0.315D+00 0.292D+00-0.150D+01 0.121D+01
 Coeff-Com: -0.280D-01-0.145D+00-0.528D-01-0.112D+01-0.546D+00 0.257D+01
 Coeff:     -0.225D+01 0.226D+01 0.315D+00 0.292D+00-0.150D+01 0.121D+01
 Coeff:     -0.280D-01-0.145D+00-0.528D-01-0.112D+01-0.546D+00 0.257D+01
 Gap=     0.305 Goal=   None    Shift=    0.500
 Gap=     0.232 Goal=   None    Shift=    0.500
 GapD=    0.232 DampG=1.000 DampE=1.000 DampFc=1.0000 IDamp=-1.
 RMSDP=3.33D-04 MaxDP=1.78D-02 DE=-1.66D-03 OVMax= 4.37D-02

 >>>>>>>>>> Convergence criterion not met.
 SCF Done:  E(ULC-wHPBE) =  -1258.75425804     A.U. after   33 cycles
            NFock= 32  Conv=0.33D-03     -V/T= 2.0034
 <Sx>= 0.0000 <Sy>= 0.0000 <Sz>= 0.5000 <S**2>= 0.7638 S= 0.5069
 <L.S>= 0.000000000000E+00
 KE= 1.254451935240D+03 PE=-5.029166810422D+03 EE= 1.475318548825D+03
 Annihilation of the first spin contaminant:
 S**2 before annihilation     0.7638,   after     0.7501
 Leave Link  502 at Mon Jan 25 23:03:58 2021, MaxMem=  4026531840 cpu:            3487.0 elap:             436.4
 (Enter /opt/ohpc/pub/libs/gaussian/g16-A.03/sandybridge/g16/l508.exe)
 Integral symmetry usage will be decided dynamically.
 Tight linear equation convergence will be used.
 ULC-wHPBE wavefunction.
 Quadratic Convergence SCF Method.
 Line search only if initial step raises energy.
 FoFJK:  IHMeth= 1 ICntrl=       0 DoSepK=T KAlg= 0 I1Cent=           0 FoldK=F
 IRaf=         1 NMat=       1 IRICut=       1 DoRegI=T DoRafI=F ISym2E= 1 IDoP0=0 IntGTp=1.
 FoFCou: FMM=F IPFlag=           0 FMFlag=      100000 FMFlg1=           0
         NFxFlg=           0 DoJE=T BraDBF=F KetDBF=F FulRan=T
         wScrn=  0.000000 ICntrl=       500 IOpCl=  0 I1Cent=           0 NGrid=           0
         NMat0=    1 NMatS0=      1 NMatT0=    0 NMatD0=    1 NMtDS0=    0 NMtDT0=    0
 Petite list used in FoFCou.
 Iteration   1 EE= -1258.75528231346                                    Grad=1.908D-02 Max rot=    0.6092 deg.
 Gradient too large for Newton-Raphson -- use scaled steepest descent instead.
     ILin= 1 X=0.000D+00 Y=-1.258755282313D+03 DE= 0.00D+00 F= -6.62D-04
     ILin= 2 X=3.000D-01 Y=-1.258755460769D+03 DE=-1.78D-04 F= -5.28D-04
     ILin= 3 X=6.000D-01 Y=-1.258755598965D+03 DE=-3.17D-04 F= -3.94D-04
     ILin= 4 X=1.200D+00 Y=-1.258755755714D+03 DE=-4.73D-04 F= -1.29D-04
     ILin= 5 X=2.400D+00 Y=-1.258755598589D+03 DE=-3.16D-04 F=  3.89D-04
     An  expanding polynomial of degree  5 produced  1.4962
 Iteration   2 EE= -1258.75577483644     Delta-E=       -0.000492522971 Grad=1.705D-02 Max rot=    0.4256 deg.
 Gradient too large for Newton-Raphson -- use scaled steepest descent instead.
     ILin= 1 X=0.000D+00 Y=-1.258755774836D+03 DE= 0.00D+00 F= -4.29D-04
     ILin= 2 X=7.000D-01 Y=-1.258755996712D+03 DE=-2.22D-04 F= -2.04D-04
     ILin= 3 X=1.300D+00 Y=-1.258756060740D+03 DE=-2.86D-04 F= -9.09D-06
     Reject lnstep minimum 1.621D+00 FVal=-1.258756064558D+03 Lims=  7.00D-01  1.30D+00
     ILin= 4 X=2.700D+00 Y=-1.258755751618D+03 DE= 2.32D-05 F=  4.52D-04
     An  expanding polynomial of degree  4 produced  1.3278
     Minimum is close to point  3 DX=  2.78D-02 DF= -1.27D-07 DXR=  2.10D-02 DFR=  4.43D-04 which will be used.
 Iteration   3 EE= -1258.75606073966     Delta-E=       -0.000285903220 Grad=1.272D-02 Max rot=    0.4057 deg.
 Gradient too large for Newton-Raphson -- use scaled steepest descent instead.
     ILin= 1 X=0.000D+00 Y=-1.258756060740D+03 DE= 0.00D+00 F= -2.60D-04
     ILin= 2 X=1.400D+00 Y=-1.258756255845D+03 DE=-1.95D-04 F= -1.92D-05
     Reject lnstep minimum 1.439D+00 FVal=-1.258756256115D+03 Lims=  0.00D+00  1.40D+00
     ILin= 3 X=2.800D+00 Y=-1.258756116686D+03 DE=-5.59D-05 F=  2.17D-04
     An  expanding polynomial of degree  3 produced  1.5172
     Minimum is close to point  2 DX=  1.17D-01 DF= -1.17D-06 DXR=  7.72D-02 DFR=  6.00D-03 which will be used.
 Iteration   4 EE= -1258.75625584515     Delta-E=       -0.000195105494 Grad=1.140D-02 Max rot=    0.3183 deg.
 Gradient too large for Newton-Raphson -- use scaled steepest descent instead.
     ILin= 1 X=0.000D+00 Y=-1.258756255845D+03 DE= 0.00D+00 F= -1.98D-04
     ILin= 2 X=1.400D+00 Y=-1.258756395713D+03 DE=-1.40D-04 F= -1.28D-06
     Reject lnstep minimum 1.404D+00 FVal=-1.258756395715D+03 Lims=  0.00D+00  1.40D+00
     ILin= 3 X=2.800D+00 Y=-1.258756258111D+03 DE=-2.27D-06 F=  1.98D-04
     An  expanding polynomial of degree  3 produced  1.4057
     Minimum is close to point  2 DX=  5.72D-03 DF= -2.31D-09 DXR=  4.07D-03 DFR=  1.65D-05 which will be used.
 Iteration   5 EE= -1258.75639571291     Delta-E=       -0.000139867761 Grad=1.008D-02 Max rot=    0.2880 deg.
 Gradient too large for Newton-Raphson -- use scaled steepest descent instead.
     ILin= 1 X=0.000D+00 Y=-1.258756395713D+03 DE= 0.00D+00 F= -1.55D-04
     ILin= 2 X=1.500D+00 Y=-1.258756495199D+03 DE=-9.95D-05 F=  2.17D-05
     Accept linear search using points  1 and  2.
     An  expanding polynomial of degree  2 produced  1.4185
     Minimum is close to point  2 DX= -8.15D-02 DF= -5.81D-07 DXR=  5.75D-02 DFR=  5.84D-03 which will be used.
 Iteration   6 EE= -1258.75649519872     Delta-E=       -0.000099485813 Grad=1.026D-02 Max rot=    0.2275 deg.
 Gradient too large for Newton-Raphson -- use scaled steepest descent instead.
     ILin= 1 X=0.000D+00 Y=-1.258756495199D+03 DE= 0.00D+00 F= -1.45D-04
     ILin= 2 X=1.400D+00 Y=-1.258756568210D+03 DE=-7.30D-05 F=  4.14D-05
     Accept linear search using points  1 and  2.
     An  expanding polynomial of degree  2 produced  1.2101
 Iteration   7 EE= -1258.75657364951     Delta-E=       -0.000078450787 Grad=7.312D-03 Max rot=    0.2081 deg.
 QCNR:  CnvC1=7.31D-08 CnvC2=7.31D-07
 LinEq1:  Iter=  0 NonCon=     1 RMS=1.02D-04 Max=1.60D-02 NDo=     1
 AX will form     1 AO Fock derivatives at one time.
 LinEq1:  Iter=  1 NonCon=     1 RMS=7.54D-05 Max=4.41D-03 NDo=     1
 LinEq1:  Iter=  2 NonCon=     1 RMS=1.41D-05 Max=8.00D-04 NDo=     1
 LinEq1:  Iter=  3 NonCon=     1 RMS=1.22D-05 Max=8.54D-04 NDo=     1
 LinEq1:  Iter=  4 NonCon=     1 RMS=4.46D-06 Max=2.12D-04 NDo=     1
 LinEq1:  Iter=  5 NonCon=     1 RMS=2.78D-06 Max=1.27D-04 NDo=     1
 LinEq1:  Iter=  6 NonCon=     1 RMS=1.56D-06 Max=1.01D-04 NDo=     1
 LinEq1:  Iter=  7 NonCon=     1 RMS=8.08D-07 Max=6.02D-05 NDo=     1
 LinEq1:  Iter=  8 NonCon=     1 RMS=3.91D-07 Max=2.26D-05 NDo=     1
 LinEq1:  Iter=  9 NonCon=     1 RMS=1.91D-07 Max=1.08D-05 NDo=     1
 LinEq1:  Iter= 10 NonCon=     1 RMS=1.10D-07 Max=5.13D-06 NDo=     1
 LinEq1:  Iter= 11 NonCon=     1 RMS=5.40D-08 Max=1.39D-06 NDo=     1
 LinEq1:  Iter= 12 NonCon=     1 RMS=2.68D-08 Max=1.09D-06 NDo=     1
 LinEq1:  Iter= 13 NonCon=     0 RMS=1.24D-08 Max=4.85D-07 NDo=     1
 Linear equations converged to 7.312D-08 7.312D-07 after    13 iterations.
 Angle between quadratic step and gradient=  55.29 degrees.
     ILin= 1 X=0.000D+00 Y=-1.258756573650D+03 DE= 0.00D+00 F= -4.22D-04
     ILin= 2 X=1.000D+00 Y=-1.258756786860D+03 DE=-2.13D-04
 Iteration   8 EE= -1258.75678686010     Delta-E=       -0.000213210586 Grad=8.748D-04 Max rot=    0.0054 deg.
 QCNR:  CnvC1=8.75D-09 CnvC2=8.75D-08
 LinEq1:  Iter=  0 NonCon=     1 RMS=7.10D-06 Max=2.51D-04 NDo=     1
 LinEq1:  Iter=  1 NonCon=     1 RMS=3.91D-06 Max=3.22D-04 NDo=     1
 LinEq1:  Iter=  2 NonCon=     1 RMS=2.32D-06 Max=1.74D-04 NDo=     1
 LinEq1:  Iter=  3 NonCon=     1 RMS=1.07D-06 Max=5.36D-05 NDo=     1
 LinEq1:  Iter=  4 NonCon=     1 RMS=6.82D-07 Max=2.12D-05 NDo=     1
 LinEq1:  Iter=  5 NonCon=     1 RMS=3.66D-07 Max=1.09D-05 NDo=     1
 LinEq1:  Iter=  6 NonCon=     1 RMS=1.95D-07 Max=7.33D-06 NDo=     1
 LinEq1:  Iter=  7 NonCon=     1 RMS=1.02D-07 Max=3.86D-06 NDo=     1
 LinEq1:  Iter=  8 NonCon=     1 RMS=5.31D-08 Max=2.40D-06 NDo=     1
 LinEq1:  Iter=  9 NonCon=     1 RMS=2.72D-08 Max=9.06D-07 NDo=     1
 LinEq1:  Iter= 10 NonCon=     1 RMS=1.50D-08 Max=4.71D-07 NDo=     1
 LinEq1:  Iter= 11 NonCon=     1 RMS=7.49D-09 Max=2.04D-07 NDo=     1
 LinEq1:  Iter= 12 NonCon=     1 RMS=4.80D-09 Max=1.43D-07 NDo=     1
 LinEq1:  Iter= 13 NonCon=     0 RMS=2.39D-09 Max=7.69D-08 NDo=     1
 Linear equations converged to 8.748D-09 8.748D-08 after    13 iterations.
 Angle between quadratic step and gradient=  53.11 degrees.
     ILin= 1 X=0.000D+00 Y=-1.258756786860D+03 DE= 0.00D+00 F= -1.16D-06
     ILin= 2 X=1.000D+00 Y=-1.258756787440D+03 DE=-5.80D-07
 Iteration   9 EE= -1258.75678744008     Delta-E=       -0.000000579978 Grad=5.335D-07 Max rot=    0.0000 deg.
 Rotation gradient small -- convergence achieved.
 SCF Done:  E(ULC-wHPBE) =  -1258.75678744     a.u. after    9 cycles
            Convg  =    0.5335D-06                    44 Fock formations.
              S**2 =  0.7616                  -V/T =  2.0034
 <Sx>= 0.0000 <Sy>= 0.0000 <Sz>= 0.5000 <S**2>= 0.7616 S= 0.5058
 <L.S>= 0.000000000000E+00
 Annihilation of the first spin contaminant:
 S**2 before annihilation     0.7616,   after     0.7501
 Leave Link  508 at Mon Jan 25 23:13:44 2021, MaxMem=  4026531840 cpu:            4684.4 elap:             586.8
 (Enter /opt/ohpc/pub/libs/gaussian/g16-A.03/sandybridge/g16/l601.exe)
 Copying SCF densities to generalized density rwf, IOpCl= 1 IROHF=0.

 **********************************************************************

            Population analysis using the SCF density.

 **********************************************************************

 Orbital symmetries:
 Alpha Orbitals:
       Occupied  (A) (A) (A) (A) (A) (A) (A) (A) (A) (A) (A) (A)
                 (A) (A) (A) (A) (A) (A) (A) (A) (A) (A) (A) (A)
                 (A) (A) (A) (A) (A) (A) (A) (A) (A) (A) (A) (A)
                 (A) (A) (A) (A) (A) (A) (A) (A) (A) (A) (A) (A)
                 (A) (A) (A) (A) (A) (A) (A) (A) (A)
       Virtual   (A) (A) (A) (A) (A) (A) (A) (A) (A) (A) (A) (A)
                 (A) (A) (A) (A) (A) (A) (A) (A) (A) (A) (A) (A)
                 (A) (A) (A) (A) (A) (A) (A) (A) (A) (A) (A) (A)
                 (A) (A) (A) (A) (A) (A) (A) (A) (A) (A) (A) (A)
                 (A) (A) (A) (A) (A) (A) (A) (A) (A) (A) (A) (A)
                 (A) (A) (A) (A) (A) (A) (A) (A) (A) (A) (A) (A)
                 (A) (A) (A) (A) (A) (A) (A) (A) (A) (A) (A) (A)
                 (A) (A) (A) (A) (A) (A) (A) (A) (A) (A) (A) (A)
                 (A) (A) (A) (A) (A) (A) (A) (A) (A) (A) (A) (A)
                 (A) (A) (A) (A) (A) (A) (A) (A) (A) (A) (A) (A)
                 (A) (A) (A) (A) (A) (A) (A) (A) (A) (A) (A) (A)
                 (A) (A) (A) (A) (A) (A) (A) (A) (A) (A) (A) (A)
                 (A) (A) (A) (A) (A) (A) (A) (A) (A) (A) (A) (A)
                 (A) (A) (A) (A) (A) (A) (A) (A) (A) (A) (A) (A)
                 (A) (A) (A) (A) (A) (A) (A) (A) (A) (A) (A) (A)
                 (A) (A) (A) (A) (A) (A) (A) (A) (A) (A) (A) (A)
                 (A) (A) (A) (A) (A) (A) (A) (A) (A) (A) (A) (A)
                 (A) (A) (A) (A) (A) (A) (A) (A) (A) (A) (A) (A)
                 (A) (A) (A) (A) (A) (A) (A) (A) (A) (A) (A) (A)
                 (A) (A) (A) (A) (A) (A) (A) (A) (A) (A) (A) (A)
                 (A) (A) (A) (A) (A) (A) (A) (A) (A) (A) (A) (A)
                 (A) (A) (A) (A) (A) (A) (A) (A) (A) (A) (A) (A)
                 (A) (A) (A) (A) (A) (A) (A) (A) (A) (A) (A)
 Beta  Orbitals:
       Occupied  (A) (A) (A) (A) (A) (A) (A) (A) (A) (A) (A) (A)
                 (A) (A) (A) (A) (A) (A) (A) (A) (A) (A) (A) (A)
                 (A) (A) (A) (A) (A) (A) (A) (A) (A) (A) (A) (A)
                 (A) (A) (A) (A) (A) (A) (A) (A) (A) (A) (A) (A)
                 (A) (A) (A) (A) (A) (A) (A) (A)
       Virtual   (A) (A) (A) (A) (A) (A) (A) (A) (A) (A) (A) (A)
                 (A) (A) (A) (A) (A) (A) (A) (A) (A) (A) (A) (A)
                 (A) (A) (A) (A) (A) (A) (A) (A) (A) (A) (A) (A)
                 (A) (A) (A) (A) (A) (A) (A) (A) (A) (A) (A) (A)
                 (A) (A) (A) (A) (A) (A) (A) (A) (A) (A) (A) (A)
                 (A) (A) (A) (A) (A) (A) (A) (A) (A) (A) (A) (A)
                 (A) (A) (A) (A) (A) (A) (A) (A) (A) (A) (A) (A)
                 (A) (A) (A) (A) (A) (A) (A) (A) (A) (A) (A) (A)
                 (A) (A) (A) (A) (A) (A) (A) (A) (A) (A) (A) (A)
                 (A) (A) (A) (A) (A) (A) (A) (A) (A) (A) (A) (A)
                 (A) (A) (A) (A) (A) (A) (A) (A) (A) (A) (A) (A)
                 (A) (A) (A) (A) (A) (A) (A) (A) (A) (A) (A) (A)
                 (A) (A) (A) (A) (A) (A) (A) (A) (A) (A) (A) (A)
                 (A) (A) (A) (A) (A) (A) (A) (A) (A) (A) (A) (A)
                 (A) (A) (A) (A) (A) (A) (A) (A) (A) (A) (A) (A)
                 (A) (A) (A) (A) (A) (A) (A) (A) (A) (A) (A) (A)
                 (A) (A) (A) (A) (A) (A) (A) (A) (A) (A) (A) (A)
                 (A) (A) (A) (A) (A) (A) (A) (A) (A) (A) (A) (A)
                 (A) (A) (A) (A) (A) (A) (A) (A) (A) (A) (A) (A)
                 (A) (A) (A) (A) (A) (A) (A) (A) (A) (A) (A) (A)
                 (A) (A) (A) (A) (A) (A) (A) (A) (A) (A) (A) (A)
                 (A) (A) (A) (A) (A) (A) (A) (A) (A) (A) (A) (A)
                 (A) (A) (A) (A) (A) (A) (A) (A) (A) (A) (A) (A)
 The electronic state is 2-A.
 Alpha  occ. eigenvalues --  -88.48624 -88.36303 -10.23807 -10.22863 -10.22620
 Alpha  occ. eigenvalues --  -10.21836 -10.19202 -10.18135 -10.18134 -10.17498
 Alpha  occ. eigenvalues --  -10.17421 -10.16729 -10.16510 -10.16306  -8.07688
 Alpha  occ. eigenvalues --   -7.95642  -6.09562  -6.09505  -6.08771  -5.97797
 Alpha  occ. eigenvalues --   -5.97299  -5.96520  -1.13575  -1.09362  -1.06006
 Alpha  occ. eigenvalues --   -1.00708  -0.98405  -0.98126  -0.94720  -0.91905
 Alpha  occ. eigenvalues --   -0.84831  -0.83760  -0.83422  -0.80629  -0.76206
 Alpha  occ. eigenvalues --   -0.74711  -0.71464  -0.69934  -0.69262  -0.68166
 Alpha  occ. eigenvalues --   -0.66391  -0.65856  -0.64809  -0.63821  -0.62920
 Alpha  occ. eigenvalues --   -0.61833  -0.59792  -0.59208  -0.57079  -0.56741
 Alpha  occ. eigenvalues --   -0.54987  -0.52382  -0.51189  -0.50188  -0.49548
 Alpha  occ. eigenvalues --   -0.48408  -0.44154
 Alpha virt. eigenvalues --   -0.13235  -0.12885  -0.11308  -0.09891  -0.08786
 Alpha virt. eigenvalues --   -0.06998  -0.04905  -0.03562  -0.00351   0.00879
 Alpha virt. eigenvalues --    0.01803   0.03138   0.03422   0.04783   0.05090
 Alpha virt. eigenvalues --    0.05998   0.06477   0.06586   0.07903   0.08351
 Alpha virt. eigenvalues --    0.09125   0.09779   0.10506   0.10993   0.13250
 Alpha virt. eigenvalues --    0.13505   0.14637   0.15605   0.16147   0.16261
 Alpha virt. eigenvalues --    0.17028   0.17335   0.17671   0.18095   0.18341
 Alpha virt. eigenvalues --    0.18812   0.19643   0.20141   0.20556   0.21570
 Alpha virt. eigenvalues --    0.21886   0.22655   0.23824   0.24301   0.25022
 Alpha virt. eigenvalues --    0.26352   0.27633   0.27762   0.28863   0.28916
 Alpha virt. eigenvalues --    0.29679   0.29975   0.30931   0.31438   0.32509
 Alpha virt. eigenvalues --    0.33038   0.33417   0.33798   0.35246   0.35687
 Alpha virt. eigenvalues --    0.36952   0.37156   0.37663   0.38477   0.38666
 Alpha virt. eigenvalues --    0.38824   0.40021   0.40491   0.41156   0.42073
 Alpha virt. eigenvalues --    0.42705   0.42996   0.43467   0.44036   0.44880
 Alpha virt. eigenvalues --    0.45783   0.46654   0.48009   0.48672   0.49897
 Alpha virt. eigenvalues --    0.51138   0.52605   0.55075   0.56379   0.57919
 Alpha virt. eigenvalues --    0.58916   0.59797   0.60776   0.62068   0.62602
 Alpha virt. eigenvalues --    0.63818   0.65735   0.66296   0.67786   0.69857
 Alpha virt. eigenvalues --    0.71103   0.75310   0.77028   0.77202   0.78448
 Alpha virt. eigenvalues --    0.80825   0.81254   0.83069   0.84988   0.86079
 Alpha virt. eigenvalues --    0.94200   0.96294   1.06770   1.10807   1.11228
 Alpha virt. eigenvalues --    1.12965   1.14034   1.14573   1.15147   1.16494
 Alpha virt. eigenvalues --    1.17038   1.17883   1.18983   1.19524   1.20720
 Alpha virt. eigenvalues --    1.21238   1.21886   1.22547   1.23268   1.25184
 Alpha virt. eigenvalues --    1.26241   1.27441   1.29283   1.30805   1.31222
 Alpha virt. eigenvalues --    1.32554   1.33887   1.34313   1.34672   1.35114
 Alpha virt. eigenvalues --    1.35821   1.36482   1.36749   1.36839   1.38335
 Alpha virt. eigenvalues --    1.38522   1.40060   1.40756   1.41596   1.42308
 Alpha virt. eigenvalues --    1.43018   1.43675   1.44553   1.45212   1.46650
 Alpha virt. eigenvalues --    1.47076   1.47338   1.48824   1.49372   1.51271
 Alpha virt. eigenvalues --    1.52423   1.52949   1.54480   1.54760   1.55385
 Alpha virt. eigenvalues --    1.58820   1.61191   1.64169   1.65955   1.66524
 Alpha virt. eigenvalues --    1.67879   1.68329   1.69606   1.70354   1.70638
 Alpha virt. eigenvalues --    1.71269   1.72491   1.73373   1.75239   1.76294
 Alpha virt. eigenvalues --    1.78202   1.79245   1.79671   1.80030   1.80226
 Alpha virt. eigenvalues --    1.81918   1.82406   1.83438   1.86958   1.87192
 Alpha virt. eigenvalues --    1.88278   1.89067   1.89679   1.89928   1.90689
 Alpha virt. eigenvalues --    1.92447   1.95072   1.96798   1.98898   2.01533
 Alpha virt. eigenvalues --    2.04777   2.07817   2.12178   2.12663   2.15019
 Alpha virt. eigenvalues --    2.16043   2.17583   2.18389   2.19553   2.20264
 Alpha virt. eigenvalues --    2.21041   2.21770   2.23587   2.23825   2.24468
 Alpha virt. eigenvalues --    2.25625   2.26435   2.28649   2.29746   2.32183
 Alpha virt. eigenvalues --    2.33051   2.38392   2.39211   2.41615   2.42125
 Alpha virt. eigenvalues --    2.42712   2.44821   2.47000   2.48139   2.50372
 Alpha virt. eigenvalues --    2.50894   2.52482   2.53553   2.54508   2.55215
 Alpha virt. eigenvalues --    2.55842   2.56538   2.56765   2.58568   2.63753
 Alpha virt. eigenvalues --    2.67483   2.70229   2.70867   2.72426   2.78082
 Alpha virt. eigenvalues --    2.88132   2.91009   2.93025   2.94148   2.98231
 Alpha virt. eigenvalues --    2.99064   3.00492   3.01924   3.02810   3.04171
 Alpha virt. eigenvalues --    3.06476   3.08370   3.11047   3.18095   3.19069
 Alpha virt. eigenvalues --    3.21626   3.28980   3.38033   3.43291   3.56437
 Alpha virt. eigenvalues --    3.61497  18.83362  18.90987  20.94365  21.15548
 Alpha virt. eigenvalues --   21.46935  21.52351  21.55387  21.58348  21.75062
 Alpha virt. eigenvalues --   21.79622  21.81721  21.83197  21.94817  21.98316
  Beta  occ. eigenvalues --  -88.48610 -88.36302 -10.23810 -10.22624 -10.21833
  Beta  occ. eigenvalues --  -10.21294 -10.19102 -10.18144 -10.18134 -10.17495
  Beta  occ. eigenvalues --  -10.17370 -10.16730 -10.16509 -10.16306  -8.07672
  Beta  occ. eigenvalues --   -7.95641  -6.09540  -6.09486  -6.08753  -5.97796
  Beta  occ. eigenvalues --   -5.97299  -5.96519  -1.13331  -1.09096  -1.05858
  Beta  occ. eigenvalues --   -1.00695  -0.98071  -0.97420  -0.94502  -0.91852
  Beta  occ. eigenvalues --   -0.84392  -0.83415  -0.83321  -0.80260  -0.75715
  Beta  occ. eigenvalues --   -0.74634  -0.71291  -0.69696  -0.68757  -0.67959
  Beta  occ. eigenvalues --   -0.66255  -0.65554  -0.64680  -0.63620  -0.62795
  Beta  occ. eigenvalues --   -0.60732  -0.59622  -0.58890  -0.57008  -0.56401
  Beta  occ. eigenvalues --   -0.54986  -0.51360  -0.49968  -0.49070  -0.48251
  Beta  occ. eigenvalues --   -0.44152
  Beta virt. eigenvalues --   -0.21425  -0.13078  -0.12256  -0.11101  -0.09692
  Beta virt. eigenvalues --   -0.08284  -0.06897  -0.04759  -0.03361  -0.00332
  Beta virt. eigenvalues --    0.01016   0.01830   0.03346   0.03495   0.05134
  Beta virt. eigenvalues --    0.05434   0.06035   0.06639   0.06908   0.07966
  Beta virt. eigenvalues --    0.08464   0.09259   0.10054   0.10643   0.11506
  Beta virt. eigenvalues --    0.13519   0.13815   0.14826   0.15702   0.16309
  Beta virt. eigenvalues --    0.16450   0.17254   0.17516   0.18110   0.18354
  Beta virt. eigenvalues --    0.18627   0.19134   0.20047   0.20266   0.20951
  Beta virt. eigenvalues --    0.21775   0.22044   0.22684   0.23988   0.24616
  Beta virt. eigenvalues --    0.25299   0.27035   0.27698   0.27811   0.28996
  Beta virt. eigenvalues --    0.29391   0.29851   0.30098   0.31182   0.31497
  Beta virt. eigenvalues --    0.32826   0.33250   0.33683   0.33931   0.35575
  Beta virt. eigenvalues --    0.35742   0.37027   0.37259   0.37832   0.38563
  Beta virt. eigenvalues --    0.38816   0.38953   0.40171   0.40662   0.41375
  Beta virt. eigenvalues --    0.42253   0.43191   0.43370   0.43585   0.44176
  Beta virt. eigenvalues --    0.45109   0.45862   0.46772   0.48318   0.49173
  Beta virt. eigenvalues --    0.50076   0.51494   0.52707   0.55203   0.56604
  Beta virt. eigenvalues --    0.58121   0.59566   0.60225   0.61142   0.62267
  Beta virt. eigenvalues --    0.62665   0.64016   0.65805   0.66432   0.67883
  Beta virt. eigenvalues --    0.69908   0.71314   0.75525   0.77154   0.77397
  Beta virt. eigenvalues --    0.78499   0.80931   0.81390   0.83153   0.85069
  Beta virt. eigenvalues --    0.86148   0.94334   0.96393   1.06805   1.11024
  Beta virt. eigenvalues --    1.11617   1.13152   1.14269   1.14894   1.15396
  Beta virt. eigenvalues --    1.16691   1.17292   1.17907   1.19043   1.19755
  Beta virt. eigenvalues --    1.20928   1.21338   1.22112   1.22923   1.23307
  Beta virt. eigenvalues --    1.26392   1.27201   1.28641   1.29782   1.30944
  Beta virt. eigenvalues --    1.31540   1.33077   1.34372   1.34985   1.35264
  Beta virt. eigenvalues --    1.35721   1.36047   1.36595   1.36821   1.37497
  Beta virt. eigenvalues --    1.38362   1.38945   1.40442   1.41077   1.42388
  Beta virt. eigenvalues --    1.42728   1.43245   1.44043   1.45236   1.45728
  Beta virt. eigenvalues --    1.46826   1.47808   1.48312   1.49631   1.50702
  Beta virt. eigenvalues --    1.51577   1.52618   1.53986   1.54617   1.55633
  Beta virt. eigenvalues --    1.55915   1.59742   1.61690   1.64617   1.66584
  Beta virt. eigenvalues --    1.66664   1.67906   1.68529   1.69649   1.70445
  Beta virt. eigenvalues --    1.70704   1.71331   1.72781   1.73703   1.75587
  Beta virt. eigenvalues --    1.76832   1.78402   1.79375   1.79770   1.80251
  Beta virt. eigenvalues --    1.80331   1.81932   1.82443   1.83532   1.87299
  Beta virt. eigenvalues --    1.87614   1.88488   1.89258   1.89870   1.90062
  Beta virt. eigenvalues --    1.91083   1.92569   1.95217   1.96926   1.99776
  Beta virt. eigenvalues --    2.01684   2.04907   2.08015   2.12966   2.13515
  Beta virt. eigenvalues --    2.15163   2.16423   2.18241   2.18684   2.19785
  Beta virt. eigenvalues --    2.20896   2.21243   2.22015   2.23757   2.23940
  Beta virt. eigenvalues --    2.24528   2.25686   2.26530   2.28809   2.30732
  Beta virt. eigenvalues --    2.33164   2.33217   2.38448   2.39396   2.41730
  Beta virt. eigenvalues --    2.42572   2.42953   2.44969   2.47377   2.48296
  Beta virt. eigenvalues --    2.50445   2.51057   2.52700   2.54161   2.54578
  Beta virt. eigenvalues --    2.55283   2.56276   2.56634   2.57270   2.58698
  Beta virt. eigenvalues --    2.63775   2.68062   2.70283   2.71653   2.72441
  Beta virt. eigenvalues --    2.79381   2.88135   2.91535   2.93027   2.95160
  Beta virt. eigenvalues --    2.98856   2.99083   3.00745   3.01938   3.02868
  Beta virt. eigenvalues --    3.04953   3.06678   3.08413   3.12399   3.18105
  Beta virt. eigenvalues --    3.19498   3.21950   3.28987   3.39825   3.43314
  Beta virt. eigenvalues --    3.56928   3.61500  18.83366  18.91021  20.94368
  Beta virt. eigenvalues --   21.15904  21.47703  21.52958  21.55624  21.58352
  Beta virt. eigenvalues --   21.75540  21.79634  21.81773  21.83241  21.95068
  Beta virt. eigenvalues --   21.98368
          Condensed to atoms (all electrons):
               1          2          3          4          5          6
     1  C    6.017856  -0.145832  -0.101940   0.224932   0.004953  -0.016927
     2  C   -0.145832   6.215393   0.477575  -0.379843  -0.012368  -0.014992
     3  S   -0.101940   0.477575  15.466144  -0.183198   0.059271  -0.066408
     4  C    0.224932  -0.379843  -0.183198   6.643796  -0.051883   0.022520
     5  C    0.004953  -0.012368   0.059271  -0.051883   6.230652   0.039562
     6  C   -0.016927  -0.014992  -0.066408   0.022520   0.039562   5.677975
     7  C   -0.218757   0.293491   0.049433  -0.324018  -0.001661   0.004603
     8  C   -0.368734   0.033089   0.023157  -0.246485   0.001886   0.011992
     9  H   -0.000735   0.005123   0.003755  -0.030807  -0.031931   0.007568
    10  C   -0.002317   0.011471  -0.035288  -0.004016  -0.030375   0.062524
    11  C    0.002830   0.003531   0.016329  -0.010628   0.059079   0.249081
    12  C   -0.000556  -0.001263  -0.015251   0.001264  -0.222733   0.128619
    13  C    0.000220   0.001568   0.019148  -0.001256   0.123384  -0.143505
    14  H   -0.000051   0.000319  -0.000996  -0.000381  -0.081203   0.006549
    15  H    0.000058   0.000124  -0.000220  -0.000216   0.016791  -0.053003
    16  H   -0.000003  -0.000045  -0.000453   0.000026  -0.004594   0.015338
    17  H    0.000001   0.000028   0.000188  -0.000016   0.021440  -0.000800
    18  C    0.268968  -0.233174  -0.009663   0.245086   0.000637  -0.003427
    19  H    0.453869  -0.106816  -0.016564   0.035326   0.000194  -0.000477
    20  H   -0.035244  -0.015199   0.336965   0.012251   0.000033   0.002588
    21  H   -0.057322   0.020920   0.000097  -0.004324  -0.000006   0.000014
    22  H   -0.002613   0.025502   0.000028  -0.081386   0.000796   0.000027
    23  H    0.019674  -0.002359  -0.000041   0.027314   0.000009  -0.000010
    24  S    0.018701  -0.198709  -0.007257   0.408815   0.182015  -0.033500
               7          8          9         10         11         12
     1  C   -0.218757  -0.368734  -0.000735  -0.002317   0.002830  -0.000556
     2  C    0.293491   0.033089   0.005123   0.011471   0.003531  -0.001263
     3  S    0.049433   0.023157   0.003755  -0.035288   0.016329  -0.015251
[...]
     7  C   -0.000002  -0.000000  -0.000001  -0.000000   0.000000   0.000160
     8  C   -0.000007   0.000017  -0.000000   0.000000  -0.000000  -0.001591
     9  H    0.000040  -0.000363  -0.000000  -0.000000   0.000006  -0.000046
    10  C   -0.003456  -0.012218  -0.001249  -0.002539   0.005071  -0.000041
    11  C   -0.010046   0.000662   0.014644   0.004418  -0.001578  -0.000004
    12  C   -0.002663  -0.001615  -0.012398  -0.009045   0.003934  -0.000002
    13  C   -0.052800   0.001817   0.001862   0.003243  -0.003299   0.000002
    14  H    0.001817   0.004700   0.000009  -0.000004   0.000115   0.000001
    15  H    0.001862   0.000009   0.027206   0.000780  -0.000024   0.000000
    16  H    0.003243  -0.000004   0.000780   0.004295   0.000042   0.000000
    17  H   -0.003299   0.000115  -0.000024   0.000042   0.002603  -0.000000
    18  C    0.000002   0.000001   0.000000   0.000000  -0.000000   0.002037
    19  H    0.000000   0.000000   0.000000   0.000000  -0.000000   0.000039
    20  H    0.000006  -0.000003  -0.000002  -0.000001   0.000001  -0.000002
    21  H   -0.000000  -0.000000  -0.000000  -0.000000   0.000000  -0.000310
    22  H   -0.000001  -0.000000  -0.000000  -0.000000  -0.000000   0.000028
    23  H    0.000000   0.000000   0.000000   0.000000  -0.000000   0.000074
    24  S    0.001872   0.001081   0.000080   0.000016  -0.000028  -0.000093
              19         20         21         22         23         24
     1  C    0.000407  -0.000623  -0.000277  -0.000019  -0.000011   0.000501
     2  C   -0.000524   0.001025   0.000285   0.000000  -0.000013  -0.000304
     3  S    0.000082   0.000183   0.000000  -0.000000   0.000001  -0.000333
     4  C    0.000048   0.000068  -0.000109   0.000244  -0.000022   0.002431
     5  C    0.000033  -0.000469  -0.000001  -0.000105   0.000001   0.034007
     6  C   -0.000060   0.000190   0.000004   0.000168  -0.000002  -0.033546
     7  C    0.000055  -0.000090   0.000201  -0.000022   0.000024  -0.000030
     8  C   -0.000032  -0.000003   0.000159  -0.000105  -0.000024  -0.001972
     9  H   -0.000000   0.000007   0.000000   0.000022  -0.000000   0.000371
    10  C   -0.000005   0.000156   0.000000   0.000020  -0.000000  -0.017800
    11  C    0.000000  -0.000036   0.000000   0.000000  -0.000000  -0.001783
    12  C   -0.000001   0.000021   0.000000   0.000001  -0.000000  -0.001295
    13  C    0.000000   0.000006  -0.000000  -0.000001   0.000000   0.001872
    14  H    0.000000  -0.000003  -0.000000  -0.000000   0.000000   0.001081
    15  H    0.000000  -0.000002  -0.000000  -0.000000   0.000000   0.000080
    16  H    0.000000  -0.000001  -0.000000  -0.000000   0.000000   0.000016
    17  H   -0.000000   0.000001   0.000000  -0.000000  -0.000000  -0.000028
    18  C    0.000039  -0.000002  -0.000310   0.000028   0.000074  -0.000093
    19  H    0.000046  -0.000008  -0.000023  -0.000000  -0.000000   0.000004
    20  H   -0.000008   0.000121   0.000002   0.000000   0.000000  -0.000002
    21  H   -0.000023   0.000002   0.000030   0.000002  -0.000010   0.000000
    22  H   -0.000000   0.000000   0.000002  -0.000158   0.000009  -0.000068
    23  H   -0.000000   0.000000  -0.000010   0.000009  -0.000025  -0.000001
    24  S    0.000004  -0.000002   0.000000  -0.000068  -0.000001   0.032840
 Mulliken charges and spin densities:
               1          2
     1  C   -0.061034  -0.002244
     2  C    0.022467   0.003021
     3  S   -0.014810  -0.002119
     4  C   -0.302873   0.000638
     5  C   -0.303948  -0.066873
     6  C    0.104089   0.975171
     7  C   -0.075586   0.001670
     8  C   -0.046101  -0.000102
     9  H    0.168390   0.000276
    10  C    0.074428   0.064171
    11  C   -0.115702  -0.038475
    12  C   -0.059030   0.068103
    13  C   -0.160036  -0.056639
    14  H    0.175585   0.004869
    15  H    0.181247   0.024693
    16  H    0.170402   0.003864
    17  H    0.168022   0.003766
    18  C   -0.119881  -0.000313
    19  H    0.170067   0.000061
    20  H    0.138136   0.000542
    21  H    0.162200  -0.000045
    22  H    0.180273   0.000018
    23  H    0.160488   0.000000
    24  S    0.383208   0.015947
 Sum of Mulliken charges =   1.00000   1.00000
 Mulliken charges and spin densities with hydrogens summed into heavy atoms:
               1          2
     1  C    0.109032  -0.002183
     2  C    0.022467   0.003021
     3  S    0.123325  -0.001577
     4  C   -0.302873   0.000638
     5  C   -0.303948  -0.066873
     6  C    0.104089   0.975171
     7  C    0.086614   0.001624
     8  C    0.134172  -0.000084
    10  C    0.250012   0.069040
    11  C    0.065546  -0.013782
    12  C    0.111372   0.071967
    13  C    0.007986  -0.052873
    18  C    0.040607  -0.000313
    24  S    0.551598   0.016224
 Electronic spatial extent (au):  <R**2>=           3271.3949
 Charge=              1.0000 electrons
 Dipole moment (field-independent basis, Debye):
    X=             -0.1391    Y=             -1.5861    Z=             -1.8168  Tot=              2.4158
 Quadrupole moment (field-independent basis, Debye-Ang):
   XX=            -49.3606   YY=            -76.2881   ZZ=            -85.8902
   XY=             -1.7424   XZ=              2.4978   YZ=              3.2178
 Traceless Quadrupole moment (field-independent basis, Debye-Ang):
   XX=             21.1524   YY=             -5.7752   ZZ=            -15.3772
   XY=             -1.7424   XZ=              2.4978   YZ=              3.2178
 Octapole moment (field-independent basis, Debye-Ang**2):
  XXX=              6.5492  YYY=              0.7200  ZZZ=             -9.6839  XYY=             19.9257
  XXY=             23.6765  XXZ=              6.7748  XZZ=            -21.1558  YZZ=             -1.0866
  YYZ=            -16.9045  XYZ=            -15.5338
 Hexadecapole moment (field-independent basis, Debye-Ang**3):
 XXXX=          -2408.9509 YYYY=           -798.9902 ZZZZ=           -350.3760 XXXY=            -80.8634
 XXXZ=             98.4675 YYYX=              3.8983 YYYZ=            -12.5345 ZZZX=             -4.5843
 ZZZY=             24.4639 XXYY=           -605.3580 XXZZ=           -570.9616 YYZZ=           -181.8549
 XXYZ=             26.5684 YYXZ=             -0.2712 ZZXY=             -8.2166
 N-N= 1.040642068320D+03 E-N=-5.029198947151D+03  KE= 1.254467692053D+03
                          Isotropic Fermi Contact Couplings
        Atom                 a.u.       MegaHertz       Gauss      10(-4) cm-1
     1  C(13)             -0.00027      -0.29944      -0.10685      -0.09988
     2  C(13)              0.00026       0.29247       0.10436       0.09756
     3  S(33)              0.00476       1.63500       0.58341       0.54538
     4  C(13)             -0.00071      -0.80054      -0.28565      -0.26703
     5  C(13)              0.00988      11.10765       3.96348       3.70511
     6  C(13)              0.51635     580.47396     207.12754     193.62527
     7  C(13)              0.00007       0.07619       0.02719       0.02542
     8  C(13)              0.00047       0.52589       0.18765       0.17542
     9  H(1)               0.00021       0.92966       0.33173       0.31010
    10  C(13)              0.02055      23.09901       8.24230       7.70500
    11  C(13)              0.01224      13.76171       4.91052       4.59041
    12  C(13)              0.02914      32.75423      11.68752      10.92563
    13  C(13)             -0.00500      -5.61861      -2.00486      -1.87417
    14  H(1)               0.00277      12.38723       4.42007       4.13194
    15  H(1)               0.01028      45.93434      16.39052      15.32205
    16  H(1)               0.00193       8.64719       3.08553       2.88439
    17  H(1)               0.00186       8.31329       2.96639       2.77302
    18  C(13)             -0.00004      -0.04773      -0.01703      -0.01592
    19  H(1)               0.00001       0.03172       0.01132       0.01058
    20  H(1)               0.00020       0.88851       0.31704       0.29638
    21  H(1)              -0.00001      -0.06638      -0.02369      -0.02214
    22  H(1)               0.00002       0.07339       0.02619       0.02448
    23  H(1)              -0.00001      -0.06517      -0.02326      -0.02174
    24  S(33)              0.03859      13.25435       4.72948       4.42117
 --------------------------------------------------------
       Center         ----  Spin Dipole Couplings  ----
                      3XX-RR        3YY-RR        3ZZ-RR
 --------------------------------------------------------
     1   Atom        0.002254     -0.000499     -0.001755
     2   Atom        0.002745     -0.004615      0.001870
     3   Atom       -0.007514      0.004227      0.003287
     4   Atom        0.002933     -0.004793      0.001860
     5   Atom       -0.046941     -0.070333      0.117274
     6   Atom        0.310807     -0.413110      0.102303
     7   Atom        0.000902     -0.001717      0.000815
     8   Atom        0.003239     -0.002050     -0.001189
     9   Atom       -0.001677     -0.001806      0.003483
    10   Atom        0.006587     -0.019384      0.012797
    11   Atom        0.070996     -0.051625     -0.019371
    12   Atom        0.020497     -0.021515      0.001019
    13   Atom        0.011901     -0.025401      0.013500
    14   Atom       -0.003968     -0.002568      0.006536
    15   Atom        0.004167      0.001111     -0.005278
    16   Atom        0.005696     -0.001303     -0.004393
    17   Atom        0.000216     -0.001080      0.000864
    18   Atom        0.002071     -0.001114     -0.000957
    19   Atom        0.000886     -0.000106     -0.000781
    20   Atom       -0.000922      0.000457      0.000465
    21   Atom        0.001069     -0.000517     -0.000552
    22   Atom        0.001783     -0.000454     -0.001329
    23   Atom        0.001247     -0.000618     -0.000629
    24   Atom        0.037076      0.005693     -0.042769
 --------------------------------------------------------
                        XY            XZ            YZ
 --------------------------------------------------------
     1   Atom        0.001614     -0.001191     -0.000816
     2   Atom        0.002499     -0.006786     -0.001502
     3   Atom        0.002165     -0.008452     -0.004453
     4   Atom       -0.004122     -0.006556      0.001476
     5   Atom       -0.027514      0.023521      0.099616
     6   Atom       -0.012373      0.659183     -0.110867
     7   Atom        0.000584     -0.000917      0.000098
     8   Atom       -0.001213     -0.002897      0.000511
     9   Atom       -0.001704     -0.002142      0.002974
    10   Atom        0.014516      0.038782     -0.009274
    11   Atom       -0.081740      0.050813      0.015716
    12   Atom        0.003166      0.042874     -0.022602
    13   Atom       -0.027602      0.020017      0.025583
    14   Atom        0.000090      0.001019      0.005056
    15   Atom       -0.015145     -0.009491      0.009993
    16   Atom       -0.006523     -0.000364      0.000566
    17   Atom       -0.001309      0.000711      0.001268
    18   Atom       -0.000189     -0.001120     -0.000140
    19   Atom        0.001520     -0.000893     -0.000662
    20   Atom        0.001189     -0.001274     -0.002045
    21   Atom        0.000557     -0.000349     -0.000081
    22   Atom       -0.002011     -0.001001      0.000665
    23   Atom       -0.000296     -0.000295      0.000024
    24   Atom       -0.068068     -0.028665      0.024787
 --------------------------------------------------------


 ---------------------------------------------------------------------------------
              Anisotropic Spin Dipole Couplings in Principal Axis System
 ---------------------------------------------------------------------------------

       Atom             a.u.   MegaHertz   Gauss  10(-4) cm-1        Axes

              Baa    -0.0022    -0.296    -0.106    -0.099  0.1338  0.3218  0.9373
     1 C(13)  Bbb    -0.0012    -0.159    -0.057    -0.053 -0.4763  0.8503 -0.2239
              Bcc     0.0034     0.455     0.162     0.152  0.8691  0.4164 -0.2670
 
              Baa    -0.0055    -0.742    -0.265    -0.248 -0.4635  0.8493 -0.2526
     2 C(13)  Bbb    -0.0041    -0.556    -0.198    -0.186  0.5149  0.4902  0.7033
              Bcc     0.0097     1.299     0.463     0.433  0.7211  0.1959 -0.6645
 
              Baa    -0.0121    -0.498    -0.178    -0.166  0.8751  0.0158  0.4838
     3 S(33)  Bbb     0.0008     0.033     0.012     0.011 -0.2874  0.8212  0.4930
              Bcc     0.0114     0.465     0.166     0.155 -0.3895 -0.5704  0.7232
 
              Baa    -0.0069    -0.925    -0.330    -0.309  0.5076  0.8273  0.2406
     4 C(13)  Bbb    -0.0032    -0.428    -0.153    -0.143  0.4573 -0.4954  0.7386
              Bcc     0.0101     1.353     0.483     0.451  0.7302 -0.2649 -0.6298
 
              Baa    -0.1282   -17.198    -6.137    -5.737  0.3934  0.8381 -0.3779
     5 C(13)  Bbb    -0.0327    -4.388    -1.566    -1.464  0.9179 -0.3815  0.1094
              Bcc     0.1609    21.586     7.702     7.200  0.0524  0.3899  0.9194
 
              Baa    -0.5186   -69.587   -24.830   -23.212 -0.4907  0.6033  0.6287
     6 C(13)  Bbb    -0.3605   -48.377   -17.262   -16.137  0.4324  0.7950 -0.4255
              Bcc     0.8791   117.964    42.092    39.349  0.7565 -0.0631  0.6510
 
              Baa    -0.0019    -0.252    -0.090    -0.084 -0.2412  0.9634 -0.1172
     7 C(13)  Bbb     0.0001     0.008     0.003     0.003  0.6308  0.2475  0.7354
              Bcc     0.0018     0.243     0.087     0.081  0.7375  0.1035 -0.6674
 
              Baa    -0.0026    -0.354    -0.126    -0.118  0.4674  0.2205  0.8561
     8 C(13)  Bbb    -0.0023    -0.306    -0.109    -0.102  0.0630  0.9576 -0.2810
              Bcc     0.0049     0.660     0.236     0.220  0.8818 -0.1853 -0.4337
 
              Baa    -0.0036    -1.907    -0.680    -0.636  0.5309  0.8265 -0.1872
     9 H(1)   Bbb    -0.0022    -1.171    -0.418    -0.391  0.7773 -0.3870  0.4960
              Bcc     0.0058     3.078     1.098     1.027 -0.3375  0.4088  0.8479
 
              Baa    -0.0420    -5.635    -2.011    -1.880 -0.6004  0.6017  0.5268
    10 C(13)  Bbb    -0.0068    -0.906    -0.323    -0.302  0.4126  0.7974 -0.4404
              Bcc     0.0487     6.541     2.334     2.182  0.6850  0.0470  0.7270
 
              Baa    -0.1088   -14.605    -5.211    -4.872  0.4707  0.7838 -0.4050
    11 C(13)  Bbb    -0.0139    -1.865    -0.665    -0.622 -0.0559  0.4846  0.8729
              Bcc     0.1227    16.469     5.877     5.494  0.8805 -0.3883  0.2719
 
              Baa    -0.0483    -6.486    -2.314    -2.163 -0.4395  0.6087  0.6606
    12 C(13)  Bbb    -0.0082    -1.104    -0.394    -0.368  0.4939  0.7780 -0.3883
              Bcc     0.0566     7.589     2.708     2.532  0.7503 -0.1556  0.6425
 
              Baa    -0.0551    -7.389    -2.637    -2.465  0.4506  0.7853 -0.4245
    13 C(13)  Bbb     0.0223     2.994     1.068     0.999 -0.5381  0.6184  0.5728
              Bcc     0.0328     4.395     1.568     1.466  0.7123 -0.0296  0.7012
 
              Baa    -0.0049    -2.636    -0.941    -0.879  0.3439  0.8477 -0.4039
    14 H(1)   Bbb    -0.0039    -2.091    -0.746    -0.697  0.9360 -0.3439  0.0751
              Bcc     0.0089     4.727     1.687     1.577  0.0752  0.4039  0.9117
 
              Baa    -0.0132    -7.034    -2.510    -2.346  0.4081  0.7725 -0.4865
    15 H(1)   Bbb    -0.0111    -5.910    -2.109    -1.971  0.6262  0.1509  0.7649
              Bcc     0.0243    12.944     4.619     4.318  0.6643 -0.6168 -0.4221
 
              Baa    -0.0053    -2.831    -1.010    -0.944  0.4755  0.8199 -0.3190
    16 H(1)   Bbb    -0.0043    -2.304    -0.822    -0.769  0.1991  0.2529  0.9468
              Bcc     0.0096     5.135     1.832     1.713  0.8569 -0.5137 -0.0430
 
              Baa    -0.0025    -1.343    -0.479    -0.448  0.4783  0.7844 -0.3949
    17 H(1)   Bbb     0.0010     0.545     0.194     0.182  0.8726 -0.4753  0.1127
              Bcc     0.0015     0.798     0.285     0.266  0.0993  0.3985  0.9118
 
              Baa    -0.0014    -0.193    -0.069    -0.064  0.2860  0.5117  0.8102
    18 C(13)  Bbb    -0.0010    -0.135    -0.048    -0.045 -0.1283  0.8583 -0.4968
              Bcc     0.0024     0.328     0.117     0.109  0.9496 -0.0381 -0.3111
 
              Baa    -0.0012    -0.647    -0.231    -0.216 -0.5013  0.8318  0.2382
    19 H(1)   Bbb    -0.0012    -0.624    -0.223    -0.208  0.4081 -0.0154  0.9128
              Bcc     0.0024     1.270     0.453     0.424  0.7629  0.5548 -0.3318
 
              Baa    -0.0017    -0.897    -0.320    -0.299  0.8067  0.1072  0.5811
    20 H(1)   Bbb    -0.0016    -0.829    -0.296    -0.277 -0.4471  0.7539  0.4815
              Bcc     0.0032     1.726     0.616     0.576 -0.3864 -0.6482  0.6561
 
              Baa    -0.0007    -0.375    -0.134    -0.125 -0.3405  0.8861 -0.3145
    21 H(1)   Bbb    -0.0006    -0.326    -0.116    -0.109  0.0746  0.3589  0.9304
              Bcc     0.0013     0.701     0.250     0.234  0.9373  0.2934 -0.1883
 
              Baa    -0.0017    -0.909    -0.324    -0.303 -0.1969 -0.6887  0.6978
    22 H(1)   Bbb    -0.0016    -0.841    -0.300    -0.280  0.5179  0.5313  0.6705
              Bcc     0.0033     1.749     0.624     0.583  0.8324 -0.4935 -0.2520
 
              Baa    -0.0007    -0.368    -0.131    -0.123  0.2090  0.5928  0.7777
    23 H(1)   Bbb    -0.0006    -0.345    -0.123    -0.115  0.0286  0.7912 -0.6108
              Bcc     0.0013     0.713     0.255     0.238  0.9775 -0.1499 -0.1485
 
              Baa    -0.0532    -2.181    -0.778    -0.728  0.0013 -0.3866  0.9223
    24 S(33)  Bbb    -0.0480    -1.968    -0.702    -0.656  0.6556  0.6968  0.2911
              Bcc     0.1012     4.149     1.480     1.384  0.7551 -0.6042 -0.2544
 

 ---------------------------------------------------------------------------------

 No NMR shielding tensors so no spin-rotation constants.
 Leave Link  601 at Mon Jan 25 23:13:45 2021, MaxMem=  4026531840 cpu:               3.6 elap:               0.5
 (Enter /opt/ohpc/pub/libs/gaussian/g16-A.03/sandybridge/g16/l9999.exe)

 Test job not archived.
 1\1\GINC-CNODE146\SP\ULC-wHPBE\TZVP\C12H10S2(1+,2)\RDU230\25-Jan-2021\
 0\\#P LC-wHPBE/TZVP iop(3/107=0236300000, 3/108=0236300000) scf=(conve
 r=6,fermi,ndamp=35,noincfock,novaracc,vshift=500,xqc)\\H10 C12 S2\\1,2
 \C,0,-2.574063,-1.434391,-0.049117\C,0,-1.368901,-0.745264,-0.216328\S
 ,0,0.093606,-1.678504,-0.585022\C,0,-1.397687,0.626896,-0.046009\C,0,1
 .500395,0.811934,0.077279\C,0,1.478004,0.220423,1.307027\C,0,-3.746915
 ,-0.783096,0.229547\C,0,-2.584351,1.293751,0.256604\H,0,-0.039943,1.86
 0892,-1.547006\C,0,2.473105,0.786527,-0.925649\C,0,2.645316,-0.559969,
 1.492438\C,0,3.655495,-0.649979,0.563531\C,0,3.583956,0.035098,-0.6567
 53\H,0,2.357645,1.302286,-1.874829\H,0,2.763398,-1.119309,2.419207\H,0
 ,4.527775,-1.262476,0.773175\H,0,4.391412,-0.038194,-1.378729\C,0,-3.7
 59914,0.597536,0.384558\H,0,-2.557315,-2.514169,-0.13851\H,0,-0.525974
 ,-2.528359,-1.4318\H,0,-4.665467,-1.345208,0.349638\H,0,-2.558102,2.36
 8477,0.406674\H,0,-4.681894,1.115025,0.619767\S,0,0.004008,1.738768,-0
 .20875\\Version=EM64L-G16RevA.03\State=2-A\HF=-1258.7567874\S2=0.76159
 8\S2-1=0.\S2A=0.75006\RMSD=3.023e-09\Dipole=0.0547265,0.624027,-0.7147
 899\Quadrupole=15.7262939,-4.2937023,-11.4325916,-1.2954024,-1.8570248
 ,-2.3923256\PG=C01 [X(C12H10S2)]\\@


 ACHIEVEMENT--  THE MAN WHO ROWS THE BOAT GENERALLY 
                DOESN'T HAVE TIME TO ROCK IT.

                   -- FROM THE BACK OF A SUGAR PACKET
 Job cpu time:       0 days  2 hours 16 minutes 41.7 seconds.
 Elapsed time:       0 days  0 hours 17 minutes  7.2 seconds.
 File lengths (MBytes):  RWF=    112 Int=      0 D2E=      0 Chk=     12 Scr=      8
 Normal termination of Gaussian 16 at Mon Jan 25 23:13:45 2021.
