 Entering Gaussian System, Link 0=g16
 Input=mol_ta_NN_frag_tune_c1.gjf
 Output=mol_ta_NN_frag_tune_c1.log
 Initial command:
 /opt/ohpc/pub/libs/gaussian/g16-A.03/sandybridge/g16/l1.exe "/mnt/gpfs2_4m/scratch/rdu230/ondemand/projects/init_structures/gaussian/wtuning/mol_ta_NN_frag/tuning_mol_ta_NN_frag_ocycle0/Gau-19090.inp" -scrdir="/mnt/gpfs2_4m/scratch/rdu230/ondemand/projects/init_structures/gaussian/wtuning/mol_ta_NN_frag/tuning_mol_ta_NN_frag_ocycle0/"
 Entering Link 1 = /opt/ohpc/pub/libs/gaussian/g16-A.03/sandybridge/g16/l1.exe PID=     19091.
  
 Copyright (c) 1988,1990,1992,1993,1995,1998,2003,2009,2016,
            Gaussian, Inc.  All Rights Reserved.
  
 This is part of the Gaussian(R) 16 program.  It is based on
 the Gaussian(R) 09 system (copyright 2009, Gaussian, Inc.),
 the Gaussian(R) 03 system (copyright 2003, Gaussian, Inc.),
 the Gaussian(R) 98 system (copyright 1998, Gaussian, Inc.),
 the Gaussian(R) 94 system (copyright 1995, Gaussian, Inc.),
 the Gaussian 92(TM) system (copyright 1992, Gaussian, Inc.),
 the Gaussian 90(TM) system (copyright 1990, Gaussian, Inc.),
 the Gaussian 88(TM) system (copyright 1988, Gaussian, Inc.),
 the Gaussian 86(TM) system (copyright 1986, Carnegie Mellon
 University), and the Gaussian 82(TM) system (copyright 1983,
 Carnegie Mellon University). Gaussian is a federally registered
 trademark of Gaussian, Inc.
  
 This software contains proprietary and confidential information,
 including trade secrets, belonging to Gaussian, Inc.
  
 This software is provided under written license and may be
 used, copied, transmitted, or stored only in accord with that
 written license.
  
 The following legend is applicable only to US Government
 contracts under FAR:
  
                    RESTRICTED RIGHTS LEGEND
  
 Use, reproduction and disclosure by the US Government is
 subject to restrictions as set forth in subparagraphs (a)
 and (c) of the Commercial Computer Software - Restricted
 Rights clause in FAR 52.227-19.
  
 Gaussian, Inc.
 340 Quinnipiac St., Bldg. 40, Wallingford CT 06492
  
  
 ---------------------------------------------------------------
 Warning -- This program may not be used in any manner that
 competes with the business of Gaussian, Inc. or will provide
 assistance to any competitor of Gaussian, Inc.  The licensee
 of this program is prohibited from giving any competitor of
 Gaussian, Inc. access to this program.  By using this program,
 the user acknowledges that Gaussian, Inc. is engaged in the
 business of creating and licensing software in the field of
 computational chemistry and represents and warrants to the
 licensee that it is not a competitor of Gaussian, Inc. and that
 it will not use this program in any manner prohibited above.
 ---------------------------------------------------------------
  

 Cite this work as:
 Gaussian 16, Revision A.03,
 M. J. Frisch, G. W. Trucks, H. B. Schlegel, G. E. Scuseria, 
 M. A. Robb, J. R. Cheeseman, G. Scalmani, V. Barone, 
 G. A. Petersson, H. Nakatsuji, X. Li, M. Caricato, A. V. Marenich, 
 J. Bloino, B. G. Janesko, R. Gomperts, B. Mennucci, H. P. Hratchian, 
 J. V. Ortiz, A. F. Izmaylov, J. L. Sonnenberg, D. Williams-Young, 
 F. Ding, F. Lipparini, F. Egidi, J. Goings, B. Peng, A. Petrone, 
 T. Henderson, D. Ranasinghe, V. G. Zakrzewski, J. Gao, N. Rega, 
 G. Zheng, W. Liang, M. Hada, M. Ehara, K. Toyota, R. Fukuda, 
 J. Hasegawa, M. Ishida, T. Nakajima, Y. Honda, O. Kitao, H. Nakai, 
 T. Vreven, K. Throssell, J. A. Montgomery, Jr., J. E. Peralta, 
 F. Ogliaro, M. J. Bearpark, J. J. Heyd, E. N. Brothers, K. N. Kudin, 
 V. N. Staroverov, T. A. Keith, R. Kobayashi, J. Normand, 
 K. Raghavachari, A. P. Rendell, J. C. Burant, S. S. Iyengar, 
 J. Tomasi, M. Cossi, J. M. Millam, M. Klene, C. Adamo, R. Cammi, 
 J. W. Ochterski, R. L. Martin, K. Morokuma, O. Farkas, 
 J. B. Foresman, and D. J. Fox, Gaussian, Inc., Wallingford CT, 2016.
 
 ******************************************
 Gaussian 16:  EM64L-G16RevA.03 25-Dec-2016
                25-Jan-2021 
 ******************************************
 %mem=30GB
 %nproc=8
 Will use up to    8 processors via shared memory.
 ----------------------------------------------------------------------
 #P LC-wHPBE/TZVP iop(3/107=0328100000, 3/108=0328100000) scf=(conver=6
 ,fermi,ndamp=35,noincfock,novaracc,vshift=500,xqc)
 ----------------------------------------------------------------------
 1/38=1,172=1/1;
 2/12=2,17=6,18=5,40=1/2;
 3/5=19,7=101,11=2,25=1,30=1,74=-71,107=328100000,108=328100000/1,2,3;
 4//1;
 5/5=100002,6=6,8=3,10=500,13=1,18=-1,22=13,38=1,93=35/2,8;
 6/7=2,8=2,9=2,10=2,28=1/1;
 99/5=1,9=1/99;
 Leave Link    1 at Mon Jan 25 21:55:27 2021, MaxMem=  4026531840 cpu:               1.4 elap:               0.2
 (Enter /opt/ohpc/pub/libs/gaussian/g16-A.03/sandybridge/g16/l101.exe)
 ----------
 H10 C12 S2
 ----------
 Symbolic Z-matrix:
 Charge =  1 Multiplicity = 2
 C                    -2.57406  -1.43439  -0.04912 
 C                    -1.3689   -0.74526  -0.21633 
 S                     0.09361  -1.6785   -0.58502 
 C                    -1.39769   0.6269   -0.04601 
 C                     1.5004    0.81193   0.07728 
 C                     1.478     0.22042   1.30703 
 C                    -3.74692  -0.7831    0.22955 
 C                    -2.58435   1.29375   0.2566 
 H                    -0.03994   1.86089  -1.54701 
 C                     2.47311   0.78653  -0.92565 
 C                     2.64532  -0.55997   1.49244 
 C                     3.6555   -0.64998   0.56353 
 C                     3.58396   0.0351   -0.65675 
 H                     2.35765   1.30229  -1.87483 
 H                     2.7634   -1.11931   2.41921 
 H                     4.52778  -1.26248   0.77318 
 H                     4.39141  -0.03819  -1.37873 
 C                    -3.75991   0.59754   0.38456 
 H                    -2.55732  -2.51417  -0.13851 
 H                    -0.52597  -2.52836  -1.4318 
 H                    -4.66547  -1.34521   0.34964 
 H                    -2.5581    2.36848   0.40667 
 H                    -4.68189   1.11503   0.61977 
 S                     0.00401   1.73877  -0.20875 
 
 ITRead=  0  0  0  0  0  0  0  0  0  0  0  0  0  0  0  0  0  0  0  0
 ITRead=  0  0  0  0
 MicOpt= -1 -1 -1 -1 -1 -1 -1 -1 -1 -1 -1 -1 -1 -1 -1 -1 -1 -1 -1 -1
 MicOpt= -1 -1 -1 -1
 NAtoms=     24 NQM=       24 NQMF=       0 NMMI=      0 NMMIF=      0
                NMic=       0 NMicF=      0.
                    Isotopes and Nuclear Properties:
 (Nuclear quadrupole moments (NQMom) in fm**2, nuclear magnetic moments (NMagM)
  in nuclear magnetons)

  Atom         1           2           3           4           5           6           7           8           9          10
 IAtWgt=          12          12          32          12          12          12          12          12           1          12
 AtmWgt=  12.0000000  12.0000000  31.9720718  12.0000000  12.0000000  12.0000000  12.0000000  12.0000000   1.0078250  12.0000000
 NucSpn=           0           0           0           0           0           0           0           0           1           0
 AtZEff=  -0.0000000  -0.0000000  -0.0000000  -0.0000000  -0.0000000  -0.0000000  -0.0000000  -0.0000000  -0.0000000  -0.0000000
 NQMom=    0.0000000   0.0000000   0.0000000   0.0000000   0.0000000   0.0000000   0.0000000   0.0000000   0.0000000   0.0000000
 NMagM=    0.0000000   0.0000000   0.0000000   0.0000000   0.0000000   0.0000000   0.0000000   0.0000000   2.7928460   0.0000000
 AtZNuc=   6.0000000   6.0000000  16.0000000   6.0000000   6.0000000   6.0000000   6.0000000   6.0000000   1.0000000   6.0000000

  Atom        11          12          13          14          15          16          17          18          19          20
 IAtWgt=          12          12          12           1           1           1           1          12           1           1
 AtmWgt=  12.0000000  12.0000000  12.0000000   1.0078250   1.0078250   1.0078250   1.0078250  12.0000000   1.0078250   1.0078250
 NucSpn=           0           0           0           1           1           1           1           0           1           1
 AtZEff=  -0.0000000  -0.0000000  -0.0000000  -0.0000000  -0.0000000  -0.0000000  -0.0000000  -0.0000000  -0.0000000  -0.0000000
 NQMom=    0.0000000   0.0000000   0.0000000   0.0000000   0.0000000   0.0000000   0.0000000   0.0000000   0.0000000   0.0000000
 NMagM=    0.0000000   0.0000000   0.0000000   2.7928460   2.7928460   2.7928460   2.7928460   0.0000000   2.7928460   2.7928460
 AtZNuc=   6.0000000   6.0000000   6.0000000   1.0000000   1.0000000   1.0000000   1.0000000   6.0000000   1.0000000   1.0000000

  Atom        21          22          23          24
 IAtWgt=           1           1           1          32
 AtmWgt=   1.0078250   1.0078250   1.0078250  31.9720718
 NucSpn=           1           1           1           0
 AtZEff=  -0.0000000  -0.0000000  -0.0000000  -0.0000000
 NQMom=    0.0000000   0.0000000   0.0000000   0.0000000
 NMagM=    2.7928460   2.7928460   2.7928460   0.0000000
 AtZNuc=   1.0000000   1.0000000   1.0000000  16.0000000
 Leave Link  101 at Mon Jan 25 21:55:27 2021, MaxMem=  4026531840 cpu:               0.8 elap:               0.1
 (Enter /opt/ohpc/pub/libs/gaussian/g16-A.03/sandybridge/g16/l202.exe)
                          Input orientation:                          
 ---------------------------------------------------------------------
 Center     Atomic      Atomic             Coordinates (Angstroms)
 Number     Number       Type             X           Y           Z
 ---------------------------------------------------------------------
      1          6           0       -2.574063   -1.434391   -0.049117
      2          6           0       -1.368901   -0.745264   -0.216328
      3         16           0        0.093606   -1.678504   -0.585022
      4          6           0       -1.397687    0.626896   -0.046009
      5          6           0        1.500395    0.811934    0.077279
      6          6           0        1.478004    0.220423    1.307027
      7          6           0       -3.746915   -0.783096    0.229547
      8          6           0       -2.584351    1.293751    0.256604
      9          1           0       -0.039943    1.860892   -1.547006
     10          6           0        2.473105    0.786527   -0.925649
     11          6           0        2.645316   -0.559969    1.492438
     12          6           0        3.655495   -0.649979    0.563531
     13          6           0        3.583956    0.035098   -0.656753
     14          1           0        2.357645    1.302286   -1.874829
     15          1           0        2.763398   -1.119309    2.419207
     16          1           0        4.527775   -1.262476    0.773175
     17          1           0        4.391412   -0.038194   -1.378729
     18          6           0       -3.759914    0.597536    0.384558
     19          1           0       -2.557315   -2.514169   -0.138510
     20          1           0       -0.525974   -2.528359   -1.431800
     21          1           0       -4.665467   -1.345208    0.349638
     22          1           0       -2.558102    2.368477    0.406674
     23          1           0       -4.681894    1.115025    0.619767
     24         16           0        0.004008    1.738768   -0.208750
 ---------------------------------------------------------------------
                    Distance matrix (angstroms):
                    1          2          3          4          5
     1  C    0.000000
     2  C    1.398310   0.000000
     3  S    2.731894   1.773640   0.000000
     4  C    2.373347   1.382990   2.798099   0.000000
     5  C    4.654370   3.277793   2.935980   2.906599   0.000000
     6  C    4.582225   3.370168   3.017007   3.203986   1.364796
     7  C    1.370190   2.419749   4.026770   2.753703   5.486490
     8  C    2.745238   2.420447   4.088287   1.394432   4.116972
     9  H    4.418634   3.213858   3.670228   2.370487   2.472095
    10  C    5.583430   4.196490   3.443025   3.972692   1.397381
    11  C    5.512071   4.366710   3.475368   4.485682   2.279394
    12  C    6.308568   5.085451   3.881249   5.247532   2.649167
    13  C    6.360017   5.033263   3.888974   5.053712   2.341688
    14  H    5.928269   4.564015   3.959114   4.231224   2.187704
    15  H    5.889006   4.915470   4.057817   5.142096   3.287781
    16  H    7.151351   6.001451   4.656139   6.273108   3.735302
    17  H    7.227384   5.918812   4.668161   5.977638   3.346738
    18  C    2.392288   2.807333   4.579308   2.401326   5.273636
    19  H    1.083601   2.132465   2.815154   3.349565   5.251146
    20  H    2.702452   2.316749   1.350247   3.554706   4.188203
    21  H    2.130946   3.398176   4.861425   3.837202   6.537989
    22  H    3.830118   3.390828   4.938934   2.141165   4.359212
    23  H    3.374890   3.890457   5.662219   3.386376   6.213441
    24  S    4.091561   2.838195   3.439092   1.796522   1.783258
                    6          7          8          9         10
     6  C    0.000000
     7  C    5.428424   0.000000
     8  C    4.331068   2.380248   0.000000
     9  H    3.625025   4.887582   3.169964   0.000000
    10  C    2.509092   6.518193   5.218511   2.802812   0.000000
    11  C    1.416335   6.519609   5.684451   4.723283   2.773058
    12  C    2.460051   7.411136   6.542780   4.941164   2.383118
    13  C    2.885448   7.429444   6.361324   4.154361   1.367823
    14  H    3.473961   6.785490   5.382045   2.483533   1.086407
    15  H    2.164270   6.876905   6.252850   5.698348   3.860640
    16  H    3.432942   8.306373   7.575188   6.000226   3.362452
    17  H    3.970908   8.329093   7.287638   4.824080   2.136667
    18  C    5.331880   1.389368   1.372238   4.377807   6.372039
    19  H    5.084424   2.132423   3.828459   5.240437   6.067892
    20  H    4.367254   4.022496   4.657912   4.417581   4.498792
    21  H    6.411710   1.083573   3.362113   5.939007   7.558430
    22  H    4.659927   3.372990   1.085470   3.227326   5.439733
    23  H    6.262346   2.151586   2.136239   5.176768   7.327362
    24  S    2.603001   4.541071   2.667245   1.344535   2.741742
                   11         12         13         14         15
    11  C    0.000000
    12  C    1.375293   0.000000
    13  C    2.419540   1.401264   0.000000
    14  H    3.858657   3.382507   2.143202   0.000000
    15  H    1.088901   2.111786   3.386370   4.946464   0.000000
    16  H    2.134129   1.086267   2.149229   4.277779   2.417218
    17  H    3.400691   2.165232   1.085636   2.485802   4.271248
    18  C    6.602589   7.521743   7.438622   6.559423   7.045634
    19  H    5.791913   6.524345   6.669524   6.460415   6.066097
    20  H    4.741604   4.999434   4.905460   4.815119   5.256962
    21  H    7.441111   8.352694   8.424432   7.828255   7.715062
    22  H    6.068792   6.909737   6.655855   5.523277   6.673328
    23  H    7.566714   8.522350   8.433269   7.470822   7.978885
    24  S    3.892909   4.431240   3.989890   2.916495   4.763297
                   16         17         18         19         20
    16  H    0.000000
    17  H    2.479547   0.000000
    18  C    8.502732   8.364057   0.000000
    19  H    7.252338   7.480201   3.376767   0.000000
    20  H    5.657274   5.512207   4.850644   2.408142   0.000000
    21  H    9.203365   9.312497   2.143712   2.459484   4.659267
    22  H    7.970433   7.568056   2.140344   4.912989   5.611464
    23  H    9.512836   9.362093   1.083128   4.273157   5.895324
    24  S    5.516893   4.876039   3.977629   4.965157   4.470470
                   21         22         23         24
    21  H    0.000000
    22  H    4.270327   0.000000
    23  H    2.475073   2.475286   0.000000
    24  S    5.623762   2.709186   4.799289   0.000000
 Stoichiometry    C12H10S2(1+,2)
 Framework group  C1[X(C12H10S2)]
 Deg. of freedom    66
 Full point group                 C1      NOp   1
 Largest Abelian subgroup         C1      NOp   1
 Largest concise Abelian subgroup C1      NOp   1
                         Standard orientation:                         
 ---------------------------------------------------------------------
 Center     Atomic      Atomic             Coordinates (Angstroms)
 Number     Number       Type             X           Y           Z
 ---------------------------------------------------------------------
      1          6           0        2.574063    1.434391   -0.049117
      2          6           0        1.368901    0.745264   -0.216328
      3         16           0       -0.093606    1.678504   -0.585022
      4          6           0        1.397687   -0.626896   -0.046009
      5          6           0       -1.500395   -0.811934    0.077279
      6          6           0       -1.478004   -0.220423    1.307027
      7          6           0        3.746915    0.783096    0.229547
      8          6           0        2.584351   -1.293751    0.256604
      9          1           0        0.039943   -1.860892   -1.547006
     10          6           0       -2.473105   -0.786527   -0.925649
     11          6           0       -2.645316    0.559969    1.492438
     12          6           0       -3.655495    0.649979    0.563531
     13          6           0       -3.583956   -0.035098   -0.656753
     14          1           0       -2.357645   -1.302286   -1.874829
     15          1           0       -2.763398    1.119309    2.419207
     16          1           0       -4.527775    1.262476    0.773175
     17          1           0       -4.391412    0.038194   -1.378729
     18          6           0        3.759914   -0.597536    0.384558
     19          1           0        2.557315    2.514169   -0.138510
     20          1           0        0.525974    2.528359   -1.431800
     21          1           0        4.665467    1.345208    0.349638
     22          1           0        2.558102   -2.368477    0.406674
     23          1           0        4.681894   -1.115025    0.619767
     24         16           0       -0.004008   -1.738768   -0.208750
 ---------------------------------------------------------------------
 Rotational constants (GHZ):           1.2365549           0.3949099           0.3394237
 Leave Link  202 at Mon Jan 25 21:55:27 2021, MaxMem=  4026531840 cpu:               0.2 elap:               0.0
 (Enter /opt/ohpc/pub/libs/gaussian/g16-A.03/sandybridge/g16/l301.exe)
 Standard basis: TZVP (5D, 7F)
 Ernie: Thresh=  0.10000D-02 Tol=  0.10000D-05 Strict=F.
 There are   346 symmetry adapted cartesian basis functions of A   symmetry.
 There are   332 symmetry adapted basis functions of A   symmetry.
   332 basis functions,   594 primitive gaussians,   346 cartesian basis functions
    57 alpha electrons       56 beta electrons
       nuclear repulsion energy      1040.6420683200 Hartrees.
 IExCor=33909 DFT=T Ex+Corr=LC-wHPBE ExCW=0 ScaHFX=  1.000000
 ScaDFX=  1.000000  1.000000  1.000000  1.000000 ScalE2=  1.000000  1.000000
 IRadAn=      5 IRanWt=     -1 IRanGd=            0 ICorTp=0 IEmpDi=  4
 HFx  wShort=  0.000000 wLong=  0.328100 cFull=  0.000000 cShort=  0.000000 cLong=  1.000000
 DFx  wShort=  0.000000 wLong=  0.328100 cFull=  0.000000 cShort=  1.000000 cLong=  0.000000
 NAtoms=   24 NActive=   24 NUniq=   24 SFac= 1.00D+00 NAtFMM=   60 NAOKFM=F Big=F
 Integral buffers will be    131072 words long.
 Raffenetti 2 integral format.
 Two-electron integral symmetry is turned on.
 Leave Link  301 at Mon Jan 25 21:55:27 2021, MaxMem=  4026531840 cpu:               0.6 elap:               0.1
 (Enter /opt/ohpc/pub/libs/gaussian/g16-A.03/sandybridge/g16/l302.exe)
 NPDir=0 NMtPBC=     1 NCelOv=     1 NCel=       1 NClECP=     1 NCelD=      1
         NCelK=      1 NCelE2=     1 NClLst=     1 CellRange=     0.0.
 One-electron integrals computed using PRISM.
 One-electron integral symmetry used in STVInt
 NBasis=   332 RedAO= T EigKep=  8.19D-06  NBF=   332
 NBsUse=   332 1.00D-06 EigRej= -1.00D+00 NBFU=   332
 Precomputing XC quadrature grid using
 IXCGrd= 4 IRadAn=           5 IRanWt=          -1 IRanGd=           0 AccXCQ= 0.00D+00.
 Generated NRdTot=       0 NPtTot=           0 NUsed=           0 NTot=          32
 NSgBfM=   338   338   338   338   338 MxSgAt=    24 MxSgA2=    24.
 Leave Link  302 at Mon Jan 25 21:55:28 2021, MaxMem=  4026531840 cpu:               3.1 elap:               0.4
 (Enter /opt/ohpc/pub/libs/gaussian/g16-A.03/sandybridge/g16/l303.exe)
 DipDrv:  MaxL=1.
 Leave Link  303 at Mon Jan 25 21:55:28 2021, MaxMem=  4026531840 cpu:               0.5 elap:               0.1
 (Enter /opt/ohpc/pub/libs/gaussian/g16-A.03/sandybridge/g16/l401.exe)
 ExpMin= 9.52D-02 ExpMax= 6.07D+04 ExpMxC= 2.07D+03 IAcc=3 IRadAn=         5 AccDes= 0.00D+00
 Harris functional with IExCor=33909 and IRadAn=       5 diagonalized for initial guess.
 HarFok:  IExCor=33909 AccDes= 0.00D+00 IRadAn=         5 IDoV= 1 UseB2=F ITyADJ=14
 ICtDFT=  3500011 ScaDFX=  1.000000  1.000000  1.000000  1.000000
 FoFCou: FMM=F IPFlag=           0 FMFlag=      100000 FMFlg1=           0
         NFxFlg=           0 DoJE=T BraDBF=F KetDBF=T FulRan=T
         wScrn=  0.000000 ICntrl=       500 IOpCl=  0 I1Cent=   200000004 NGrid=           0
         NMat0=    1 NMatS0=      1 NMatT0=    0 NMatD0=    1 NMtDS0=    0 NMtDT0=    0
 Petite list used in FoFCou.
 Harris En= -1239.80081062966    
 JPrj=0 DoOrth=F DoCkMO=F.
 Initial guess <Sx>= 0.0000 <Sy>= 0.0000 <Sz>= 0.5000 <S**2>= 0.7500 S= 0.5000
 Leave Link  401 at Mon Jan 25 21:55:30 2021, MaxMem=  4026531840 cpu:              19.6 elap:               2.5
 (Enter /opt/ohpc/pub/libs/gaussian/g16-A.03/sandybridge/g16/l502.exe)
 Integral symmetry usage will be decided dynamically.
 UHF open shell SCF:
 Using DIIS extrapolation, IDIIS=    10.
 NGot=  4026531840 LenX=  4026286196 LenY=  4026166039
 Requested convergence on RMS density matrix=1.00D-06 within  32 cycles.
 Requested convergence on MAX density matrix=1.00D-04.
 Requested convergence on             energy=1.00D-04.
 Virtual orbitals will be shifted by   0.500 hartree.
 No special actions if energy rises.
 Dynamic level shift is on during FON iterations.

 Cycle   1  Pass 1  IDiag  1:
 FoFJK:  IHMeth= 1 ICntrl=       0 DoSepK=T KAlg= 0 I1Cent=           0 FoldK=F
 IRaf=         1 NMat=       1 IRICut=       1 DoRegI=T DoRafI=F ISym2E= 0 IDoP0=0 IntGTp=1.
 FoFCou: FMM=F IPFlag=           0 FMFlag=      100000 FMFlg1=           0
         NFxFlg=           0 DoJE=T BraDBF=F KetDBF=F FulRan=T
         wScrn=  0.000000 ICntrl=       500 IOpCl=  0 I1Cent=           0 NGrid=           0
         NMat0=    1 NMatS0=      1 NMatT0=    0 NMatD0=    1 NMtDS0=    0 NMtDT0=    0
 Symmetry not used in FoFCou.
 E= -1258.29381816922    
 DIIS: error= 2.96D-02 at cycle   1 NSaved=   1.
 NSaved= 1 IEnMin= 1 EnMin= -1258.29381816922     IErMin= 1 ErrMin= 2.96D-02
 ErrMax= 2.96D-02  0.00D+00 EMaxC= 1.00D+00 BMatC= 1.55D+00 BMatP= 1.55D+00
 IDIUse=1 WtCom= 1.00D+00 WtEn= 0.00D+00
 Coeff-Com:  0.100D+01
 Coeff:      0.100D+01
 Gap=     0.669 Goal=   None    Shift=    0.500
 T= 1487. Gap= 0.539 NK=0 IS=   58 IE=  332 IFin=   57
          NO(<0.9)=   0  NV(>0.1)=   0     57.00e < EF      0.00e >EF  Err=0.0D+00
 Gap=    -0.127 Goal=   None    Shift=    0.500
 T= 1487. Gap= 0.320 NK=0 IS=   57 IE=  332 IFin=   56
          NO(<0.9)=   0  NV(>0.1)=   0     56.00e < EF      0.00e >EF  Err=0.0D+00
 GapD=   -0.127 DampG=0.250 DampE=0.500 DampFc=0.1250 IDamp=-1.
 Damping current iteration by 1.25D-01
 RMSDP=8.87D-03 MaxDP=5.40D-01              OVMax= 1.17D-01

 Cycle   2  Pass 1  IDiag  1:
 E= -1258.36934754037     Delta-E=       -0.075529371146 Rises=F Damp=T
 DIIS: error= 2.63D-02 at cycle   2 NSaved=   2.
 NSaved= 2 IEnMin= 2 EnMin= -1258.36934754037     IErMin= 2 ErrMin= 2.63D-02
 ErrMax= 2.63D-02  0.00D+00 EMaxC= 1.00D+00 BMatC= 1.11D+00 BMatP= 1.55D+00
 IDIUse=1 WtCom= 1.00D+00 WtEn= 0.00D+00
 Coeff-Com: -0.534D+01 0.634D+01
 Coeff:     -0.534D+01 0.634D+01
 Gap=     0.250 Goal=   None    Shift=    0.500
 T= 1465. Gap= 0.716 NK=0 IS=   58 IE=  332 IFin=   57
          NO(<0.9)=   0  NV(>0.1)=   0     57.00e < EF      0.00e >EF  Err=0.0D+00
 Gap=     0.050 Goal=   None    Shift=    0.500
 T= 1465. Gap= 0.542 NK=0 IS=   57 IE=  332 IFin=   56
          NO(<0.9)=   0  NV(>0.1)=   0     56.00e < EF      0.00e >EF  Err=0.0D+00
 GapD=    0.050 DampG=0.250 DampE=0.500 DampFc=0.1250 IDamp=-1.
 Damping current iteration by 1.25D-01
 RMSDP=9.00D-03 MaxDP=5.23D-01 DE=-7.55D-02 OVMax= 3.28D-02

 Cycle   3  Pass 1  IDiag  1:
 E= -1258.42897345793     Delta-E=       -0.059625917568 Rises=F Damp=T
 DIIS: error= 2.31D-02 at cycle   3 NSaved=   3.
 NSaved= 3 IEnMin= 3 EnMin= -1258.42897345793     IErMin= 3 ErrMin= 2.31D-02
 ErrMax= 2.31D-02  0.00D+00 EMaxC= 1.00D+00 BMatC= 8.33D-01 BMatP= 1.11D+00
 IDIUse=1 WtCom= 1.00D+00 WtEn= 0.00D+00
 Coeff-Com:  0.842D+00-0.825D+01 0.840D+01
 Coeff:      0.842D+00-0.825D+01 0.840D+01
 Gap=     0.244 Goal=   None    Shift=    0.500
 T= 1418. Gap= 0.744 NK=0 IS=   58 IE=  332 IFin=   57
          NO(<0.9)=   0  NV(>0.1)=   0     57.00e < EF      0.00e >EF  Err=0.0D+00
 Gap=     0.081 Goal=   None    Shift=    0.500
 T= 1418. Gap= 0.581 NK=0 IS=   57 IE=  332 IFin=   56
          NO(<0.9)=   0  NV(>0.1)=   0     56.00e < EF      0.00e >EF  Err=0.0D+00
 GapD=    0.081 DampG=0.500 DampE=0.500 DampFc=0.2500 IDamp=-1.
 Damping current iteration by 2.50D-01
 RMSDP=8.24D-03 MaxDP=4.83D-01 DE=-5.96D-02 OVMax= 2.40D-02

 Cycle   4  Pass 1  IDiag  1:
 E= -1258.52080219585     Delta-E=       -0.091828737916 Rises=F Damp=T
 DIIS: error= 1.74D-02 at cycle   4 NSaved=   4.
 NSaved= 4 IEnMin= 4 EnMin= -1258.52080219585     IErMin= 4 ErrMin= 1.74D-02
 ErrMax= 1.74D-02  0.00D+00 EMaxC= 1.00D+00 BMatC= 4.60D-01 BMatP= 8.33D-01
 IDIUse=1 WtCom= 1.00D+00 WtEn= 0.00D+00
 Large coefficients: NSaved=  4 BigCof=   10.07 CofMax=   10.00 Det=-1.91D-05
 Inversion failed.  Reducing to  3 matrices.
 Coeff-Com:  0.420D+01-0.963D+01 0.642D+01
 Coeff:      0.420D+01-0.963D+01 0.642D+01
 Gap=     0.254 Goal=   None    Shift=    0.500
 T= 1318. Gap= 0.754 NK=0 IS=   58 IE=  332 IFin=   57
          NO(<0.9)=   0  NV(>0.1)=   0     57.00e < EF      0.00e >EF  Err=0.0D+00
 Gap=     0.090 Goal=   None    Shift=    0.500
 T= 1318. Gap= 0.591 NK=0 IS=   57 IE=  332 IFin=   56
          NO(<0.9)=   0  NV(>0.1)=   0     56.00e < EF      0.00e >EF  Err=0.0D+00
 GapD=    0.090 DampG=0.500 DampE=0.500 DampFc=0.2500 IDamp=-1.
 Damping current iteration by 2.50D-01
 RMSDP=6.34D-03 MaxDP=3.91D-01 DE=-9.18D-02 OVMax= 2.80D-02

 Cycle   5  Pass 1  IDiag  1:
 E= -1258.58149076454     Delta-E=       -0.060688568693 Rises=F Damp=T
 DIIS: error= 1.31D-02 at cycle   5 NSaved=   4.
 NSaved= 4 IEnMin= 4 EnMin= -1258.58149076454     IErMin= 4 ErrMin= 1.31D-02
 ErrMax= 1.31D-02  0.00D+00 EMaxC= 1.00D+00 BMatC= 2.57D-01 BMatP= 4.60D-01
 IDIUse=1 WtCom= 1.00D+00 WtEn= 0.00D+00
 Coeff-Com:  0.165D+00 0.243D+01-0.920D+01 0.761D+01
 Coeff:      0.165D+00 0.243D+01-0.920D+01 0.761D+01
 Gap=     0.261 Goal=   None    Shift=    0.500
 T= 1186. Gap= 0.761 NK=0 IS=   58 IE=  332 IFin=   57
          NO(<0.9)=   0  NV(>0.1)=   0     57.00e < EF      0.00e >EF  Err=0.0D+00
 Gap=     0.094 Goal=   None    Shift=    0.500
 T= 1186. Gap= 0.596 NK=0 IS=   57 IE=  332 IFin=   56
          NO(<0.9)=   0  NV(>0.1)=   0     56.00e < EF      0.00e >EF  Err=0.0D+00
 GapD=    0.094 DampG=0.500 DampE=0.500 DampFc=0.2500 IDamp=-1.
 Damping current iteration by 2.50D-01
 RMSDP=4.83D-03 MaxDP=3.16D-01 DE=-6.07D-02 OVMax= 3.31D-02

 Cycle   6  Pass 1  IDiag  1:
 E= -1258.62301995178     Delta-E=       -0.041529187239 Rises=F Damp=T
 DIIS: error= 9.77D-03 at cycle   6 NSaved=   5.
 NSaved= 5 IEnMin= 5 EnMin= -1258.62301995178     IErMin= 5 ErrMin= 9.77D-03
 ErrMax= 9.77D-03  0.00D+00 EMaxC= 1.00D+00 BMatC= 1.44D-01 BMatP= 2.57D-01
 IDIUse=1 WtCom= 1.00D+00 WtEn= 0.00D+00
 Coeff-Com: -0.191D+01 0.583D+01-0.632D+01-0.240D+01 0.580D+01
 Coeff:     -0.191D+01 0.583D+01-0.632D+01-0.240D+01 0.580D+01
 Gap=     0.266 Goal=   None    Shift=    0.500
 T= 1014. Gap= 0.766 NK=0 IS=   58 IE=  332 IFin=   57
          NO(<0.9)=   0  NV(>0.1)=   0     57.00e < EF      0.00e >EF  Err=0.0D+00
 Gap=     0.097 Goal=   None    Shift=    0.500
 T= 1014. Gap= 0.600 NK=0 IS=   57 IE=  332 IFin=   56
          NO(<0.9)=   0  NV(>0.1)=   0     56.00e < EF      0.00e >EF  Err=0.0D+00
 GapD=    0.097 DampG=0.500 DampE=1.000 DampFc=0.5000 IDamp=-1.
 Damping current iteration by 5.00D-01
 RMSDP=3.62D-03 MaxDP=2.49D-01 DE=-4.15D-02 OVMax= 3.85D-02

 Cycle   7  Pass 1  IDiag  1:
 E= -1258.67964923218     Delta-E=       -0.056629280401 Rises=F Damp=T
 DIIS: error= 6.02D-03 at cycle   7 NSaved=   6.
 NSaved= 6 IEnMin= 6 EnMin= -1258.67964923218     IErMin= 6 ErrMin= 6.02D-03
 ErrMax= 6.02D-03  0.00D+00 EMaxC= 1.00D+00 BMatC= 3.63D-02 BMatP= 1.44D-01
 IDIUse=1 WtCom= 1.00D+00 WtEn= 0.00D+00
 Coeff-Com:  0.191D+00-0.142D+01 0.352D+01 0.858D+00-0.694D+01 0.478D+01
 Coeff:      0.191D+00-0.142D+01 0.352D+01 0.858D+00-0.694D+01 0.478D+01
 Gap=     0.274 Goal=   None    Shift=    0.500
 T=  814. Gap= 0.774 NK=0 IS=   58 IE=  332 IFin=   57
          NO(<0.9)=   0  NV(>0.1)=   0     57.00e < EF      0.00e >EF  Err=0.0D+00
 Gap=     0.101 Goal=   None    Shift=    0.500
 T=  814. Gap= 0.604 NK=0 IS=   57 IE=  332 IFin=   56
          NO(<0.9)=   0  NV(>0.1)=   0     56.00e < EF      0.00e >EF  Err=0.0D+00
 GapD=    0.101 DampG=1.000 DampE=1.000 DampFc=1.0000 IDamp=-1.
 RMSDP=1.78D-03 MaxDP=1.27D-01 DE=-5.66D-02 OVMax= 4.67D-02

 Cycle   8  Pass 1  IDiag  1:
 E= -1258.73172883732     Delta-E=       -0.052079605137 Rises=F Damp=F
 DIIS: error= 6.54D-03 at cycle   8 NSaved=   7.
 NSaved= 7 IEnMin= 7 EnMin= -1258.73172883732     IErMin= 6 ErrMin= 6.02D-03
 ErrMax= 6.54D-03  0.00D+00 EMaxC= 1.00D+00 BMatC= 1.28D-03 BMatP= 3.63D-02
 IDIUse=1 WtCom= 1.00D+00 WtEn= 0.00D+00
 Coeff-Com:  0.630D+00-0.171D+01 0.143D+01 0.165D+01-0.186D+01-0.106D+01
 Coeff-Com:  0.192D+01
 Coeff:      0.630D+00-0.171D+01 0.143D+01 0.165D+01-0.186D+01-0.106D+01
 Coeff:      0.192D+01
 Gap=     0.280 Goal=   None    Shift=    0.500
 T=  660. Gap= 0.781 NK=0 IS=   58 IE=  332 IFin=   57
          NO(<0.9)=   0  NV(>0.1)=   0     57.00e < EF      0.00e >EF  Err=0.0D+00
 Gap=     0.105 Goal=   None    Shift=    0.500
 T=  660. Gap= 0.608 NK=0 IS=   57 IE=  332 IFin=   56
          NO(<0.9)=   0  NV(>0.1)=   0     56.00e < EF      0.00e >EF  Err=0.0D+00
 GapD=    0.105 DampG=1.000 DampE=1.000 DampFc=1.0000 IDamp=-1.
 RMSDP=4.10D-04 MaxDP=3.20D-02 DE=-5.21D-02 OVMax= 5.00D-02

 Cycle   9  Pass 1  IDiag  1:
 E= -1258.73459209422     Delta-E=       -0.002863256902 Rises=F Damp=F
 DIIS: error= 7.33D-03 at cycle   9 NSaved=   8.
 NSaved= 8 IEnMin= 8 EnMin= -1258.73459209422     IErMin= 6 ErrMin= 6.02D-03
 ErrMax= 7.33D-03  0.00D+00 EMaxC= 1.00D+00 BMatC= 1.51D-03 BMatP= 1.28D-03
 IDIUse=1 WtCom= 1.00D+00 WtEn= 0.00D+00
 Coeff-Com:  0.125D+01-0.410D+01 0.619D+01 0.175D+01-0.948D+01 0.492D+01
 Coeff-Com:  0.398D+01-0.351D+01
 Coeff:      0.125D+01-0.410D+01 0.619D+01 0.175D+01-0.948D+01 0.492D+01
 Coeff:      0.398D+01-0.351D+01
 Gap=     0.249 Goal=   None    Shift=    0.500
 T=  590. Gap= 0.749 NK=0 IS=   58 IE=  332 IFin=   57
          NO(<0.9)=   0  NV(>0.1)=   0     57.00e < EF      0.00e >EF  Err=0.0D+00
 Gap=     0.108 Goal=   None    Shift=    0.500
 T=  590. Gap= 0.608 NK=0 IS=   57 IE=  332 IFin=   56
          NO(<0.9)=   0  NV(>0.1)=   0     56.00e < EF      0.00e >EF  Err=0.0D+00
 GapD=    0.108 DampG=1.000 DampE=1.000 DampFc=1.0000 IDamp=-1.
 RMSDP=8.68D-04 MaxDP=8.60D-02 DE=-2.86D-03 OVMax= 1.18D-02

 Cycle  10  Pass 1  IDiag  1:
 E= -1258.73322343310     Delta-E=        0.001368661121 Rises=F Damp=F
 DIIS: error= 5.80D-03 at cycle  10 NSaved=   9.
 NSaved= 9 IEnMin= 8 EnMin= -1258.73459209422     IErMin= 9 ErrMin= 5.80D-03
 ErrMax= 5.80D-03  0.00D+00 EMaxC= 1.00D+00 BMatC= 3.65D-03 BMatP= 1.28D-03
 IDIUse=1 WtCom= 1.00D+00 WtEn= 0.00D+00
 Coeff-Com:  0.153D+01-0.457D+01 0.645D+01 0.136D+01-0.894D+01 0.466D+01
 Coeff-Com:  0.503D+01-0.486D+01 0.330D+00
 Coeff:      0.153D+01-0.457D+01 0.645D+01 0.136D+01-0.894D+01 0.466D+01
 Coeff:      0.503D+01-0.486D+01 0.330D+00
 Gap=     0.243 Goal=   None    Shift=    0.000
 T=  300. Gap= 0.243 NK=0 IS=   58 IE=  332 IFin=   57
          NO(<0.9)=   0  NV(>0.1)=   0     57.00e < EF      0.00e >EF  Err=0.0D+00
 Gap=     0.109 Goal=   None    Shift=    0.000
 T=  300. Gap= 0.112 NK=0 IS=   57 IE=  332 IFin=   56
          NO(<0.9)=   0  NV(>0.1)=   0     56.00e < EF      0.00e >EF  Err=0.0D+00
 GapD=    0.109 DampG=1.000 DampE=1.000 DampFc=1.0000 IDamp=-1.
 RMSDP=1.14D-03 MaxDP=9.84D-02 DE= 1.37D-03 OVMax= 1.20D-01

 Cycle  11  Pass 1  IDiag  1:
 E= -1258.72704400995     Delta-E=        0.006179423150 Rises=F Damp=F
 DIIS: error= 3.66D-03 at cycle  11 NSaved=  10.
 NSaved=10 IEnMin= 8 EnMin= -1258.73459209422     IErMin=10 ErrMin= 3.66D-03
 ErrMax= 3.66D-03  0.00D+00 EMaxC= 1.00D+00 BMatC= 3.76D-03 BMatP= 1.28D-03
 IDIUse=1 WtCom= 1.00D+00 WtEn= 0.00D+00
 Coeff-Com:  0.867D+00-0.299D+01 0.501D+01-0.217D+00-0.518D+01 0.267D+01
 Coeff-Com:  0.357D+01-0.285D+01-0.102D+01 0.114D+01
 Coeff:      0.867D+00-0.299D+01 0.501D+01-0.217D+00-0.518D+01 0.267D+01
 Coeff:      0.357D+01-0.285D+01-0.102D+01 0.114D+01
 Gap=     0.239 Goal=   None    Shift=    0.000
 Gap=     0.114 Goal=   None    Shift=    0.000
 GapD=    0.114 DampG=1.000 DampE=1.000 DampFc=1.0000 IDamp=-1.
 RMSDP=4.96D-04 MaxDP=2.91D-02 DE= 6.18D-03 OVMax= 8.02D-02

 Cycle  12  Pass 1  IDiag  1:
 E= -1258.72492748029     Delta-E=        0.002116529658 Rises=F Damp=F
 DIIS: error= 2.59D-03 at cycle  12 NSaved=  11.
 NSaved=11 IEnMin= 8 EnMin= -1258.73459209422     IErMin=11 ErrMin= 2.59D-03
 ErrMax= 2.59D-03  0.00D+00 EMaxC= 1.00D+00 BMatC= 2.77D-03 BMatP= 1.28D-03
 IDIUse=1 WtCom= 1.00D+00 WtEn= 0.00D+00
 Coeff-Com:  0.247D+00-0.131D+01 0.270D+01-0.519D+00-0.199D+01 0.679D+00
 Coeff-Com:  0.176D+01-0.866D+00-0.839D+00-0.870D+00 0.201D+01
 Coeff:      0.247D+00-0.131D+01 0.270D+01-0.519D+00-0.199D+01 0.679D+00
 Coeff:      0.176D+01-0.866D+00-0.839D+00-0.870D+00 0.201D+01
 Gap=     0.241 Goal=   None    Shift=    0.000
 Gap=     0.109 Goal=   None    Shift=    0.000
 GapD=    0.109 DampG=1.000 DampE=1.000 DampFc=1.0000 IDamp=-1.
 RMSDP=5.40D-04 MaxDP=3.66D-02 DE= 2.12D-03 OVMax= 1.01D-01

 Cycle  13  Pass 1  IDiag  1:
 E= -1258.72426000530     Delta-E=        0.000667474995 Rises=F Damp=F
 DIIS: error= 1.30D-03 at cycle  13 NSaved=  12.
 NSaved=12 IEnMin= 8 EnMin= -1258.73459209422     IErMin=12 ErrMin= 1.30D-03
 ErrMax= 1.30D-03  0.00D+00 EMaxC= 1.00D+00 BMatC= 1.50D-03 BMatP= 1.28D-03
 IDIUse=1 WtCom= 1.00D+00 WtEn= 0.00D+00
 Coeff-Com:  0.407D+00-0.114D+01 0.140D+01 0.212D+00-0.127D+01 0.191D+00
 Coeff-Com:  0.123D+01-0.915D+00 0.101D+01-0.267D+01 0.952D+00 0.159D+01
 Coeff:      0.407D+00-0.114D+01 0.140D+01 0.212D+00-0.127D+01 0.191D+00
 Coeff:      0.123D+01-0.915D+00 0.101D+01-0.267D+01 0.952D+00 0.159D+01
 Gap=     0.252 Goal=   None    Shift=    0.000
 Gap=     0.095 Goal=   None    Shift=    0.000
 GapD=    0.095 DampG=0.500 DampE=1.000 DampFc=0.5000 IDamp=-1.
 Damping current iteration by 5.00D-01
 RMSDP=8.51D-04 MaxDP=6.87D-02 DE= 6.67D-04 OVMax= 7.95D-02

 Cycle  14  Pass 1  IDiag  1:
 E= -1258.72438608157     Delta-E=       -0.000126076274 Rises=F Damp=T
 DIIS: error= 1.27D-03 at cycle  14 NSaved=  13.
 NSaved=13 IEnMin= 8 EnMin= -1258.73459209422     IErMin=13 ErrMin= 1.27D-03
 ErrMax= 1.27D-03  0.00D+00 EMaxC= 1.00D+00 BMatC= 7.26D-04 BMatP= 1.28D-03
 IDIUse=1 WtCom= 1.00D+00 WtEn= 0.00D+00
 Coeff-Com:  0.254D+00-0.836D+00 0.171D+01-0.176D+01 0.807D+00-0.399D+00
 Coeff-Com:  0.687D+00-0.487D+00 0.644D+00-0.642D+00-0.291D+00-0.801D+00
 Coeff-Com:  0.212D+01
 Coeff:      0.254D+00-0.836D+00 0.171D+01-0.176D+01 0.807D+00-0.399D+00
 Coeff:      0.687D+00-0.487D+00 0.644D+00-0.642D+00-0.291D+00-0.801D+00
 Coeff:      0.212D+01
 Gap=     0.263 Goal=   None    Shift=    0.000
 Gap=     0.087 Goal=   None    Shift=    0.000
 GapD=    0.087 DampG=0.500 DampE=1.000 DampFc=0.5000 IDamp=-1.
 Damping current iteration by 5.00D-01
 RMSDP=9.70D-04 MaxDP=9.32D-02 DE=-1.26D-04 OVMax= 6.18D-02

 Cycle  15  Pass 1  IDiag  1:
 E= -1258.72499987596     Delta-E=       -0.000613794391 Rises=F Damp=T
 DIIS: error= 1.37D-03 at cycle  15 NSaved=  14.
 NSaved=14 IEnMin= 8 EnMin= -1258.73459209422     IErMin=13 ErrMin= 1.27D-03
 ErrMax= 1.37D-03  0.00D+00 EMaxC= 1.00D+00 BMatC= 3.03D-04 BMatP= 7.26D-04
 IDIUse=1 WtCom= 1.00D+00 WtEn= 0.00D+00
 Coeff-Com:  0.171D+00-0.675D+00 0.170D+01-0.215D+01 0.126D+01-0.543D+00
 Coeff-Com:  0.487D+00-0.342D+00 0.487D+00-0.426D+00-0.111D+00-0.689D+00
 Coeff-Com:  0.106D+01 0.774D+00
 Coeff:      0.171D+00-0.675D+00 0.170D+01-0.215D+01 0.126D+01-0.543D+00
 Coeff:      0.487D+00-0.342D+00 0.487D+00-0.426D+00-0.111D+00-0.689D+00
 Coeff:      0.106D+01 0.774D+00
 Gap=     0.264 Goal=   None    Shift=    0.000
 Gap=     0.091 Goal=   None    Shift=    0.000
 GapD=    0.091 DampG=0.500 DampE=1.000 DampFc=0.5000 IDamp=-1.
 Damping current iteration by 5.00D-01
 RMSDP=5.44D-04 MaxDP=4.96D-02 DE=-6.14D-04 OVMax= 1.95D-02

 Cycle  16  Pass 1  IDiag  1:
 E= -1258.72588155558     Delta-E=       -0.000881679616 Rises=F Damp=T
 DIIS: error= 1.42D-03 at cycle  16 NSaved=  15.
 NSaved=15 IEnMin= 8 EnMin= -1258.73459209422     IErMin=13 ErrMin= 1.27D-03
 ErrMax= 1.42D-03  0.00D+00 EMaxC= 1.00D+00 BMatC= 2.27D-04 BMatP= 3.03D-04
 IDIUse=1 WtCom= 1.00D+00 WtEn= 0.00D+00
 Coeff-Com:  0.268D+00-0.928D+00 0.179D+01-0.139D+01 0.200D+00-0.106D+00
 Coeff-Com:  0.837D+00-0.792D+00 0.523D+00-0.993D+00 0.249D+00 0.159D+00
 Coeff-Com:  0.203D+01-0.548D+01 0.463D+01
 Coeff:      0.268D+00-0.928D+00 0.179D+01-0.139D+01 0.200D+00-0.106D+00
 Coeff:      0.837D+00-0.792D+00 0.523D+00-0.993D+00 0.249D+00 0.159D+00
 Coeff:      0.203D+01-0.548D+01 0.463D+01
 Gap=     0.263 Goal=   None    Shift=    0.000
 Gap=     0.105 Goal=   None    Shift=    0.000
 GapD=    0.105 DampG=1.000 DampE=1.000 DampFc=1.0000 IDamp=-1.
 RMSDP=4.03D-04 MaxDP=1.41D-02 DE=-8.82D-04 OVMax= 5.41D-02

 Cycle  17  Pass 1  IDiag  1:
 E= -1258.72802872349     Delta-E=       -0.002147167910 Rises=F Damp=F
 DIIS: error= 1.09D-03 at cycle  17 NSaved=  16.
 NSaved=16 IEnMin= 8 EnMin= -1258.73459209422     IErMin=16 ErrMin= 1.09D-03
 ErrMax= 1.09D-03  0.00D+00 EMaxC= 1.00D+00 BMatC= 3.54D-04 BMatP= 2.27D-04
 IDIUse=1 WtCom= 1.00D+00 WtEn= 0.00D+00
 Coeff-Com:  0.363D+00-0.121D+01 0.208D+01-0.828D+00-0.107D+01 0.717D+00
 Coeff-Com:  0.109D+01-0.953D+00 0.301D+00-0.746D+00-0.157D+00-0.623D-01
 Coeff-Com:  0.258D+01-0.516D+01 0.292D+01 0.115D+01
 Coeff:      0.363D+00-0.121D+01 0.208D+01-0.828D+00-0.107D+01 0.717D+00
 Coeff:      0.109D+01-0.953D+00 0.301D+00-0.746D+00-0.157D+00-0.623D-01
 Coeff:      0.258D+01-0.516D+01 0.292D+01 0.115D+01
 Gap=     0.268 Goal=   None    Shift=    0.000
 Gap=     0.110 Goal=   None    Shift=    0.000
 GapD=    0.110 DampG=1.000 DampE=1.000 DampFc=1.0000 IDamp=-1.
 RMSDP=3.84D-04 MaxDP=1.76D-02 DE=-2.15D-03 OVMax= 5.97D-02

 Cycle  18  Pass 1  IDiag  1:
 E= -1258.72898869984     Delta-E=       -0.000959976351 Rises=F Damp=F
 DIIS: error= 9.10D-04 at cycle  18 NSaved=  17.
 NSaved=17 IEnMin= 8 EnMin= -1258.73459209422     IErMin=17 ErrMin= 9.10D-04
 ErrMax= 9.10D-04  0.00D+00 EMaxC= 1.00D+00 BMatC= 3.44D-04 BMatP= 2.27D-04
 IDIUse=1 WtCom= 1.00D+00 WtEn= 0.00D+00
 Coeff-Com:  0.251D+00-0.898D+00 0.164D+01-0.832D+00-0.507D+00 0.299D+00
 Coeff-Com:  0.953D+00-0.701D+00 0.224D+00-0.696D+00 0.766D-01 0.232D+00
 Coeff-Com:  0.135D+01-0.401D+01 0.271D+01-0.114D+00 0.102D+01
 Coeff:      0.251D+00-0.898D+00 0.164D+01-0.832D+00-0.507D+00 0.299D+00
 Coeff:      0.953D+00-0.701D+00 0.224D+00-0.696D+00 0.766D-01 0.232D+00
 Coeff:      0.135D+01-0.401D+01 0.271D+01-0.114D+00 0.102D+01
 Gap=     0.275 Goal=   None    Shift=    0.000
 Gap=     0.110 Goal=   None    Shift=    0.000
 RMSDP=2.77D-04 MaxDP=1.84D-02 DE=-9.60D-04 OVMax= 4.37D-02

 Cycle  19  Pass 1  IDiag  1:
 E= -1258.72968455820     Delta-E=       -0.000695858363 Rises=F Damp=F
 DIIS: error= 9.55D-04 at cycle  19 NSaved=  18.
 NSaved=18 IEnMin= 8 EnMin= -1258.73459209422     IErMin=17 ErrMin= 9.10D-04
 ErrMax= 9.55D-04  0.00D+00 EMaxC= 1.00D+00 BMatC= 2.20D-04 BMatP= 2.27D-04
 IDIUse=1 WtCom= 1.00D+00 WtEn= 0.00D+00
 Coeff-Com:  0.223D+00-0.752D+00 0.129D+01-0.481D+00-0.632D+00 0.309D+00
 Coeff-Com:  0.822D+00-0.677D+00 0.465D+00-0.117D+01 0.326D+00 0.717D+00
 Coeff-Com:  0.178D+01-0.575D+01 0.358D+01-0.245D+00-0.114D+01 0.233D+01
 Coeff:      0.223D+00-0.752D+00 0.129D+01-0.481D+00-0.632D+00 0.309D+00
 Coeff:      0.822D+00-0.677D+00 0.465D+00-0.117D+01 0.326D+00 0.717D+00
 Coeff:      0.178D+01-0.575D+01 0.358D+01-0.245D+00-0.114D+01 0.233D+01
 Gap=     0.284 Goal=   None    Shift=    0.000
 Gap=     0.116 Goal=   None    Shift=    0.000
 RMSDP=5.20D-04 MaxDP=2.08D-02 DE=-6.96D-04 OVMax= 1.04D-01

 Cycle  20  Pass 1  IDiag  1:
 E= -1258.73102957585     Delta-E=       -0.001345017649 Rises=F Damp=F
 DIIS: error= 8.80D-04 at cycle  20 NSaved=  19.
 NSaved=19 IEnMin= 8 EnMin= -1258.73459209422     IErMin=19 ErrMin= 8.80D-04
 ErrMax= 8.80D-04  0.00D+00 EMaxC= 1.00D+00 BMatC= 1.54D-04 BMatP= 2.20D-04
 IDIUse=1 WtCom= 1.00D+00 WtEn= 0.00D+00
 Coeff-Com:  0.221D+00-0.670D+00 0.112D+01-0.596D+00-0.315D+00 0.205D+00
 Coeff-Com:  0.520D+00-0.438D+00 0.310D+00-0.527D+00-0.209D+00 0.214D-01
 Coeff-Com:  0.211D+01-0.331D+01 0.140D+01 0.911D+00-0.188D+01 0.323D+00
 Coeff-Com:  0.180D+01
 Coeff:      0.221D+00-0.670D+00 0.112D+01-0.596D+00-0.315D+00 0.205D+00
 Coeff:      0.520D+00-0.438D+00 0.310D+00-0.527D+00-0.209D+00 0.214D-01
 Coeff:      0.211D+01-0.331D+01 0.140D+01 0.911D+00-0.188D+01 0.323D+00
 Coeff:      0.180D+01
 Gap=     0.294 Goal=   None    Shift=    0.000
 Gap=     0.124 Goal=   None    Shift=    0.000
 RMSDP=5.39D-04 MaxDP=2.18D-02 DE=-1.35D-03 OVMax= 1.08D-01

 Cycle  21  Pass 1  IDiag  1:
 E= -1258.73220036703     Delta-E=       -0.001170791174 Rises=F Damp=F
 DIIS: error= 7.74D-04 at cycle  21 NSaved=  20.
 NSaved=20 IEnMin= 8 EnMin= -1258.73459209422     IErMin=20 ErrMin= 7.74D-04
 ErrMax= 7.74D-04  0.00D+00 EMaxC= 1.00D+00 BMatC= 7.47D-05 BMatP= 1.54D-04
 IDIUse=1 WtCom= 1.00D+00 WtEn= 0.00D+00
 Coeff-Com:  0.155D+00-0.434D+00 0.675D+00-0.491D+00 0.165D+00-0.204D+00
 Coeff-Com:  0.618D+00-0.414D+00-0.541D-01 0.251D+00-0.409D+00-0.192D+00
 Coeff-Com:  0.216D+00 0.962D-01-0.316D-01 0.538D+00 0.122D+01-0.172D+01
 Coeff-Com: -0.654D+00 0.167D+01
 Coeff:      0.155D+00-0.434D+00 0.675D+00-0.491D+00 0.165D+00-0.204D+00
 Coeff:      0.618D+00-0.414D+00-0.541D-01 0.251D+00-0.409D+00-0.192D+00
 Coeff:      0.216D+00 0.962D-01-0.316D-01 0.538D+00 0.122D+01-0.172D+01
 Coeff:     -0.654D+00 0.167D+01
 Gap=     0.292 Goal=   None    Shift=    0.000
 Gap=     0.121 Goal=   None    Shift=    0.000
 RMSDP=1.35D-04 MaxDP=9.26D-03 DE=-1.17D-03 OVMax= 1.57D-02

 Cycle  22  Pass 1  IDiag  1:
 E= -1258.73229219433     Delta-E=       -0.000091827302 Rises=F Damp=F
 DIIS: error= 6.31D-04 at cycle  22 NSaved=  20.
 NSaved=20 IEnMin= 7 EnMin= -1258.73459209422     IErMin=20 ErrMin= 6.31D-04
 ErrMax= 6.31D-04  0.00D+00 EMaxC= 1.00D+00 BMatC= 2.17D-04 BMatP= 7.47D-05
 IDIUse=1 WtCom= 1.00D+00 WtEn= 0.00D+00
 Coeff-Com: -0.106D+00 0.489D+00-0.703D+00 0.406D+00-0.169D+00 0.501D+00
 Coeff-Com: -0.336D+00-0.837D-01 0.118D+00-0.246D+00-0.265D-02 0.547D-01
 Coeff-Com: -0.284D+00 0.347D+00 0.239D+00 0.136D+01-0.151D+01-0.115D+01
 Coeff-Com:  0.172D+01 0.342D+00
 Coeff:     -0.106D+00 0.489D+00-0.703D+00 0.406D+00-0.169D+00 0.501D+00
 Coeff:     -0.336D+00-0.837D-01 0.118D+00-0.246D+00-0.265D-02 0.547D-01
 Coeff:     -0.284D+00 0.347D+00 0.239D+00 0.136D+01-0.151D+01-0.115D+01
 Coeff:      0.172D+01 0.342D+00
 Gap=     0.295 Goal=   None    Shift=    0.000
 Gap=     0.128 Goal=   None    Shift=    0.000
 RMSDP=2.47D-04 MaxDP=1.02D-02 DE=-9.18D-05 OVMax= 5.02D-02

 Cycle  23  Pass 1  IDiag  1:
 E= -1258.73276009950     Delta-E=       -0.000467905175 Rises=F Damp=F
 DIIS: error= 5.47D-04 at cycle  23 NSaved=  20.
 NSaved=20 IEnMin= 6 EnMin= -1258.73459209422     IErMin=20 ErrMin= 5.47D-04
 ErrMax= 5.47D-04  0.00D+00 EMaxC= 1.00D+00 BMatC= 1.59D-04 BMatP= 7.47D-05
 IDIUse=1 WtCom= 1.00D+00 WtEn= 0.00D+00
 Coeff-Com:  0.186D+00-0.738D+00 0.914D+00-0.523D+00 0.480D+00-0.291D+00
 Coeff-Com:  0.277D-01-0.816D-01-0.455D-01 0.283D+00-0.462D+00-0.331D+00
 Coeff-Com:  0.112D+01-0.899D+00 0.100D+01 0.148D+00-0.147D+01 0.640D+00
 Coeff-Com: -0.663D+00 0.170D+01
 Coeff:      0.186D+00-0.738D+00 0.914D+00-0.523D+00 0.480D+00-0.291D+00
 Coeff:      0.277D-01-0.816D-01-0.455D-01 0.283D+00-0.462D+00-0.331D+00
 Coeff:      0.112D+01-0.899D+00 0.100D+01 0.148D+00-0.147D+01 0.640D+00
 Coeff:     -0.663D+00 0.170D+01
 Gap=     0.297 Goal=   None    Shift=    0.000
 Gap=     0.125 Goal=   None    Shift=    0.000
 RMSDP=1.41D-04 MaxDP=5.73D-03 DE=-4.68D-04 OVMax= 2.80D-02

 Cycle  24  Pass 1  IDiag  1:
 E= -1258.73307207287     Delta-E=       -0.000311973363 Rises=F Damp=F
 DIIS: error= 4.86D-04 at cycle  24 NSaved=  20.
 NSaved=20 IEnMin= 5 EnMin= -1258.73459209422     IErMin=20 ErrMin= 4.86D-04
 ErrMax= 4.86D-04  0.00D+00 EMaxC= 1.00D+00 BMatC= 1.97D-04 BMatP= 7.47D-05
 IDIUse=1 WtCom= 1.00D+00 WtEn= 0.00D+00
 Coeff-Com: -0.369D+00 0.864D+00-0.745D+00 0.508D+00-0.219D+00 0.288D-01
 Coeff-Com: -0.186D+00 0.404D-01 0.406D+00-0.545D+00-0.503D+00 0.125D+01
 Coeff-Com: -0.975D+00 0.108D+01 0.176D+00-0.153D+01 0.674D+00-0.658D+00
 Coeff-Com:  0.169D+01-0.854D-03
 Coeff:     -0.369D+00 0.864D+00-0.745D+00 0.508D+00-0.219D+00 0.288D-01
 Coeff:     -0.186D+00 0.404D-01 0.406D+00-0.545D+00-0.503D+00 0.125D+01
 Coeff:     -0.975D+00 0.108D+01 0.176D+00-0.153D+01 0.674D+00-0.658D+00
 Coeff:      0.169D+01-0.854D-03
 Gap=     0.298 Goal=   None    Shift=    0.000
 Gap=     0.126 Goal=   None    Shift=    0.000
 RMSDP=2.51D-05 MaxDP=1.24D-03 DE=-3.12D-04 OVMax= 3.49D-03

 Cycle  25  Pass 1  IDiag  1:
 E= -1258.73310296535     Delta-E=       -0.000030892486 Rises=F Damp=F
 DIIS: error= 4.95D-04 at cycle  25 NSaved=  20.
 NSaved=20 IEnMin= 4 EnMin= -1258.73459209422     IErMin=19 ErrMin= 4.86D-04
 ErrMax= 4.95D-04  0.00D+00 EMaxC= 1.00D+00 BMatC= 1.71D-04 BMatP= 7.47D-05
 IDIUse=1 WtCom= 1.00D+00 WtEn= 0.00D+00
 Coeff-Com:  0.925D-01-0.186D+00 0.471D+00-0.351D+00-0.165D-01 0.865D-02
 Coeff-Com: -0.750D-01 0.269D+00-0.388D+00-0.735D+00 0.138D+01-0.797D+00
 Coeff-Com:  0.130D+01-0.586D-01-0.153D+01 0.577D+00-0.757D+00 0.158D+01
 Coeff-Com: -0.310D+01 0.331D+01
 Coeff:      0.925D-01-0.186D+00 0.471D+00-0.351D+00-0.165D-01 0.865D-02
 Coeff:     -0.750D-01 0.269D+00-0.388D+00-0.735D+00 0.138D+01-0.797D+00
 Coeff:      0.130D+01-0.586D-01-0.153D+01 0.577D+00-0.757D+00 0.158D+01
 Coeff:     -0.310D+01 0.331D+01
 Gap=     0.296 Goal=   None    Shift=    0.000
 Gap=     0.124 Goal=   None    Shift=    0.000
 RMSDP=8.50D-05 MaxDP=5.14D-03 DE=-3.09D-05 OVMax= 9.21D-03

 Cycle  26  Pass 1  IDiag  1:
 E= -1258.73302632736     Delta-E=        0.000076637993 Rises=F Damp=F
 DIIS: error= 4.59D-04 at cycle  26 NSaved=  20.
 NSaved=20 IEnMin= 3 EnMin= -1258.73459209422     IErMin=20 ErrMin= 4.59D-04
 ErrMax= 4.59D-04  0.00D+00 EMaxC= 1.00D+00 BMatC= 2.88D-04 BMatP= 7.47D-05
 IDIUse=1 WtCom= 1.00D+00 WtEn= 0.00D+00
 Coeff-Com: -0.479D-03 0.362D+00-0.332D+00-0.199D-01-0.897D-02-0.793D-01
 Coeff-Com:  0.287D+00-0.309D+00-0.946D+00 0.145D+01-0.705D+00 0.128D+01
 Coeff-Com: -0.683D-01-0.153D+01 0.542D+00-0.726D+00 0.151D+01-0.267D+01
 Coeff-Com:  0.322D+01-0.257D+00
 Coeff:     -0.479D-03 0.362D+00-0.332D+00-0.199D-01-0.897D-02-0.793D-01
 Coeff:      0.287D+00-0.309D+00-0.946D+00 0.145D+01-0.705D+00 0.128D+01
 Coeff:     -0.683D-01-0.153D+01 0.542D+00-0.726D+00 0.151D+01-0.267D+01
 Coeff:      0.322D+01-0.257D+00
 Gap=     0.296 Goal=   None    Shift=    0.000
 Gap=     0.126 Goal=   None    Shift=    0.000
 RMSDP=5.20D-05 MaxDP=3.17D-03 DE= 7.66D-05 OVMax= 6.16D-03

 Cycle  27  Pass 1  IDiag  1:
 E= -1258.73306042292     Delta-E=       -0.000034095555 Rises=F Damp=F
 DIIS: error= 4.34D-04 at cycle  27 NSaved=  20.
 NSaved=20 IEnMin= 2 EnMin= -1258.73459209422     IErMin=20 ErrMin= 4.34D-04
 ErrMax= 4.34D-04  0.00D+00 EMaxC= 1.00D+00 BMatC= 2.92D-04 BMatP= 7.47D-05
 IDIUse=1 WtCom= 1.00D+00 WtEn= 0.00D+00
 Coeff-Com:  0.174D+00-0.166D+00-0.291D-01 0.105D-01-0.809D-01 0.273D+00
 Coeff-Com: -0.245D+00-0.107D+01 0.159D+01-0.533D+00 0.793D+00 0.393D-01
 Coeff-Com: -0.131D+01 0.469D+00-0.358D+00 0.100D+01-0.205D+01 0.307D+01
 Coeff-Com: -0.249D+01 0.190D+01
 Coeff:      0.174D+00-0.166D+00-0.291D-01 0.105D-01-0.809D-01 0.273D+00
 Coeff:     -0.245D+00-0.107D+01 0.159D+01-0.533D+00 0.793D+00 0.393D-01
 Coeff:     -0.131D+01 0.469D+00-0.358D+00 0.100D+01-0.205D+01 0.307D+01
 Coeff:     -0.249D+01 0.190D+01
 Gap=     0.296 Goal=   None    Shift=    0.000
 Gap=     0.126 Goal=   None    Shift=    0.000
 RMSDP=4.58D-05 MaxDP=2.72D-03 DE=-3.41D-05 OVMax= 5.13D-03

 Cycle  28  Pass 1  IDiag  1:
 E= -1258.73310555573     Delta-E=       -0.000045132811 Rises=F Damp=F
 DIIS: error= 4.46D-04 at cycle  28 NSaved=  20.
 NSaved=20 IEnMin= 2 EnMin= -1258.73459209422     IErMin=19 ErrMin= 4.34D-04
 ErrMax= 4.46D-04  0.00D+00 EMaxC= 1.00D+00 BMatC= 2.54D-04 BMatP= 7.47D-05
 IDIUse=1 WtCom= 1.00D+00 WtEn= 0.00D+00
 Coeff-Com:  0.183D+00-0.163D+00-0.925D-01 0.222D+00-0.217D+00-0.419D-01
 Coeff-Com: -0.743D+00 0.120D+01-0.171D+00 0.925D+00-0.499D+00-0.128D+01
 Coeff-Com:  0.697D+00-0.233D+00 0.867D+00-0.413D+01 0.427D+01-0.197D+01
 Coeff-Com:  0.884D+00 0.129D+01
 Coeff:      0.183D+00-0.163D+00-0.925D-01 0.222D+00-0.217D+00-0.419D-01
 Coeff:     -0.743D+00 0.120D+01-0.171D+00 0.925D+00-0.499D+00-0.128D+01
 Coeff:      0.697D+00-0.233D+00 0.867D+00-0.413D+01 0.427D+01-0.197D+01
 Coeff:      0.884D+00 0.129D+01
 Gap=     0.296 Goal=   None    Shift=    0.000
 Gap=     0.124 Goal=   None    Shift=    0.000
 RMSDP=2.66D-05 MaxDP=1.47D-03 DE=-4.51D-05 OVMax= 3.78D-03

 Cycle  29  Pass 1  IDiag  1:
 E= -1258.73307526119     Delta-E=        0.000030294532 Rises=F Damp=F
 DIIS: error= 4.44D-04 at cycle  29 NSaved=  20.
 NSaved=20 IEnMin= 2 EnMin= -1258.73459209422     IErMin=18 ErrMin= 4.34D-04
 ErrMax= 4.44D-04  0.00D+00 EMaxC= 1.00D+00 BMatC= 2.77D-04 BMatP= 7.47D-05
 IDIUse=1 WtCom= 1.00D+00 WtEn= 0.00D+00
 Coeff-Com:  0.180D+00-0.163D+00-0.103D+00 0.247D+00-0.249D+00-0.758D+00
 Coeff-Com:  0.116D+01-0.544D-01 0.761D+00-0.506D+00-0.114D+01 0.675D+00
 Coeff-Com: -0.359D-01 0.534D+00-0.442D+01 0.449D+01-0.204D+01 0.105D+01
 Coeff-Com:  0.254D+01-0.117D+01
 Coeff:      0.180D+00-0.163D+00-0.103D+00 0.247D+00-0.249D+00-0.758D+00
 Coeff:      0.116D+01-0.544D-01 0.761D+00-0.506D+00-0.114D+01 0.675D+00
 Coeff:     -0.359D-01 0.534D+00-0.442D+01 0.449D+01-0.204D+01 0.105D+01
 Coeff:      0.254D+01-0.117D+01
 Gap=     0.296 Goal=   None    Shift=    0.000
 Gap=     0.125 Goal=   None    Shift=    0.000
 RMSDP=1.16D-05 MaxDP=8.36D-04 DE= 3.03D-05 OVMax= 1.26D-03

 Cycle  30  Pass 1  IDiag  1:
 E= -1258.73306792825     Delta-E=        0.000007332946 Rises=F Damp=F
 DIIS: error= 4.52D-04 at cycle  30 NSaved=  20.
 NSaved=20 IEnMin= 2 EnMin= -1258.73459209422     IErMin=17 ErrMin= 4.34D-04
 ErrMax= 4.52D-04  0.00D+00 EMaxC= 1.00D+00 BMatC= 2.76D-04 BMatP= 7.47D-05
 IDIUse=1 WtCom= 1.00D+00 WtEn= 0.00D+00
 Coeff-Com:  0.123D+00-0.114D+00-0.113D+00 0.884D-01-0.110D+01 0.149D+01
 Coeff-Com: -0.154D+00 0.681D+00-0.306D+00-0.132D+01 0.688D+00 0.205D+00
 Coeff-Com:  0.529D+00-0.564D+01 0.495D+01-0.134D+01-0.129D+00 0.390D+01
 Coeff-Com: -0.386D+01 0.242D+01
 Coeff:      0.123D+00-0.114D+00-0.113D+00 0.884D-01-0.110D+01 0.149D+01
 Coeff:     -0.154D+00 0.681D+00-0.306D+00-0.132D+01 0.688D+00 0.205D+00
 Coeff:      0.529D+00-0.564D+01 0.495D+01-0.134D+01-0.129D+00 0.390D+01
 Coeff:     -0.386D+01 0.242D+01
 Gap=     0.295 Goal=   None    Shift=    0.000
 Gap=     0.126 Goal=   None    Shift=    0.000
 RMSDP=4.27D-05 MaxDP=2.93D-03 DE= 7.33D-06 OVMax= 4.48D-03

 Cycle  31  Pass 1  IDiag  1:
 E= -1258.73303225396     Delta-E=        0.000035674285 Rises=F Damp=F
 DIIS: error= 4.58D-04 at cycle  31 NSaved=  20.
 NSaved=20 IEnMin= 2 EnMin= -1258.73459209422     IErMin=16 ErrMin= 4.34D-04
 ErrMax= 4.58D-04  0.00D+00 EMaxC= 1.00D+00 BMatC= 2.98D-04 BMatP= 7.47D-05
 IDIUse=1 WtCom= 1.00D+00 WtEn= 0.00D+00
 Coeff-Com:  0.108D+00-0.767D-01 0.123D-01-0.143D+00 0.436D+00-0.136D+00
 Coeff-Com:  0.272D+00-0.140D+00-0.968D+00 0.597D+00 0.172D+00 0.532D+00
 Coeff-Com: -0.336D+01 0.326D+01-0.125D+01 0.380D+00 0.251D+01-0.359D+01
 Coeff-Com:  0.126D+01 0.112D+01
 Coeff:      0.108D+00-0.767D-01 0.123D-01-0.143D+00 0.436D+00-0.136D+00
 Coeff:      0.272D+00-0.140D+00-0.968D+00 0.597D+00 0.172D+00 0.532D+00
 Coeff:     -0.336D+01 0.326D+01-0.125D+01 0.380D+00 0.251D+01-0.359D+01
 Coeff:      0.126D+01 0.112D+01
 Gap=     0.297 Goal=   None    Shift=    0.000
 Gap=     0.126 Goal=   None    Shift=    0.000
 RMSDP=8.34D-05 MaxDP=4.68D-03 DE= 3.57D-05 OVMax= 1.08D-02

 Cycle  32  Pass 1  IDiag  1:
 E= -1258.73313821301     Delta-E=       -0.000105959043 Rises=F Damp=F
 DIIS: error= 4.71D-04 at cycle  32 NSaved=  20.
 NSaved=20 IEnMin= 2 EnMin= -1258.73459209422     IErMin=15 ErrMin= 4.34D-04
 ErrMax= 4.71D-04  0.00D+00 EMaxC= 1.00D+00 BMatC= 2.03D-04 BMatP= 7.47D-05
 IDIUse=1 WtCom= 1.00D+00 WtEn= 0.00D+00
 Coeff-Com:  0.306D+00-0.179D+00-0.118D+00-0.682D-01 0.312D+00 0.831D+00
 Coeff-Com: -0.851D+00-0.119D+01 0.113D+01 0.643D+00-0.370D+00-0.279D+01
 Coeff-Com:  0.324D+01-0.131D+01-0.193D+01 0.617D+01-0.746D+01 0.453D+01
 Coeff-Com:  0.125D+01-0.114D+01
 Coeff:      0.306D+00-0.179D+00-0.118D+00-0.682D-01 0.312D+00 0.831D+00
 Coeff:     -0.851D+00-0.119D+01 0.113D+01 0.643D+00-0.370D+00-0.279D+01
 Coeff:      0.324D+01-0.131D+01-0.193D+01 0.617D+01-0.746D+01 0.453D+01
 Coeff:      0.125D+01-0.114D+01
 Gap=     0.297 Goal=   None    Shift=    0.000
 Gap=     0.131 Goal=   None    Shift=    0.000
 RMSDP=6.60D-05 MaxDP=4.44D-03 DE=-1.06D-04 OVMax= 4.86D-03

 >>>>>>>>>> Convergence criterion not met.
 SCF Done:  E(ULC-wHPBE) =  -1258.73313821     A.U. after   33 cycles
            NFock= 32  Conv=0.66D-04     -V/T= 2.0035
 <Sx>= 0.0000 <Sy>= 0.0000 <Sz>= 0.5000 <S**2>= 0.7754 S= 0.5126
 <L.S>= 0.000000000000E+00
 KE= 1.254402139982D+03 PE=-5.028698662131D+03 EE= 1.474921315616D+03
 Annihilation of the first spin contaminant:
 S**2 before annihilation     0.7754,   after     0.7504
 Leave Link  502 at Mon Jan 25 22:02:57 2021, MaxMem=  4026531840 cpu:            3571.4 elap:             447.0
 (Enter /opt/ohpc/pub/libs/gaussian/g16-A.03/sandybridge/g16/l508.exe)
 Integral symmetry usage will be decided dynamically.
 Tight linear equation convergence will be used.
 ULC-wHPBE wavefunction.
 Quadratic Convergence SCF Method.
 Line search only if initial step raises energy.
 FoFJK:  IHMeth= 1 ICntrl=       0 DoSepK=T KAlg= 0 I1Cent=           0 FoldK=F
 IRaf=         1 NMat=       1 IRICut=       1 DoRegI=T DoRafI=F ISym2E= 1 IDoP0=0 IntGTp=1.
 FoFCou: FMM=F IPFlag=           0 FMFlag=      100000 FMFlg1=           0
         NFxFlg=           0 DoJE=T BraDBF=F KetDBF=F FulRan=T
         wScrn=  0.000000 ICntrl=       500 IOpCl=  0 I1Cent=           0 NGrid=           0
         NMat0=    1 NMatS0=      1 NMatT0=    0 NMatD0=    1 NMtDS0=    0 NMtDT0=    0
 Petite list used in FoFCou.
 Iteration   1 EE= -1258.73316859494                                    Grad=9.812D-03 Max rot=    0.1375 deg.
 QCNR:  CnvC1=9.81D-08 CnvC2=9.81D-07
 LinEq1:  Iter=  0 NonCon=     1 RMS=1.15D-04 Max=1.20D-02 NDo=     1
 AX will form     1 AO Fock derivatives at one time.
 LinEq1:  Iter=  1 NonCon=     1 RMS=1.18D-04 Max=1.27D-02 NDo=     1
 LinEq1:  Iter=  2 NonCon=     1 RMS=5.24D-05 Max=7.19D-03 NDo=     1
 LinEq1:  Iter=  3 NonCon=     1 RMS=4.79D-05 Max=3.37D-03 NDo=     1
 LinEq1:  Iter=  4 NonCon=     1 RMS=2.33D-05 Max=1.34D-03 NDo=     1
 LinEq1:  Iter=  5 NonCon=     1 RMS=1.63D-05 Max=1.21D-03 NDo=     1
 LinEq1:  Iter=  6 NonCon=     1 RMS=9.87D-06 Max=7.02D-04 NDo=     1
 LinEq1:  Iter=  7 NonCon=     1 RMS=5.07D-06 Max=2.19D-04 NDo=     1
 LinEq1:  Iter=  8 NonCon=     1 RMS=2.96D-06 Max=8.93D-05 NDo=     1
 LinEq1:  Iter=  9 NonCon=     1 RMS=1.44D-06 Max=4.80D-05 NDo=     1
 LinEq1:  Iter= 10 NonCon=     1 RMS=7.24D-07 Max=3.12D-05 NDo=     1
 LinEq1:  Iter= 11 NonCon=     1 RMS=4.20D-07 Max=1.98D-05 NDo=     1
 LinEq1:  Iter= 12 NonCon=     1 RMS=1.93D-07 Max=8.14D-06 NDo=     1
 LinEq1:  Iter= 13 NonCon=     1 RMS=9.46D-08 Max=3.43D-06 NDo=     1
 LinEq1:  Iter= 14 NonCon=     1 RMS=4.90D-08 Max=1.68D-06 NDo=     1
 LinEq1:  Iter= 15 NonCon=     0 RMS=2.67D-08 Max=8.17D-07 NDo=     1
 Linear equations converged to 9.812D-08 9.812D-07 after    15 iterations.
 Angle between quadratic step and gradient= 107.56 degrees.
 Incorrect curvature in search direction -- initial direction reversed.
     ILin= 1 X=0.000D+00 Y=-1.258733168595D+03 DE= 0.00D+00 F= -3.52D-03
     ILin= 2 X=1.000D+00 Y=-1.258734141011D+03 DE=-9.72D-04 F=  8.24D-03
     Accept linear search using points  1 and  2.
     An  expanding polynomial of degree  2 produced  0.7160
 Iteration   2 EE= -1258.73527207524     Delta-E=       -0.002103480297 Grad=3.820D-02 Max rot=    0.3309 deg.
 Gradient too large for Newton-Raphson -- use scaled steepest descent instead.
     ILin= 1 X=0.000D+00 Y=-1.258735272075D+03 DE= 0.00D+00 F= -1.95D-03
     ILin= 2 X=3.000D-01 Y=-1.258735769543D+03 DE=-4.97D-04 F= -1.36D-03
     ILin= 3 X=6.000D-01 Y=-1.258736089699D+03 DE=-8.18D-04 F= -7.72D-04
     ILin= 4 X=1.200D+00 Y=-1.258736198253D+03 DE=-9.26D-04 F=  4.10D-04
     Accept linear search using points  3 and  4.
     An  expanding polynomial of degree  4 produced  0.9381
 Iteration   3 EE= -1258.73623804433     Delta-E=       -0.000965969089 Grad=1.407D-02 Max rot=    0.2331 deg.
 Gradient too large for Newton-Raphson -- use scaled steepest descent instead.
     ILin= 1 X=0.000D+00 Y=-1.258736238044D+03 DE= 0.00D+00 F= -2.87D-04
     ILin= 2 X=5.000D-01 Y=-1.258736367986D+03 DE=-1.30D-04 F= -2.33D-04
     ILin= 3 X=1.100D+00 Y=-1.258736487957D+03 DE=-2.50D-04 F= -1.67D-04
     ILin= 4 X=2.100D+00 Y=-1.258736600606D+03 DE=-3.63D-04 F= -5.80D-05
     Reject lnstep minimum 2.630D+00 FVal=-1.258736615995D+03 Lims=  1.10D+00  2.10D+00
     ILin= 5 X=4.200D+00 Y=-1.258736481006D+03 DE=-2.43D-04 F=  1.72D-04
     An  expanding polynomial of degree  5 produced  2.6304
 Iteration   4 EE= -1258.73661599541     Delta-E=       -0.000377951083 Grad=2.078D-02 Max rot=    0.2716 deg.
 Gradient too large for Newton-Raphson -- use scaled steepest descent instead.
     ILin= 1 X=0.000D+00 Y=-1.258736615995D+03 DE= 0.00D+00 F= -4.32D-04
     ILin= 2 X=1.600D+00 Y=-1.258736796403D+03 DE=-1.80D-04 F=  2.06D-04
     Accept linear search using points  1 and  2.
     An  expanding polynomial of degree  2 produced  1.2629
 Iteration   5 EE= -1258.73684322144     Delta-E=       -0.000227226029 Grad=1.371D-02 Max rot=    0.2307 deg.
 Gradient too large for Newton-Raphson -- use scaled steepest descent instead.
     ILin= 1 X=0.000D+00 Y=-1.258736843221D+03 DE= 0.00D+00 F= -2.48D-04
     ILin= 2 X=1.800D+00 Y=-1.258737007514D+03 DE=-1.64D-04 F=  6.54D-05
     Accept linear search using points  1 and  2.
     An  expanding polynomial of degree  2 produced  1.6558
     Minimum is close to point  2 DX= -1.44D-01 DF= -2.55D-06 DXR=  8.71D-02 DFR=  1.55D-02 which will be used.
 Iteration   6 EE= -1258.73700751422     Delta-E=       -0.000164292786 Grad=1.779D-02 Max rot=    0.2391 deg.
 Gradient too large for Newton-Raphson -- use scaled steepest descent instead.
     ILin= 1 X=0.000D+00 Y=-1.258737007514D+03 DE= 0.00D+00 F= -3.66D-04
     ILin= 2 X=1.400D+00 Y=-1.258737192337D+03 DE=-1.85D-04 F=  1.02D-04
     Accept linear search using points  1 and  2.
     An  expanding polynomial of degree  2 produced  1.2137
 Iteration   7 EE= -1258.73720552896     Delta-E=       -0.000198014736 Grad=1.198D-02 Max rot=    0.2085 deg.
 Gradient too large for Newton-Raphson -- use scaled steepest descent instead.
     ILin= 1 X=0.000D+00 Y=-1.258737205529D+03 DE= 0.00D+00 F= -2.13D-04
     ILin= 2 X=1.400D+00 Y=-1.258737378180D+03 DE=-1.73D-04 F= -3.40D-05
     Reject lnstep minimum 1.474D+00 FVal=-1.258737379098D+03 Lims=  0.00D+00  1.40D+00
     ILin= 3 X=2.800D+00 Y=-1.258737300132D+03 DE=-9.46D-05 F=  1.46D-04
     An  expanding polynomial of degree  3 produced  1.6641
 Iteration   8 EE= -1258.73738268453     Delta-E=       -0.000177155571 Grad=1.403D-02 Max rot=    0.2208 deg.
 Gradient too large for Newton-Raphson -- use scaled steepest descent instead.
     ILin= 1 X=0.000D+00 Y=-1.258737382685D+03 DE= 0.00D+00 F= -2.66D-04
     ILin= 2 X=1.400D+00 Y=-1.258737567359D+03 DE=-1.85D-04 F=  1.63D-06
     Accept linear search using points  1 and  2.
     An  expanding polynomial of degree  2 produced  1.3965
     Minimum is close to point  2 DX= -3.49D-03 DF= -2.03D-09 DXR=  2.50D-03 DFR=  1.10D-05 which will be used.
 Iteration   9 EE= -1258.73756735850     Delta-E=       -0.000184673973 Grad=1.265D-02 Max rot=    0.2203 deg.
 Gradient too large for Newton-Raphson -- use scaled steepest descent instead.
     ILin= 1 X=0.000D+00 Y=-1.258737567359D+03 DE= 0.00D+00 F= -2.40D-04
     ILin= 2 X=1.500D+00 Y=-1.258737763698D+03 DE=-1.96D-04 F= -2.17D-05
     ILin= 3 X=3.000D+00 Y=-1.258737631516D+03 DE=-6.42D-05 F=  1.98D-04
     An  expanding polynomial of degree  3 produced  1.6465
     Minimum is close to point  2 DX=  1.46D-01 DF= -1.57D-06 DXR=  8.90D-02 DFR=  7.98D-03 which will be used.
 Iteration  10 EE= -1258.73776369835     Delta-E=       -0.000196339841 Grad=1.303D-02 Max rot=    0.2462 deg.
 Gradient too large for Newton-Raphson -- use scaled steepest descent instead.
     ILin= 1 X=0.000D+00 Y=-1.258737763698D+03 DE= 0.00D+00 F= -2.54D-04
     ILin= 2 X=1.500D+00 Y=-1.258737979144D+03 DE=-2.15D-04 F= -3.33D-05
     ILin= 3 X=3.000D+00 Y=-1.258737864589D+03 DE=-1.01D-04 F=  1.86D-04
     An  expanding polynomial of degree  3 produced  1.7293
 Iteration  11 EE= -1258.73798293675     Delta-E=       -0.000219238402 Grad=1.607D-02 Max rot=    0.2965 deg.
 Gradient too large for Newton-Raphson -- use scaled steepest descent instead.
     ILin= 1 X=0.000D+00 Y=-1.258737982937D+03 DE= 0.00D+00 F= -3.60D-04
     ILin= 2 X=1.700D+00 Y=-1.258738217979D+03 DE=-2.35D-04 F=  8.37D-05
     Accept linear search using points  1 and  2.
     An  expanding polynomial of degree  2 produced  1.5710
     Minimum is close to point  2 DX= -1.29D-01 DF= -3.10D-06 DXR=  8.21D-02 DFR=  1.32D-02 which will be used.
 Iteration  12 EE= -1258.73821797906     Delta-E=       -0.000235042311 Grad=2.022D-02 Max rot=    0.3321 deg.
 Gradient too large for Newton-Raphson -- use scaled steepest descent instead.
     ILin= 1 X=0.000D+00 Y=-1.258738217979D+03 DE= 0.00D+00 F= -5.17D-04
     ILin= 2 X=1.600D+00 Y=-1.258738491358D+03 DE=-2.73D-04 F=  1.74D-04
     Accept linear search using points  1 and  2.
     An  expanding polynomial of degree  2 produced  1.3827
 Iteration  13 EE= -1258.73851901273     Delta-E=       -0.000301033668 Grad=1.792D-02 Max rot=    0.3934 deg.
 Gradient too large for Newton-Raphson -- use scaled steepest descent instead.
     ILin= 1 X=0.000D+00 Y=-1.258738519013D+03 DE= 0.00D+00 F= -4.63D-04
     ILin= 2 X=1.500D+00 Y=-1.258738858749D+03 DE=-3.40D-04 F=  1.12D-05
     Accept linear search using points  1 and  2.
     An  expanding polynomial of degree  2 produced  1.4876
     Minimum is close to point  2 DX= -1.24D-02 DF= -4.65D-08 DXR=  8.36D-03 DFR=  1.37D-04 which will be used.
 Iteration  14 EE= -1258.73885874901     Delta-E=       -0.000339736285 Grad=1.890D-02 Max rot=    0.4320 deg.
 Gradient too large for Newton-Raphson -- use scaled steepest descent instead.
     ILin= 1 X=0.000D+00 Y=-1.258738858749D+03 DE= 0.00D+00 F= -5.16D-04
     ILin= 2 X=1.400D+00 Y=-1.258739262794D+03 DE=-4.04D-04 F= -6.17D-05
     Reject lnstep minimum 1.460D+00 FVal=-1.258739264133D+03 Lims=  0.00D+00  1.40D+00
     ILin= 3 X=2.900D+00 Y=-1.258738993161D+03 DE=-1.34D-04 F=  4.20D-04
     An  expanding polynomial of degree  3 produced  1.5935
 Iteration  15 EE= -1258.73926868777     Delta-E=       -0.000409938759 Grad=2.110D-02 Max rot=    0.5209 deg.
 Gradient too large for Newton-Raphson -- use scaled steepest descent instead.
     ILin= 1 X=0.000D+00 Y=-1.258739268688D+03 DE= 0.00D+00 F= -6.60D-04
     ILin= 2 X=1.500D+00 Y=-1.258739774288D+03 DE=-5.06D-04 F= -1.22D-05
     Reject lnstep minimum 1.509D+00 FVal=-1.258739774324D+03 Lims=  0.00D+00  1.50D+00
     ILin= 3 X=3.100D+00 Y=-1.258739234022D+03 DE= 3.47D-05 F=  6.89D-04
     An  expanding polynomial of degree  3 produced  1.5243
     Minimum is close to point  2 DX=  2.43D-02 DF= -1.29D-07 DXR=  1.59D-02 DFR=  2.54D-04 which will be used.
 Iteration  16 EE= -1258.73977428751     Delta-E=       -0.000505599735 Grad=2.251D-02 Max rot=    0.5653 deg.
 Gradient too large for Newton-Raphson -- use scaled steepest descent instead.
     ILin= 1 X=0.000D+00 Y=-1.258739774288D+03 DE= 0.00D+00 F= -7.51D-04
     ILin= 2 X=1.600D+00 Y=-1.258740404247D+03 DE=-6.30D-04 F= -3.81D-05
     ILin= 3 X=3.100D+00 Y=-1.258739965728D+03 DE=-1.91D-04 F=  6.21D-04
     An  expanding polynomial of degree  3 produced  1.6895
     Minimum is close to point  2 DX=  8.95D-02 DF= -1.77D-06 DXR=  5.30D-02 DFR=  2.82D-03 which will be used.
 Iteration  17 EE= -1258.74040424654     Delta-E=       -0.000629959028 Grad=2.534D-02 Max rot=    0.6852 deg.
 Gradient too large for Newton-Raphson -- use scaled steepest descent instead.
     ILin= 1 X=0.000D+00 Y=-1.258740404247D+03 DE= 0.00D+00 F= -9.81D-04
     ILin= 2 X=1.600D+00 Y=-1.258741195252D+03 DE=-7.91D-04 F= -4.34D-06
     ILin= 3 X=3.200D+00 Y=-1.258740407881D+03 DE=-3.63D-06 F=  9.92D-04
     An  expanding polynomial of degree  3 produced  1.6018
     Minimum is close to point  2 DX=  1.84D-03 DF= -1.05D-09 DXR=  1.15D-03 DFR=  1.32D-06 which will be used.
 Iteration  18 EE= -1258.74119525155     Delta-E=       -0.000791005015 Grad=2.990D-02 Max rot=    0.7349 deg.
 Gradient too large for Newton-Raphson -- use scaled steepest descent instead.
     ILin= 1 X=0.000D+00 Y=-1.258741195252D+03 DE= 0.00D+00 F= -1.28D-03
     ILin= 2 X=1.600D+00 Y=-1.258742186361D+03 DE=-9.91D-04 F=  3.93D-05
     Accept linear search using points  1 and  2.
     An  expanding polynomial of degree  2 produced  1.5860
     Minimum is close to point  2 DX= -1.40D-02 DF= -1.71D-07 DXR=  8.81D-03 DFR=  1.73D-04 which will be used.
 Iteration  19 EE= -1258.74218636120     Delta-E=       -0.000991109647 Grad=3.374D-02 Max rot=    0.9009 deg.
 Gradient too large for Newton-Raphson -- use scaled steepest descent instead.
     ILin= 1 X=0.000D+00 Y=-1.258742186361D+03 DE= 0.00D+00 F= -1.69D-03
     ILin= 2 X=1.600D+00 Y=-1.258743430325D+03 DE=-1.24D-03 F=  1.41D-04
     Accept linear search using points  1 and  2.
     An  expanding polynomial of degree  2 produced  1.5589
     Minimum is close to point  2 DX= -4.11D-02 DF= -1.79D-06 DXR=  2.63D-02 DFR=  1.44D-03 which will be used.
 Iteration  20 EE= -1258.74343032532     Delta-E=       -0.001243964123 Grad=4.007D-02 Max rot=    0.9355 deg.
 Gradient too large for Newton-Raphson -- use scaled steepest descent instead.
     ILin= 1 X=0.000D+00 Y=-1.258743430325D+03 DE= 0.00D+00 F= -2.22D-03
     ILin= 2 X=1.600D+00 Y=-1.258744969845D+03 DE=-1.54D-03 F=  2.85D-04
     Accept linear search using points  1 and  2.
     An  expanding polynomial of degree  2 produced  1.5315
     Minimum is close to point  2 DX= -6.85D-02 DF= -6.03D-06 DXR=  4.47D-02 DFR=  3.92D-03 which will be used.
 Iteration  21 EE= -1258.74496984507     Delta-E=       -0.001539519751 Grad=4.524D-02 Max rot=    1.1622 deg.
 Gradient too large for Newton-Raphson -- use scaled steepest descent instead.
     ILin= 1 X=0.000D+00 Y=-1.258744969845D+03 DE= 0.00D+00 F= -2.93D-03
     ILin= 2 X=1.500D+00 Y=-1.258746907268D+03 DE=-1.94D-03 F=  3.56D-04
     Accept linear search using points  1 and  2.
     An  expanding polynomial of degree  2 produced  1.4316
     Minimum is close to point  2 DX= -6.84D-02 DF= -8.00D-06 DXR=  4.78D-02 DFR=  4.13D-03 which will be used.
 Iteration  22 EE= -1258.74690726848     Delta-E=       -0.001937423412 Grad=4.897D-02 Max rot=    1.1538 deg.
 Gradient too large for Newton-Raphson -- use scaled steepest descent instead.
     ILin= 1 X=0.000D+00 Y=-1.258746907268D+03 DE= 0.00D+00 F= -3.32D-03
     ILin= 2 X=1.500D+00 Y=-1.258749239981D+03 DE=-2.33D-03 F=  1.99D-04
     Accept linear search using points  1 and  2.
     An  expanding polynomial of degree  2 produced  1.4676
     Minimum is close to point  2 DX= -3.24D-02 DF= -2.14D-06 DXR=  2.21D-02 DFR=  9.17D-04 which will be used.
 Iteration  23 EE= -1258.74923998111     Delta-E=       -0.002332712631 Grad=5.008D-02 Max rot=    1.4184 deg.
 Gradient too large for Newton-Raphson -- use scaled steepest descent instead.
     ILin= 1 X=0.000D+00 Y=-1.258749239981D+03 DE= 0.00D+00 F= -3.78D-03
     ILin= 2 X=1.400D+00 Y=-1.258752018714D+03 DE=-2.78D-03 F= -1.75D-04
     Reject lnstep minimum 1.425D+00 FVal=-1.258752020264D+03 Lims=  0.00D+00  1.40D+00
     ILin= 3 X=2.700D+00 Y=-1.258750026006D+03 DE=-7.86D-04 F=  3.25D-03
     An  expanding polynomial of degree  3 produced  1.4617
     Minimum is close to point  2 DX=  6.17D-02 DF= -4.96D-06 DXR=  4.22D-02 DFR=  1.79D-03 which will be used.
 Iteration  24 EE= -1258.75201871385     Delta-E=       -0.002778732733 Grad=4.941D-02 Max rot=    1.3745 deg.
 Gradient too large for Newton-Raphson -- use scaled steepest descent instead.
     ILin= 1 X=0.000D+00 Y=-1.258752018714D+03 DE= 0.00D+00 F= -3.71D-03
     ILin= 2 X=1.500D+00 Y=-1.258755231012D+03 DE=-3.21D-03 F= -5.76D-04
     ILin= 3 X=2.800D+00 Y=-1.258754226068D+03 DE=-2.21D-03 F=  2.12D-03
     An  expanding polynomial of degree  3 produced  1.7787
 Iteration  25 EE= -1258.75531085189     Delta-E=       -0.003292138041 Grad=6.327D-02 Max rot=    1.6924 deg.
 Gradient too large for Newton-Raphson -- use scaled steepest descent instead.
     ILin= 1 X=0.000D+00 Y=-1.258755310852D+03 DE= 0.00D+00 F= -5.75D-03
     ILin= 2 X=1.600D+00 Y=-1.258758884786D+03 DE=-3.57D-03 F=  1.31D-03
     Accept linear search using points  1 and  2.
     An  expanding polynomial of degree  2 produced  1.4677
     Minimum is close to point  2 DX= -1.32D-01 DF= -5.31D-05 DXR=  9.02D-02 DFR=  1.49D-02 which will be used.
 Iteration  26 EE= -1258.75888478577     Delta-E=       -0.003573933881 Grad=7.579D-02 Max rot=    1.5229 deg.
 Gradient too large for Newton-Raphson -- use scaled steepest descent instead.
     ILin= 1 X=0.000D+00 Y=-1.258758884786D+03 DE= 0.00D+00 F= -7.37D-03
     ILin= 2 X=1.600D+00 Y=-1.258762655912D+03 DE=-3.77D-03 F=  2.65D-03
     Accept linear search using points  1 and  2.
     An  expanding polynomial of degree  2 produced  1.3646
 Iteration  27 EE= -1258.76310600374     Delta-E=       -0.004221217974 Grad=6.611D-02 Max rot=    1.8736 deg.
 Gradient too large for Newton-Raphson -- use scaled steepest descent instead.
     ILin= 1 X=0.000D+00 Y=-1.258763106004D+03 DE= 0.00D+00 F= -6.44D-03
     ILin= 2 X=1.400D+00 Y=-1.258767480636D+03 DE=-4.37D-03 F=  2.10D-04
     Accept linear search using points  1 and  2.
     An  expanding polynomial of degree  2 produced  1.3812
     Minimum is close to point  2 DX= -1.88D-02 DF= -1.41D-06 DXR=  1.36D-02 DFR=  3.22D-04 which will be used.
 Iteration  28 EE= -1258.76748063612     Delta-E=       -0.004374632375 Grad=6.479D-02 Max rot=    1.6581 deg.
 Gradient too large for Newton-Raphson -- use scaled steepest descent instead.
     ILin= 1 X=0.000D+00 Y=-1.258767480636D+03 DE= 0.00D+00 F= -6.01D-03
     ILin= 2 X=1.400D+00 Y=-1.258771957065D+03 DE=-4.48D-03 F= -3.86D-04
     Reject lnstep minimum 1.434D+00 FVal=-1.258771961816D+03 Lims=  0.00D+00  1.40D+00
     ILin= 3 X=2.500D+00 Y=-1.258769952109D+03 DE=-2.47D-03 F=  4.03D-03
     An  expanding polynomial of degree  3 produced  1.4962
     Minimum is close to point  2 DX=  9.62D-02 DF= -1.86D-05 DXR=  6.43D-02 DFR=  4.15D-03 which will be used.
 Iteration  29 EE= -1258.77195706454     Delta-E=       -0.004476428422 Grad=5.919D-02 Max rot=    1.9330 deg.
 Gradient too large for Newton-Raphson -- use scaled steepest descent instead.
     ILin= 1 X=0.000D+00 Y=-1.258771957065D+03 DE= 0.00D+00 F= -5.62D-03
     ILin= 2 X=1.400D+00 Y=-1.258776465856D+03 DE=-4.51D-03 F= -8.10D-04
     Reject lnstep minimum 1.469D+00 FVal=-1.258776486048D+03 Lims=  0.00D+00  1.40D+00
     ILin= 3 X=2.600D+00 Y=-1.258774934777D+03 DE=-2.98D-03 F=  3.37D-03
     An  expanding polynomial of degree  3 produced  1.6311
 Iteration  30 EE= -1258.77656043610     Delta-E=       -0.004603371557 Grad=7.143D-02 Max rot=    1.6640 deg.
 Gradient too large for Newton-Raphson -- use scaled steepest descent instead.
     ILin= 1 X=0.000D+00 Y=-1.258776560436D+03 DE= 0.00D+00 F= -6.92D-03
     ILin= 2 X=1.600D+00 Y=-1.258780822900D+03 DE=-4.26D-03 F=  1.60D-03
     Accept linear search using points  1 and  2.
     An  expanding polynomial of degree  2 produced  1.4644
     Minimum is close to point  2 DX= -1.36D-01 DF= -6.61D-05 DXR=  9.26D-02 DFR=  1.55D-02 which will be used.
 Iteration  31 EE= -1258.78082289998     Delta-E=       -0.004262463879 Grad=7.948D-02 Max rot=    1.9625 deg.
 Gradient too large for Newton-Raphson -- use scaled steepest descent instead.
     ILin= 1 X=0.000D+00 Y=-1.258780822900D+03 DE= 0.00D+00 F= -8.45D-03
     ILin= 2 X=1.500D+00 Y=-1.258784921675D+03 DE=-4.10D-03 F=  3.00D-03
     Accept linear search using points  1 and  2.
     An  expanding polynomial of degree  2 produced  1.2630
 Iteration  32 EE= -1258.78541801069     Delta-E=       -0.004595110712 Grad=6.412D-02 Max rot=    1.6180 deg.
 Gradient too large for Newton-Raphson -- use scaled steepest descent instead.
     ILin= 1 X=0.000D+00 Y=-1.258785418011D+03 DE= 0.00D+00 F= -5.75D-03
     ILin= 2 X=1.400D+00 Y=-1.258789372849D+03 DE=-3.95D-03 F=  1.07D-04
     Accept linear search using points  1 and  2.
     An  expanding polynomial of degree  2 produced  1.3893
     Minimum is close to point  2 DX= -1.07D-02 DF= -4.07D-07 DXR=  7.67D-03 DFR=  1.03D-04 which will be used.
 Iteration  33 EE= -1258.78937284926     Delta-E=       -0.003954838568 Grad=5.817D-02 Max rot=    1.7901 deg.
 Gradient too large for Newton-Raphson -- use scaled steepest descent instead.
     ILin= 1 X=0.000D+00 Y=-1.258789372849D+03 DE= 0.00D+00 F= -5.08D-03
     ILin= 2 X=1.300D+00 Y=-1.258792949992D+03 DE=-3.58D-03 F= -4.17D-04
     Reject lnstep minimum 1.350D+00 FVal=-1.258792958018D+03 Lims=  0.00D+00  1.30D+00
     ILin= 3 X=2.400D+00 Y=-1.258791230344D+03 DE=-1.86D-03 F=  3.54D-03
     An  expanding polynomial of degree  3 produced  1.4152
     Minimum is close to point  2 DX=  1.15D-01 DF= -2.39D-05 DXR=  8.14D-02 DFR=  6.67D-03 which will be used.
 Iteration  34 EE= -1258.79294999197     Delta-E=       -0.003577142719 Grad=5.031D-02 Max rot=    1.5227 deg.
 Gradient too large for Newton-Raphson -- use scaled steepest descent instead.
     ILin= 1 X=0.000D+00 Y=-1.258792949992D+03 DE= 0.00D+00 F= -3.88D-03
     ILin= 2 X=1.400D+00 Y=-1.258796149269D+03 DE=-3.20D-03 F= -6.83D-04
     Reject lnstep minimum 1.477D+00 FVal=-1.258796168593D+03 Lims=  0.00D+00  1.40D+00
     ILin= 3 X=2.600D+00 Y=-1.258795308737D+03 DE=-2.36D-03 F=  2.09D-03
     An  expanding polynomial of degree  3 produced  1.6950
 Iteration  35 EE= -1258.79625080138     Delta-E=       -0.003300809406 Grad=5.852D-02 Max rot=    1.5907 deg.
 Gradient too large for Newton-Raphson -- use scaled steepest descent instead.
     ILin= 1 X=0.000D+00 Y=-1.258796250801D+03 DE= 0.00D+00 F= -4.76D-03
     ILin= 2 X=1.500D+00 Y=-1.258798945575D+03 DE=-2.69D-03 F=  1.17D-03
     Accept linear search using points  1 and  2.
     An  expanding polynomial of degree  2 produced  1.3461
 Iteration  36 EE= -1258.79907876308     Delta-E=       -0.002827961704 Grad=5.209D-02 Max rot=    1.3123 deg.
 Gradient too large for Newton-Raphson -- use scaled steepest descent instead.
     ILin= 1 X=0.000D+00 Y=-1.258799078763D+03 DE= 0.00D+00 F= -3.74D-03
     ILin= 2 X=1.500D+00 Y=-1.258801412972D+03 DE=-2.33D-03 F=  6.29D-04
     Accept linear search using points  1 and  2.
     An  expanding polynomial of degree  2 produced  1.4006
     Minimum is close to point  2 DX= -9.94D-02 DF= -2.05D-05 DXR=  7.10D-02 DFR=  8.78D-03 which will be used.
 Iteration  37 EE= -1258.80141297233     Delta-E=       -0.002334209244 Grad=5.251D-02 Max rot=    1.3487 deg.
 Gradient too large for Newton-Raphson -- use scaled steepest descent instead.
     ILin= 1 X=0.000D+00 Y=-1.258801412972D+03 DE= 0.00D+00 F= -3.72D-03
     ILin= 2 X=1.400D+00 Y=-1.258803430343D+03 DE=-2.02D-03 F=  8.44D-04
     Accept linear search using points  1 and  2.
     An  expanding polynomial of degree  2 produced  1.2521
 Iteration  38 EE= -1258.80351952550     Delta-E=       -0.002106553174 Grad=4.111D-02 Max rot=    1.1278 deg.
 Gradient too large for Newton-Raphson -- use scaled steepest descent instead.
     ILin= 1 X=0.000D+00 Y=-1.258803519526D+03 DE= 0.00D+00 F= -2.42D-03
     ILin= 2 X=1.300D+00 Y=-1.258805185476D+03 DE=-1.67D-03 F= -1.43D-04
     Reject lnstep minimum 1.336D+00 FVal=-1.258805187486D+03 Lims=  0.00D+00  1.30D+00
     ILin= 3 X=2.600D+00 Y=-1.258803885987D+03 DE=-3.66D-04 F=  2.14D-03
     An  expanding polynomial of degree  3 produced  1.3803
     Minimum is close to point  2 DX=  8.03D-02 DF= -5.66D-06 DXR=  5.82D-02 DFR=  3.40D-03 which will be used.
 Iteration  39 EE= -1258.80518547596     Delta-E=       -0.001665950459 Grad=3.362D-02 Max rot=    1.1097 deg.
 Gradient too large for Newton-Raphson -- use scaled steepest descent instead.
     ILin= 1 X=0.000D+00 Y=-1.258805185476D+03 DE= 0.00D+00 F= -1.76D-03
     ILin= 2 X=1.300D+00 Y=-1.258806541583D+03 DE=-1.36D-03 F= -3.22D-04
     Reject lnstep minimum 1.402D+00 FVal=-1.258806554552D+03 Lims=  0.00D+00  1.30D+00
     ILin= 3 X=2.600D+00 Y=-1.258806022094D+03 DE=-8.37D-04 F=  1.12D-03
     An  expanding polynomial of degree  3 produced  1.5899
 Iteration  40 EE= -1258.80658824001     Delta-E=       -0.001402764049 Grad=3.712D-02 Max rot=    0.9207 deg.
 Gradient too large for Newton-Raphson -- use scaled steepest descent instead.
     ILin= 1 X=0.000D+00 Y=-1.258806588240D+03 DE= 0.00D+00 F= -1.87D-03
     ILin= 2 X=1.500D+00 Y=-1.258807667816D+03 DE=-1.08D-03 F=  4.36D-04
     Accept linear search using points  1 and  2.
     An  expanding polynomial of degree  2 produced  1.3556
 Iteration  41 EE= -1258.80771473978     Delta-E=       -0.001126499770 Grad=3.220D-02 Max rot=    0.8870 deg.
 Gradient too large for Newton-Raphson -- use scaled steepest descent instead.
     ILin= 1 X=0.000D+00 Y=-1.258807714740D+03 DE= 0.00D+00 F= -1.46D-03
     ILin= 2 X=1.500D+00 Y=-1.258808596247D+03 DE=-8.82D-04 F=  2.85D-04
     Accept linear search using points  1 and  2.
     An  expanding polynomial of degree  2 produced  1.3820
     Minimum is close to point  2 DX= -1.18D-01 DF= -1.10D-05 DXR=  8.54D-02 DFR=  1.25D-02 which will be used.
 Iteration  42 EE= -1258.80859624671     Delta-E=       -0.000881506933 Grad=3.326D-02 Max rot=    0.7362 deg.
 Gradient too large for Newton-Raphson -- use scaled steepest descent instead.
     ILin= 1 X=0.000D+00 Y=-1.258808596247D+03 DE= 0.00D+00 F= -1.44D-03
     ILin= 2 X=1.400D+00 Y=-1.258809321760D+03 DE=-7.26D-04 F=  4.03D-04
     Accept linear search using points  1 and  2.
     An  expanding polynomial of degree  2 produced  1.2128
 Iteration  43 EE= -1258.80937410583     Delta-E=       -0.000777859124 Grad=2.395D-02 Max rot=    0.7026 deg.
 Gradient too large for Newton-Raphson -- use scaled steepest descent instead.
     ILin= 1 X=0.000D+00 Y=-1.258809374106D+03 DE= 0.00D+00 F= -8.42D-04
[...]
     6  C    0.008617  -0.000502  -0.008737   0.000400   0.000399  -0.000682
     7  C   -0.000002  -0.000000  -0.000000  -0.000000   0.000000   0.001693
     8  C    0.000000   0.000012  -0.000000   0.000000  -0.000000   0.000399
     9  H    0.000009  -0.000267  -0.000000  -0.000000   0.000004  -0.000044
    10  C   -0.014004  -0.009904  -0.001170  -0.002262   0.004026  -0.000037
    11  C   -0.007079   0.000590   0.014302   0.004093  -0.001345  -0.000002
    12  C   -0.006909  -0.001378  -0.011266  -0.007916   0.003314  -0.000002
    13  C   -0.071746   0.001419   0.001848   0.003048  -0.002786   0.000002
    14  H    0.001419   0.002908   0.000006  -0.000008   0.000141   0.000001
    15  H    0.001848   0.000006   0.026620   0.000609  -0.000016   0.000000
    16  H    0.003048  -0.000008   0.000609   0.002517   0.000101   0.000000
    17  H   -0.002786   0.000141  -0.000016   0.000101   0.003078  -0.000000
    18  C    0.000002   0.000001   0.000000   0.000000  -0.000000  -0.000500
    19  H    0.000001   0.000000   0.000000   0.000000  -0.000000   0.000004
    20  H    0.000003  -0.000001  -0.000002  -0.000001   0.000000   0.000006
    21  H   -0.000000  -0.000000  -0.000000  -0.000000   0.000000  -0.000220
    22  H   -0.000001   0.000000  -0.000000  -0.000000  -0.000000   0.000109
    23  H    0.000000   0.000000   0.000000   0.000000  -0.000000  -0.000044
    24  S    0.002103   0.000777   0.000065   0.000012  -0.000016  -0.000051
              19         20         21         22         23         24
     1  C    0.000312  -0.000466  -0.000215   0.000007  -0.000054   0.000466
     2  C   -0.000423   0.000820   0.000230  -0.000008   0.000024  -0.000286
     3  S    0.000075   0.000185   0.000000   0.000001   0.000001  -0.000351
     4  C    0.000016   0.000079  -0.000083   0.000359  -0.000068   0.003014
     5  C    0.000038  -0.000479  -0.000001  -0.000111   0.000001   0.035843
     6  C   -0.000059   0.000212   0.000003   0.000159  -0.000001  -0.034250
     7  C    0.000091  -0.000104   0.000134  -0.000062   0.000097  -0.000033
     8  C   -0.000008  -0.000006   0.000110  -0.000230   0.000065  -0.002398
     9  H   -0.000000   0.000005   0.000000   0.000018  -0.000000   0.000400
    10  C   -0.000005   0.000142   0.000000   0.000019  -0.000000  -0.017535
    11  C    0.000002  -0.000047   0.000000  -0.000000  -0.000000  -0.001661
    12  C   -0.000001   0.000021   0.000000   0.000001  -0.000000  -0.001310
    13  C    0.000001   0.000003  -0.000000  -0.000001   0.000000   0.002103
    14  H    0.000000  -0.000001  -0.000000   0.000000   0.000000   0.000777
    15  H    0.000000  -0.000002  -0.000000  -0.000000   0.000000   0.000065
    16  H    0.000000  -0.000001  -0.000000  -0.000000   0.000000   0.000012
    17  H   -0.000000   0.000000   0.000000  -0.000000  -0.000000  -0.000016
    18  C    0.000004   0.000006  -0.000220   0.000109  -0.000044  -0.000051
    19  H    0.000036   0.000011  -0.000018  -0.000000  -0.000001   0.000003
    20  H    0.000011   0.000133   0.000001   0.000000   0.000000   0.000004
    21  H   -0.000018   0.000001   0.000006   0.000002  -0.000004   0.000000
    22  H   -0.000000   0.000000   0.000002  -0.000155   0.000018  -0.000124
    23  H   -0.000001   0.000000  -0.000004   0.000018  -0.000025   0.000001
    24  S    0.000003   0.000004   0.000000  -0.000124   0.000001   0.031556
 Mulliken charges and spin densities:
               1          2
     1  C   -0.068899  -0.002442
     2  C    0.010836   0.002760
     3  S   -0.016412  -0.002336
     4  C   -0.306465   0.000342
     5  C   -0.302919  -0.091104
     6  C    0.102301   1.011870
     7  C   -0.086808   0.001708
     8  C   -0.055971  -0.000234
     9  H    0.171204   0.000041
    10  C    0.056055   0.081627
    11  C   -0.121587  -0.062592
    12  C   -0.074698   0.087316
    13  C   -0.165769  -0.077865
    14  H    0.187436   0.003403
    15  H    0.190073   0.024735
    16  H    0.181528   0.002331
    17  H    0.179321   0.004191
    18  C   -0.134175  -0.000527
    19  H    0.182550   0.000074
    20  H    0.140369   0.000517
    21  H    0.174831  -0.000054
    22  H    0.193439   0.000001
    23  H    0.173096   0.000009
    24  S    0.390660   0.016229
 Sum of Mulliken charges =   1.00000   1.00000
 Mulliken charges and spin densities with hydrogens summed into heavy atoms:
               1          2
     1  C    0.113652  -0.002368
     2  C    0.010836   0.002760
     3  S    0.123957  -0.001819
     4  C   -0.306465   0.000342
     5  C   -0.302919  -0.091104
     6  C    0.102301   1.011870
     7  C    0.088024   0.001654
     8  C    0.137468  -0.000233
    10  C    0.243490   0.085030
    11  C    0.068486  -0.037858
    12  C    0.106831   0.089646
    13  C    0.013553  -0.073673
    18  C    0.038922  -0.000519
    24  S    0.561864   0.016269
 Electronic spatial extent (au):  <R**2>=           3271.0181
 Charge=              1.0000 electrons
 Dipole moment (field-independent basis, Debye):
    X=             -0.0544    Y=             -1.6698    Z=             -1.8434  Tot=              2.4878
 Quadrupole moment (field-independent basis, Debye-Ang):
   XX=            -49.3352   YY=            -76.0097   ZZ=            -85.6872
   XY=             -1.7128   XZ=              2.5599   YZ=              3.2638
 Traceless Quadrupole moment (field-independent basis, Debye-Ang):
   XX=             21.0089   YY=             -5.6657   ZZ=            -15.3431
   XY=             -1.7128   XZ=              2.5599   YZ=              3.2638
 Octapole moment (field-independent basis, Debye-Ang**2):
  XXX=              7.8661  YYY=              0.5740  ZZZ=             -9.7987  XYY=             20.4181
  XXY=             23.9956  XXZ=              6.6985  XZZ=            -21.2789  YZZ=             -1.2276
  YYZ=            -17.2054  XYZ=            -15.6801
 Hexadecapole moment (field-independent basis, Debye-Ang**3):
 XXXX=          -2398.1713 YYYY=           -795.3681 ZZZZ=           -348.3512 XXXY=            -81.4191
 XXXZ=            100.4626 YYYX=              4.0989 YYYZ=            -12.5688 ZZZX=             -4.4900
 ZZZY=             24.8820 XXYY=           -602.9695 XXZZ=           -570.1363 YYZZ=           -180.7865
 XXYZ=             26.7141 YYXZ=             -0.2031 ZZXY=             -8.1745
 N-N= 1.040642068320D+03 E-N=-5.028999830543D+03  KE= 1.254296050586D+03
                          Isotropic Fermi Contact Couplings
        Atom                 a.u.       MegaHertz       Gauss      10(-4) cm-1
     1  C(13)             -0.00028      -0.31264      -0.11156      -0.10428
     2  C(13)              0.00036       0.40788       0.14554       0.13605
     3  S(33)              0.00424       1.45627       0.51963       0.48576
     4  C(13)             -0.00120      -1.34517      -0.47999      -0.44870
     5  C(13)              0.00939      10.55903       3.76772       3.52211
     6  C(13)              0.52398     589.05015     210.18774     196.48598
     7  C(13)              0.00008       0.08796       0.03139       0.02934
     8  C(13)              0.00048       0.53684       0.19156       0.17907
     9  H(1)               0.00014       0.64809       0.23126       0.21618
    10  C(13)              0.02267      25.48895       9.09509       8.50220
    11  C(13)              0.01214      13.64473       4.86878       4.55139
    12  C(13)              0.03095      34.79004      12.41395      11.60471
    13  C(13)             -0.00621      -6.98538      -2.49256      -2.33007
    14  H(1)               0.00218       9.75407       3.48049       3.25361
    15  H(1)               0.00993      44.40681      15.84546      14.81252
    16  H(1)               0.00138       6.16846       2.20106       2.05758
    17  H(1)               0.00182       8.11376       2.89519       2.70646
    18  C(13)             -0.00006      -0.06999      -0.02497      -0.02334
    19  H(1)               0.00001       0.04126       0.01472       0.01376
    20  H(1)               0.00019       0.84879       0.30287       0.28312
    21  H(1)              -0.00002      -0.07341      -0.02620      -0.02449
    22  H(1)               0.00001       0.05459       0.01948       0.01821
    23  H(1)              -0.00001      -0.05671      -0.02023      -0.01892
    24  S(33)              0.03871      13.29527       4.74408       4.43482
 --------------------------------------------------------
       Center         ----  Spin Dipole Couplings  ----
                      3XX-RR        3YY-RR        3ZZ-RR
 --------------------------------------------------------
     1   Atom        0.002356     -0.000426     -0.001929
     2   Atom        0.002822     -0.004796      0.001974
     3   Atom       -0.007676      0.005702      0.001974
     4   Atom        0.002586     -0.004546      0.001960
     5   Atom       -0.042390     -0.079015      0.121406
     6   Atom        0.310856     -0.410130      0.099274
     7   Atom        0.000923     -0.001738      0.000816
     8   Atom        0.003145     -0.002064     -0.001081
     9   Atom       -0.001682     -0.001771      0.003453
    10   Atom        0.001862     -0.009826      0.007963
    11   Atom        0.073907     -0.056691     -0.017215
    12   Atom        0.016199     -0.011607     -0.004591
    13   Atom        0.015328     -0.032908      0.017580
    14   Atom       -0.004692     -0.002395      0.007087
    15   Atom        0.005409      0.000987     -0.006396
    16   Atom        0.006061     -0.000935     -0.005126
    17   Atom       -0.000146     -0.000698      0.000845
    18   Atom        0.002159     -0.000991     -0.001168
    19   Atom        0.000899     -0.000121     -0.000777
    20   Atom       -0.000930      0.000456      0.000474
    21   Atom        0.001073     -0.000522     -0.000550
    22   Atom        0.001767     -0.000456     -0.001310
    23   Atom        0.001243     -0.000612     -0.000630
    24   Atom        0.038153      0.004157     -0.042310
 --------------------------------------------------------
                        XY            XZ            YZ
 --------------------------------------------------------
     1   Atom        0.001629     -0.001181     -0.000855
     2   Atom        0.002561     -0.006842     -0.001643
     3   Atom        0.002061     -0.008967     -0.004578
     4   Atom       -0.004817     -0.006527      0.001513
     5   Atom       -0.036753      0.027204      0.109789
     6   Atom       -0.004635      0.664847     -0.126550
     7   Atom        0.000582     -0.000972      0.000062
     8   Atom       -0.001238     -0.002952      0.000621
     9   Atom       -0.001664     -0.002096      0.002948
    10   Atom        0.023728      0.032191     -0.017124
    11   Atom       -0.092081      0.051923      0.024944
    12   Atom        0.013013      0.034035     -0.030585
    13   Atom       -0.037098      0.024583      0.034118
    14   Atom        0.000549      0.000824      0.005279
    15   Atom       -0.015556     -0.009041      0.009056
    16   Atom       -0.006758     -0.000789      0.000245
    17   Atom       -0.001555     -0.000163      0.001785
    18   Atom       -0.000204     -0.001047     -0.000161
    19   Atom        0.001534     -0.000909     -0.000676
    20   Atom        0.001185     -0.001279     -0.002057
    21   Atom        0.000557     -0.000356     -0.000083
    22   Atom       -0.002018     -0.001042      0.000673
    23   Atom       -0.000285     -0.000309      0.000028
    24   Atom       -0.063883     -0.031019      0.026140
 --------------------------------------------------------


 ---------------------------------------------------------------------------------
              Anisotropic Spin Dipole Couplings in Principal Axis System
 ---------------------------------------------------------------------------------

       Atom             a.u.   MegaHertz   Gauss  10(-4) cm-1        Axes

              Baa    -0.0024    -0.318    -0.113    -0.106  0.1301  0.3060  0.9431
     1 C(13)  Bbb    -0.0011    -0.150    -0.053    -0.050 -0.4733  0.8550 -0.2121
              Bcc     0.0035     0.468     0.167     0.156  0.8712  0.4188 -0.2561
 
              Baa    -0.0057    -0.759    -0.271    -0.253 -0.4144  0.8922 -0.1795
     2 C(13)  Bbb    -0.0042    -0.565    -0.202    -0.188  0.5577  0.4049  0.7246
              Bcc     0.0099     1.324     0.472     0.442  0.7192  0.2002 -0.6653
 
              Baa    -0.0131    -0.535    -0.191    -0.179  0.8538  0.0330  0.5196
     3 S(33)  Bbb     0.0015     0.061     0.022     0.020 -0.3585  0.7609  0.5408
              Bcc     0.0116     0.475     0.169     0.158 -0.3775 -0.6480  0.6615
 
              Baa    -0.0074    -0.993    -0.354    -0.331  0.5506  0.7947  0.2556
     4 C(13)  Bbb    -0.0028    -0.380    -0.136    -0.127  0.4197 -0.5281  0.7382
              Bcc     0.0102     1.373     0.490     0.458  0.7216 -0.2992 -0.6243
 
              Baa    -0.1466   -19.673    -7.020    -6.562  0.3945  0.8356 -0.3823
     5 C(13)  Bbb    -0.0237    -3.184    -1.136    -1.062  0.9176 -0.3803  0.1157
              Bcc     0.1703    22.857     8.156     7.624  0.0487  0.3965  0.9168
 
              Baa    -0.5386   -72.281   -25.792   -24.110 -0.4898  0.6027  0.6300
     6 C(13)  Bbb    -0.3453   -46.340   -16.535   -15.457  0.4343  0.7952 -0.4231
              Bcc     0.8840   118.621    42.327    39.568  0.7560 -0.0664  0.6512
 
              Baa    -0.0019    -0.253    -0.090    -0.085 -0.2371  0.9655 -0.1075
     7 C(13)  Bbb     0.0000     0.001     0.000     0.000  0.6314  0.2372  0.7383
              Bcc     0.0019     0.253     0.090     0.084  0.7384  0.1072 -0.6658
 
              Baa    -0.0026    -0.349    -0.124    -0.116  0.4649  0.0488  0.8840
     8 C(13)  Bbb    -0.0023    -0.314    -0.112    -0.105  0.1497  0.9798 -0.1328
              Bcc     0.0049     0.662     0.236     0.221  0.8726 -0.1941 -0.4481
 
              Baa    -0.0035    -1.878    -0.670    -0.626  0.5320  0.8254 -0.1890
     9 H(1)   Bbb    -0.0022    -1.163    -0.415    -0.388  0.7783 -0.3887  0.4931
              Bcc     0.0057     3.040     1.085     1.014 -0.3335  0.4094  0.8492
 
              Baa    -0.0490    -6.581    -2.348    -2.195  0.6088 -0.5966 -0.5229
    10 C(13)  Bbb     0.0115     1.541     0.550     0.514  0.3718  0.7968 -0.4762
              Bcc     0.0376     5.041     1.799     1.681  0.7008  0.0955  0.7069
 
              Baa    -0.1249   -16.756    -5.979    -5.589  0.4693  0.7832 -0.4079
    11 C(13)  Bbb    -0.0053    -0.713    -0.255    -0.238 -0.0260  0.4739  0.8802
              Bcc     0.1302    17.469     6.233     5.827  0.8826 -0.4025  0.2428
 
              Baa    -0.0545    -7.314    -2.610    -2.440 -0.4327  0.6067  0.6668
    12 C(13)  Bbb     0.0116     1.559     0.556     0.520  0.5200  0.7722 -0.3652
              Bcc     0.0429     5.754     2.053     1.919  0.7365 -0.1887  0.6496
 
              Baa    -0.0724    -9.719    -3.468    -3.242  0.4507  0.7869 -0.4214
    13 C(13)  Bbb     0.0313     4.203     1.500     1.402 -0.5265  0.6156  0.5864
              Bcc     0.0411     5.516     1.968     1.840  0.7209 -0.0424  0.6918
 
              Baa    -0.0049    -2.625    -0.937    -0.876  0.7164 -0.6554  0.2390
    14 H(1)   Bbb    -0.0046    -2.448    -0.874    -0.817  0.6943  0.6362 -0.3366
              Bcc     0.0095     5.073     1.810     1.692  0.0686  0.4071  0.9108
 
              Baa    -0.0130    -6.963    -2.484    -2.322  0.4046  0.7683 -0.4960
    15 H(1)   Bbb    -0.0112    -5.967    -2.129    -1.990  0.5993  0.1869  0.7784
              Bcc     0.0242    12.930     4.614     4.313  0.6907 -0.6122 -0.3849
 
              Baa    -0.0053    -2.837    -1.012    -0.946  0.3451  0.4874  0.8021
    16 H(1)   Bbb    -0.0049    -2.613    -0.932    -0.872  0.3904  0.7026 -0.5949
              Bcc     0.0102     5.450     1.945     1.818  0.8535 -0.5185 -0.0522
 
              Baa    -0.0025    -1.357    -0.484    -0.452  0.4823  0.7843 -0.3902
    17 H(1)   Bbb     0.0001     0.048     0.017     0.016  0.7800 -0.1817  0.5988
              Bcc     0.0025     1.308     0.467     0.436 -0.3988  0.5931  0.6994
 
              Baa    -0.0016    -0.208    -0.074    -0.069  0.2718  0.3569  0.8937
    18 C(13)  Bbb    -0.0009    -0.123    -0.044    -0.041 -0.0590  0.9331 -0.3547
              Bcc     0.0025     0.331     0.118     0.110  0.9606 -0.0437 -0.2746
 
              Baa    -0.0012    -0.658    -0.235    -0.219 -0.4867  0.8326  0.2643
    19 H(1)   Bbb    -0.0012    -0.627    -0.224    -0.209  0.4249 -0.0387  0.9044
              Bcc     0.0024     1.285     0.458     0.429  0.7633  0.5525 -0.3349
 
              Baa    -0.0017    -0.902    -0.322    -0.301  0.7974  0.1255  0.5903
    20 H(1)   Bbb    -0.0016    -0.831    -0.297    -0.277 -0.4648  0.7515  0.4681
              Bcc     0.0032     1.733     0.618     0.578 -0.3849 -0.6476  0.6576
 
              Baa    -0.0007    -0.377    -0.134    -0.126 -0.3392  0.8916 -0.3001
    21 H(1)   Bbb    -0.0006    -0.327    -0.117    -0.109  0.0830  0.3461  0.9345
              Bcc     0.0013     0.704     0.251     0.235  0.9371  0.2921 -0.1913
 
              Baa    -0.0017    -0.904    -0.323    -0.301  0.2150  0.7133 -0.6671
    22 H(1)   Bbb    -0.0016    -0.853    -0.304    -0.285  0.5146  0.4978  0.6981
              Bcc     0.0033     1.757     0.627     0.586  0.8300 -0.4934 -0.2600
 
              Baa    -0.0007    -0.367    -0.131    -0.123  0.2049  0.4432  0.8727
    23 H(1)   Bbb    -0.0006    -0.345    -0.123    -0.115  0.0580  0.8845 -0.4628
              Bcc     0.0013     0.712     0.254     0.237  0.9771 -0.1454 -0.1556
 
              Baa    -0.0543    -2.225    -0.794    -0.742  0.1021 -0.3111  0.9449
    24 S(33)  Bbb    -0.0446    -1.830    -0.653    -0.610  0.6420  0.7462  0.1764
              Bcc     0.0989     4.055     1.447     1.352  0.7599 -0.5886 -0.2759
 

 ---------------------------------------------------------------------------------

 No NMR shielding tensors so no spin-rotation constants.
 Leave Link  601 at Mon Jan 25 22:34:36 2021, MaxMem=  4026531840 cpu:               3.1 elap:               0.4
 (Enter /opt/ohpc/pub/libs/gaussian/g16-A.03/sandybridge/g16/l9999.exe)

 Test job not archived.
 1\1\GINC-CNODE146\SP\ULC-wHPBE\TZVP\C12H10S2(1+,2)\RDU230\25-Jan-2021\
 0\\#P LC-wHPBE/TZVP iop(3/107=0328100000, 3/108=0328100000) scf=(conve
 r=6,fermi,ndamp=35,noincfock,novaracc,vshift=500,xqc)\\H10 C12 S2\\1,2
 \C,0,-2.574063,-1.434391,-0.049117\C,0,-1.368901,-0.745264,-0.216328\S
 ,0,0.093606,-1.678504,-0.585022\C,0,-1.397687,0.626896,-0.046009\C,0,1
 .500395,0.811934,0.077279\C,0,1.478004,0.220423,1.307027\C,0,-3.746915
 ,-0.783096,0.229547\C,0,-2.584351,1.293751,0.256604\H,0,-0.039943,1.86
 0892,-1.547006\C,0,2.473105,0.786527,-0.925649\C,0,2.645316,-0.559969,
 1.492438\C,0,3.655495,-0.649979,0.563531\C,0,3.583956,0.035098,-0.6567
 53\H,0,2.357645,1.302286,-1.874829\H,0,2.763398,-1.119309,2.419207\H,0
 ,4.527775,-1.262476,0.773175\H,0,4.391412,-0.038194,-1.378729\C,0,-3.7
 59914,0.597536,0.384558\H,0,-2.557315,-2.514169,-0.13851\H,0,-0.525974
 ,-2.528359,-1.4318\H,0,-4.665467,-1.345208,0.349638\H,0,-2.558102,2.36
 8477,0.406674\H,0,-4.681894,1.115025,0.619767\S,0,0.004008,1.738768,-0
 .20875\\Version=EM64L-G16RevA.03\State=2-A\HF=-1258.8121781\S2=0.76700
 2\S2-1=0.\S2A=0.750139\RMSD=1.005e-08\Dipole=0.0213916,0.6569582,-0.72
 5242\Quadrupole=15.6195687,-4.2123205,-11.4072482,-1.2734502,-1.903190
 2,-2.4265204\PG=C01 [X(C12H10S2)]\\@


 IF AT FIRST YOU DON'T SUCCEED, TRY LOOKING IN 
 THE WASTEBASKET FOR THE DIRECTIONS.
 Job cpu time:       0 days  5 hours 12 minutes 41.4 seconds.
 Elapsed time:       0 days  0 hours 39 minutes  9.1 seconds.
 File lengths (MBytes):  RWF=    112 Int=      0 D2E=      0 Chk=     12 Scr=      8
 Normal termination of Gaussian 16 at Mon Jan 25 22:34:36 2021.
