 Entering Gaussian System, Link 0=g16
 Input=mol_ta_NN_frag_tune_n3.gjf
 Output=mol_ta_NN_frag_tune_n3.log
 Initial command:
 /opt/ohpc/pub/libs/gaussian/g16-A.03/sandybridge/g16/l1.exe "/mnt/gpfs2_4m/scratch/rdu230/ondemand/projects/init_structures/gaussian/wtuning/mol_ta_NN_frag/tuning_mol_ta_NN_frag_ocycle0/Gau-22641.inp" -scrdir="/mnt/gpfs2_4m/scratch/rdu230/ondemand/projects/init_structures/gaussian/wtuning/mol_ta_NN_frag/tuning_mol_ta_NN_frag_ocycle0/"
 Entering Link 1 = /opt/ohpc/pub/libs/gaussian/g16-A.03/sandybridge/g16/l1.exe PID=     22642.
  
 Copyright (c) 1988,1990,1992,1993,1995,1998,2003,2009,2016,
            Gaussian, Inc.  All Rights Reserved.
  
 This is part of the Gaussian(R) 16 program.  It is based on
 the Gaussian(R) 09 system (copyright 2009, Gaussian, Inc.),
 the Gaussian(R) 03 system (copyright 2003, Gaussian, Inc.),
 the Gaussian(R) 98 system (copyright 1998, Gaussian, Inc.),
 the Gaussian(R) 94 system (copyright 1995, Gaussian, Inc.),
 the Gaussian 92(TM) system (copyright 1992, Gaussian, Inc.),
 the Gaussian 90(TM) system (copyright 1990, Gaussian, Inc.),
 the Gaussian 88(TM) system (copyright 1988, Gaussian, Inc.),
 the Gaussian 86(TM) system (copyright 1986, Carnegie Mellon
 University), and the Gaussian 82(TM) system (copyright 1983,
 Carnegie Mellon University). Gaussian is a federally registered
 trademark of Gaussian, Inc.
  
 This software contains proprietary and confidential information,
 including trade secrets, belonging to Gaussian, Inc.
  
 This software is provided under written license and may be
 used, copied, transmitted, or stored only in accord with that
 written license.
  
 The following legend is applicable only to US Government
 contracts under FAR:
  
                    RESTRICTED RIGHTS LEGEND
  
 Use, reproduction and disclosure by the US Government is
 subject to restrictions as set forth in subparagraphs (a)
 and (c) of the Commercial Computer Software - Restricted
 Rights clause in FAR 52.227-19.
  
 Gaussian, Inc.
 340 Quinnipiac St., Bldg. 40, Wallingford CT 06492
  
  
 ---------------------------------------------------------------
 Warning -- This program may not be used in any manner that
 competes with the business of Gaussian, Inc. or will provide
 assistance to any competitor of Gaussian, Inc.  The licensee
 of this program is prohibited from giving any competitor of
 Gaussian, Inc. access to this program.  By using this program,
 the user acknowledges that Gaussian, Inc. is engaged in the
 business of creating and licensing software in the field of
 computational chemistry and represents and warrants to the
 licensee that it is not a competitor of Gaussian, Inc. and that
 it will not use this program in any manner prohibited above.
 ---------------------------------------------------------------
  

 Cite this work as:
 Gaussian 16, Revision A.03,
 M. J. Frisch, G. W. Trucks, H. B. Schlegel, G. E. Scuseria, 
 M. A. Robb, J. R. Cheeseman, G. Scalmani, V. Barone, 
 G. A. Petersson, H. Nakatsuji, X. Li, M. Caricato, A. V. Marenich, 
 J. Bloino, B. G. Janesko, R. Gomperts, B. Mennucci, H. P. Hratchian, 
 J. V. Ortiz, A. F. Izmaylov, J. L. Sonnenberg, D. Williams-Young, 
 F. Ding, F. Lipparini, F. Egidi, J. Goings, B. Peng, A. Petrone, 
 T. Henderson, D. Ranasinghe, V. G. Zakrzewski, J. Gao, N. Rega, 
 G. Zheng, W. Liang, M. Hada, M. Ehara, K. Toyota, R. Fukuda, 
 J. Hasegawa, M. Ishida, T. Nakajima, Y. Honda, O. Kitao, H. Nakai, 
 T. Vreven, K. Throssell, J. A. Montgomery, Jr., J. E. Peralta, 
 F. Ogliaro, M. J. Bearpark, J. J. Heyd, E. N. Brothers, K. N. Kudin, 
 V. N. Staroverov, T. A. Keith, R. Kobayashi, J. Normand, 
 K. Raghavachari, A. P. Rendell, J. C. Burant, S. S. Iyengar, 
 J. Tomasi, M. Cossi, J. M. Millam, M. Klene, C. Adamo, R. Cammi, 
 J. W. Ochterski, R. L. Martin, K. Morokuma, O. Farkas, 
 J. B. Foresman, and D. J. Fox, Gaussian, Inc., Wallingford CT, 2016.
 
 ******************************************
 Gaussian 16:  EM64L-G16RevA.03 25-Dec-2016
                25-Jan-2021 
 ******************************************
 %mem=30GB
 %nproc=8
 Will use up to    8 processors via shared memory.
 ----------------------------------------------------------------------
 #P LC-wHPBE/TZVP iop(3/107=0236300000, 3/108=0236300000) scf=(conver=6
 ,fermi,ndamp=35,noincfock,novaracc,vshift=500,xqc)
 ----------------------------------------------------------------------
 1/38=1,172=1/1;
 2/12=2,17=6,18=5,40=1/2;
 3/5=19,7=101,11=2,25=1,30=1,74=-71,107=236300000,108=236300000/1,2,3;
 4//1;
 5/5=100002,6=6,8=3,10=500,13=1,18=-1,22=13,38=1,93=35/2,8;
 6/7=2,8=2,9=2,10=2,28=1/1;
 99/5=1,9=1/99;
 Leave Link    1 at Mon Jan 25 22:53:17 2021, MaxMem=  4026531840 cpu:               2.1 elap:               0.3
 (Enter /opt/ohpc/pub/libs/gaussian/g16-A.03/sandybridge/g16/l101.exe)
 ----------
 H10 C12 S2
 ----------
 Symbolic Z-matrix:
 Charge =  0 Multiplicity = 1
 C                    -2.57406  -1.43439  -0.04912 
 C                    -1.3689   -0.74526  -0.21633 
 S                     0.09361  -1.6785   -0.58502 
 C                    -1.39769   0.6269   -0.04601 
 C                     1.5004    0.81193   0.07728 
 C                     1.478     0.22042   1.30703 
 C                    -3.74692  -0.7831    0.22955 
 C                    -2.58435   1.29375   0.2566 
 H                    -0.03994   1.86089  -1.54701 
 C                     2.47311   0.78653  -0.92565 
 C                     2.64532  -0.55997   1.49244 
 C                     3.6555   -0.64998   0.56353 
 C                     3.58396   0.0351   -0.65675 
 H                     2.35765   1.30229  -1.87483 
 H                     2.7634   -1.11931   2.41921 
 H                     4.52778  -1.26248   0.77318 
 H                     4.39141  -0.03819  -1.37873 
 C                    -3.75991   0.59754   0.38456 
 H                    -2.55732  -2.51417  -0.13851 
 H                    -0.52597  -2.52836  -1.4318 
 H                    -4.66547  -1.34521   0.34964 
 H                    -2.5581    2.36848   0.40667 
 H                    -4.68189   1.11503   0.61977 
 S                     0.00401   1.73877  -0.20875 
 
 ITRead=  0  0  0  0  0  0  0  0  0  0  0  0  0  0  0  0  0  0  0  0
 ITRead=  0  0  0  0
 MicOpt= -1 -1 -1 -1 -1 -1 -1 -1 -1 -1 -1 -1 -1 -1 -1 -1 -1 -1 -1 -1
 MicOpt= -1 -1 -1 -1
 NAtoms=     24 NQM=       24 NQMF=       0 NMMI=      0 NMMIF=      0
                NMic=       0 NMicF=      0.
                    Isotopes and Nuclear Properties:
 (Nuclear quadrupole moments (NQMom) in fm**2, nuclear magnetic moments (NMagM)
  in nuclear magnetons)

  Atom         1           2           3           4           5           6           7           8           9          10
 IAtWgt=          12          12          32          12          12          12          12          12           1          12
 AtmWgt=  12.0000000  12.0000000  31.9720718  12.0000000  12.0000000  12.0000000  12.0000000  12.0000000   1.0078250  12.0000000
 NucSpn=           0           0           0           0           0           0           0           0           1           0
 AtZEff=  -0.0000000  -0.0000000  -0.0000000  -0.0000000  -0.0000000  -0.0000000  -0.0000000  -0.0000000  -0.0000000  -0.0000000
 NQMom=    0.0000000   0.0000000   0.0000000   0.0000000   0.0000000   0.0000000   0.0000000   0.0000000   0.0000000   0.0000000
 NMagM=    0.0000000   0.0000000   0.0000000   0.0000000   0.0000000   0.0000000   0.0000000   0.0000000   2.7928460   0.0000000
 AtZNuc=   6.0000000   6.0000000  16.0000000   6.0000000   6.0000000   6.0000000   6.0000000   6.0000000   1.0000000   6.0000000

  Atom        11          12          13          14          15          16          17          18          19          20
 IAtWgt=          12          12          12           1           1           1           1          12           1           1
 AtmWgt=  12.0000000  12.0000000  12.0000000   1.0078250   1.0078250   1.0078250   1.0078250  12.0000000   1.0078250   1.0078250
 NucSpn=           0           0           0           1           1           1           1           0           1           1
 AtZEff=  -0.0000000  -0.0000000  -0.0000000  -0.0000000  -0.0000000  -0.0000000  -0.0000000  -0.0000000  -0.0000000  -0.0000000
 NQMom=    0.0000000   0.0000000   0.0000000   0.0000000   0.0000000   0.0000000   0.0000000   0.0000000   0.0000000   0.0000000
 NMagM=    0.0000000   0.0000000   0.0000000   2.7928460   2.7928460   2.7928460   2.7928460   0.0000000   2.7928460   2.7928460
 AtZNuc=   6.0000000   6.0000000   6.0000000   1.0000000   1.0000000   1.0000000   1.0000000   6.0000000   1.0000000   1.0000000

  Atom        21          22          23          24
 IAtWgt=           1           1           1          32
 AtmWgt=   1.0078250   1.0078250   1.0078250  31.9720718
 NucSpn=           1           1           1           0
 AtZEff=  -0.0000000  -0.0000000  -0.0000000  -0.0000000
 NQMom=    0.0000000   0.0000000   0.0000000   0.0000000
 NMagM=    2.7928460   2.7928460   2.7928460   0.0000000
 AtZNuc=   1.0000000   1.0000000   1.0000000  16.0000000
 Leave Link  101 at Mon Jan 25 22:53:17 2021, MaxMem=  4026531840 cpu:               0.8 elap:               0.1
 (Enter /opt/ohpc/pub/libs/gaussian/g16-A.03/sandybridge/g16/l202.exe)
                          Input orientation:                          
 ---------------------------------------------------------------------
 Center     Atomic      Atomic             Coordinates (Angstroms)
 Number     Number       Type             X           Y           Z
 ---------------------------------------------------------------------
      1          6           0       -2.574063   -1.434391   -0.049117
      2          6           0       -1.368901   -0.745264   -0.216328
      3         16           0        0.093606   -1.678504   -0.585022
      4          6           0       -1.397687    0.626896   -0.046009
      5          6           0        1.500395    0.811934    0.077279
      6          6           0        1.478004    0.220423    1.307027
      7          6           0       -3.746915   -0.783096    0.229547
      8          6           0       -2.584351    1.293751    0.256604
      9          1           0       -0.039943    1.860892   -1.547006
     10          6           0        2.473105    0.786527   -0.925649
     11          6           0        2.645316   -0.559969    1.492438
     12          6           0        3.655495   -0.649979    0.563531
     13          6           0        3.583956    0.035098   -0.656753
     14          1           0        2.357645    1.302286   -1.874829
     15          1           0        2.763398   -1.119309    2.419207
     16          1           0        4.527775   -1.262476    0.773175
     17          1           0        4.391412   -0.038194   -1.378729
     18          6           0       -3.759914    0.597536    0.384558
     19          1           0       -2.557315   -2.514169   -0.138510
     20          1           0       -0.525974   -2.528359   -1.431800
     21          1           0       -4.665467   -1.345208    0.349638
     22          1           0       -2.558102    2.368477    0.406674
     23          1           0       -4.681894    1.115025    0.619767
     24         16           0        0.004008    1.738768   -0.208750
 ---------------------------------------------------------------------
                    Distance matrix (angstroms):
                    1          2          3          4          5
     1  C    0.000000
     2  C    1.398310   0.000000
     3  S    2.731894   1.773640   0.000000
     4  C    2.373347   1.382990   2.798099   0.000000
     5  C    4.654370   3.277793   2.935980   2.906599   0.000000
     6  C    4.582225   3.370168   3.017007   3.203986   1.364796
     7  C    1.370190   2.419749   4.026770   2.753703   5.486490
     8  C    2.745238   2.420447   4.088287   1.394432   4.116972
     9  H    4.418634   3.213858   3.670228   2.370487   2.472095
    10  C    5.583430   4.196490   3.443025   3.972692   1.397381
    11  C    5.512071   4.366710   3.475368   4.485682   2.279394
    12  C    6.308568   5.085451   3.881249   5.247532   2.649167
    13  C    6.360017   5.033263   3.888974   5.053712   2.341688
    14  H    5.928269   4.564015   3.959114   4.231224   2.187704
    15  H    5.889006   4.915470   4.057817   5.142096   3.287781
    16  H    7.151351   6.001451   4.656139   6.273108   3.735302
    17  H    7.227384   5.918812   4.668161   5.977638   3.346738
    18  C    2.392288   2.807333   4.579308   2.401326   5.273636
    19  H    1.083601   2.132465   2.815154   3.349565   5.251146
    20  H    2.702452   2.316749   1.350247   3.554706   4.188203
    21  H    2.130946   3.398176   4.861425   3.837202   6.537989
    22  H    3.830118   3.390828   4.938934   2.141165   4.359212
    23  H    3.374890   3.890457   5.662219   3.386376   6.213441
    24  S    4.091561   2.838195   3.439092   1.796522   1.783258
                    6          7          8          9         10
     6  C    0.000000
     7  C    5.428424   0.000000
     8  C    4.331068   2.380248   0.000000
     9  H    3.625025   4.887582   3.169964   0.000000
    10  C    2.509092   6.518193   5.218511   2.802812   0.000000
    11  C    1.416335   6.519609   5.684451   4.723283   2.773058
    12  C    2.460051   7.411136   6.542780   4.941164   2.383118
    13  C    2.885448   7.429444   6.361324   4.154361   1.367823
    14  H    3.473961   6.785490   5.382045   2.483533   1.086407
    15  H    2.164270   6.876905   6.252850   5.698348   3.860640
    16  H    3.432942   8.306373   7.575188   6.000226   3.362452
    17  H    3.970908   8.329093   7.287638   4.824080   2.136667
    18  C    5.331880   1.389368   1.372238   4.377807   6.372039
    19  H    5.084424   2.132423   3.828459   5.240437   6.067892
    20  H    4.367254   4.022496   4.657912   4.417581   4.498792
    21  H    6.411710   1.083573   3.362113   5.939007   7.558430
    22  H    4.659927   3.372990   1.085470   3.227326   5.439733
    23  H    6.262346   2.151586   2.136239   5.176768   7.327362
    24  S    2.603001   4.541071   2.667245   1.344535   2.741742
                   11         12         13         14         15
    11  C    0.000000
    12  C    1.375293   0.000000
    13  C    2.419540   1.401264   0.000000
    14  H    3.858657   3.382507   2.143202   0.000000
    15  H    1.088901   2.111786   3.386370   4.946464   0.000000
    16  H    2.134129   1.086267   2.149229   4.277779   2.417218
    17  H    3.400691   2.165232   1.085636   2.485802   4.271248
    18  C    6.602589   7.521743   7.438622   6.559423   7.045634
    19  H    5.791913   6.524345   6.669524   6.460415   6.066097
    20  H    4.741604   4.999434   4.905460   4.815119   5.256962
    21  H    7.441111   8.352694   8.424432   7.828255   7.715062
    22  H    6.068792   6.909737   6.655855   5.523277   6.673328
    23  H    7.566714   8.522350   8.433269   7.470822   7.978885
    24  S    3.892909   4.431240   3.989890   2.916495   4.763297
                   16         17         18         19         20
    16  H    0.000000
    17  H    2.479547   0.000000
    18  C    8.502732   8.364057   0.000000
    19  H    7.252338   7.480201   3.376767   0.000000
    20  H    5.657274   5.512207   4.850644   2.408142   0.000000
    21  H    9.203365   9.312497   2.143712   2.459484   4.659267
    22  H    7.970433   7.568056   2.140344   4.912989   5.611464
    23  H    9.512836   9.362093   1.083128   4.273157   5.895324
    24  S    5.516893   4.876039   3.977629   4.965157   4.470470
                   21         22         23         24
    21  H    0.000000
    22  H    4.270327   0.000000
    23  H    2.475073   2.475286   0.000000
    24  S    5.623762   2.709186   4.799289   0.000000
 Stoichiometry    C12H10S2
 Framework group  C1[X(C12H10S2)]
 Deg. of freedom    66
 Full point group                 C1      NOp   1
 Largest Abelian subgroup         C1      NOp   1
 Largest concise Abelian subgroup C1      NOp   1
                         Standard orientation:                         
 ---------------------------------------------------------------------
 Center     Atomic      Atomic             Coordinates (Angstroms)
 Number     Number       Type             X           Y           Z
 ---------------------------------------------------------------------
      1          6           0        2.574063    1.434391   -0.049117
      2          6           0        1.368901    0.745264   -0.216328
      3         16           0       -0.093606    1.678504   -0.585022
      4          6           0        1.397687   -0.626896   -0.046009
      5          6           0       -1.500395   -0.811934    0.077279
      6          6           0       -1.478004   -0.220423    1.307027
      7          6           0        3.746915    0.783096    0.229547
      8          6           0        2.584351   -1.293751    0.256604
      9          1           0        0.039943   -1.860892   -1.547006
     10          6           0       -2.473105   -0.786527   -0.925649
     11          6           0       -2.645316    0.559969    1.492438
     12          6           0       -3.655495    0.649979    0.563531
     13          6           0       -3.583956   -0.035098   -0.656753
     14          1           0       -2.357645   -1.302286   -1.874829
     15          1           0       -2.763398    1.119309    2.419207
     16          1           0       -4.527775    1.262476    0.773175
     17          1           0       -4.391412    0.038194   -1.378729
     18          6           0        3.759914   -0.597536    0.384558
     19          1           0        2.557315    2.514169   -0.138510
     20          1           0        0.525974    2.528359   -1.431800
     21          1           0        4.665467    1.345208    0.349638
     22          1           0        2.558102   -2.368477    0.406674
     23          1           0        4.681894   -1.115025    0.619767
     24         16           0       -0.004008   -1.738768   -0.208750
 ---------------------------------------------------------------------
 Rotational constants (GHZ):           1.2365549           0.3949099           0.3394237
 Leave Link  202 at Mon Jan 25 22:53:17 2021, MaxMem=  4026531840 cpu:               0.3 elap:               0.1
 (Enter /opt/ohpc/pub/libs/gaussian/g16-A.03/sandybridge/g16/l301.exe)
 Standard basis: TZVP (5D, 7F)
 Ernie: Thresh=  0.10000D-02 Tol=  0.10000D-05 Strict=F.
 There are   346 symmetry adapted cartesian basis functions of A   symmetry.
 There are   332 symmetry adapted basis functions of A   symmetry.
   332 basis functions,   594 primitive gaussians,   346 cartesian basis functions
    57 alpha electrons       57 beta electrons
       nuclear repulsion energy      1040.6420683200 Hartrees.
 IExCor=33909 DFT=T Ex+Corr=LC-wHPBE ExCW=0 ScaHFX=  1.000000
 ScaDFX=  1.000000  1.000000  1.000000  1.000000 ScalE2=  1.000000  1.000000
 IRadAn=      5 IRanWt=     -1 IRanGd=            0 ICorTp=0 IEmpDi=  4
 HFx  wShort=  0.000000 wLong=  0.236300 cFull=  0.000000 cShort=  0.000000 cLong=  1.000000
 DFx  wShort=  0.000000 wLong=  0.236300 cFull=  0.000000 cShort=  1.000000 cLong=  0.000000
 NAtoms=   24 NActive=   24 NUniq=   24 SFac= 1.00D+00 NAtFMM=   60 NAOKFM=F Big=F
 Integral buffers will be    131072 words long.
 Raffenetti 2 integral format.
 Two-electron integral symmetry is turned on.
 Leave Link  301 at Mon Jan 25 22:53:17 2021, MaxMem=  4026531840 cpu:               0.4 elap:               0.1
 (Enter /opt/ohpc/pub/libs/gaussian/g16-A.03/sandybridge/g16/l302.exe)
 NPDir=0 NMtPBC=     1 NCelOv=     1 NCel=       1 NClECP=     1 NCelD=      1
         NCelK=      1 NCelE2=     1 NClLst=     1 CellRange=     0.0.
 One-electron integrals computed using PRISM.
 One-electron integral symmetry used in STVInt
 NBasis=   332 RedAO= T EigKep=  8.19D-06  NBF=   332
 NBsUse=   332 1.00D-06 EigRej= -1.00D+00 NBFU=   332
 Precomputing XC quadrature grid using
 IXCGrd= 4 IRadAn=           5 IRanWt=          -1 IRanGd=           0 AccXCQ= 0.00D+00.
 Generated NRdTot=       0 NPtTot=           0 NUsed=           0 NTot=          32
 NSgBfM=   338   338   338   338   338 MxSgAt=    24 MxSgA2=    24.
 Leave Link  302 at Mon Jan 25 22:53:17 2021, MaxMem=  4026531840 cpu:               3.1 elap:               0.4
 (Enter /opt/ohpc/pub/libs/gaussian/g16-A.03/sandybridge/g16/l303.exe)
 DipDrv:  MaxL=1.
 Leave Link  303 at Mon Jan 25 22:53:17 2021, MaxMem=  4026531840 cpu:               0.5 elap:               0.1
 (Enter /opt/ohpc/pub/libs/gaussian/g16-A.03/sandybridge/g16/l401.exe)
 ExpMin= 9.52D-02 ExpMax= 6.07D+04 ExpMxC= 2.07D+03 IAcc=3 IRadAn=         5 AccDes= 0.00D+00
 Harris functional with IExCor=33909 and IRadAn=       5 diagonalized for initial guess.
 HarFok:  IExCor=33909 AccDes= 0.00D+00 IRadAn=         5 IDoV= 1 UseB2=F ITyADJ=14
 ICtDFT=  3500011 ScaDFX=  1.000000  1.000000  1.000000  1.000000
 FoFCou: FMM=F IPFlag=           0 FMFlag=      100000 FMFlg1=           0
         NFxFlg=           0 DoJE=T BraDBF=F KetDBF=T FulRan=T
         wScrn=  0.000000 ICntrl=       500 IOpCl=  0 I1Cent=   200000004 NGrid=           0
         NMat0=    1 NMatS0=      1 NMatT0=    0 NMatD0=    1 NMtDS0=    0 NMtDT0=    0
 Petite list used in FoFCou.
 Harris En= -1244.75137829642    
 JPrj=0 DoOrth=F DoCkMO=F.
 Leave Link  401 at Mon Jan 25 22:53:20 2021, MaxMem=  4026531840 cpu:              19.5 elap:               2.5
 (Enter /opt/ohpc/pub/libs/gaussian/g16-A.03/sandybridge/g16/l502.exe)
 Integral symmetry usage will be decided dynamically.
 Closed shell SCF:
 Using DIIS extrapolation, IDIIS=    10.
 NGot=  4026531840 LenX=  4026286196 LenY=  4026166039
 Requested convergence on RMS density matrix=1.00D-06 within  32 cycles.
 Requested convergence on MAX density matrix=1.00D-04.
 Requested convergence on             energy=1.00D-04.
 Virtual orbitals will be shifted by   0.500 hartree.
 No special actions if energy rises.
 Dynamic level shift is on during FON iterations.

 Cycle   1  Pass 1  IDiag  1:
 FoFJK:  IHMeth= 1 ICntrl=       0 DoSepK=T KAlg= 0 I1Cent=           0 FoldK=F
 IRaf=         1 NMat=       1 IRICut=       1 DoRegI=T DoRafI=F ISym2E= 0 IDoP0=0 IntGTp=1.
 FoFCou: FMM=F IPFlag=           0 FMFlag=      100000 FMFlg1=           0
         NFxFlg=           0 DoJE=T BraDBF=F KetDBF=F FulRan=T
         wScrn=  0.000000 ICntrl=       500 IOpCl=  0 I1Cent=           0 NGrid=           0
         NMat0=    1 NMatS0=      1 NMatT0=    0 NMatD0=    1 NMtDS0=    0 NMtDT0=    0
 Symmetry not used in FoFCou.
 E= -1258.58771605201    
 DIIS: error= 2.16D-02 at cycle   1 NSaved=   1.
 NSaved= 1 IEnMin= 1 EnMin= -1258.58771605201     IErMin= 1 ErrMin= 2.16D-02
 ErrMax= 2.16D-02  0.00D+00 EMaxC= 1.00D+00 BMatC= 3.73D-01 BMatP= 3.73D-01
 IDIUse=1 WtCom= 1.00D+00 WtEn= 0.00D+00
 Coeff-Com:  0.100D+01
 Coeff:      0.100D+01
 Gap=     0.468 Goal=   None    Shift=    0.500
 T= 1300. Gap= 0.503 NK=0 IS=   58 IE=  332 IFin=   57
          NO(<0.9)=   0  NV(>0.1)=   0     57.00e < EF      0.00e >EF  Err=0.0D+00
 GapD=    0.468 DampG=2.000 DampE=0.500 DampFc=1.0000 IDamp=-1.
 RMSDP=6.24D-03 MaxDP=4.03D-01              OVMax= 1.21D-01

 Cycle   2  Pass 1  IDiag  1:
 E= -1258.94744762099     Delta-E=       -0.359731568981 Rises=F Damp=F
 DIIS: error= 6.13D-03 at cycle   2 NSaved=   2.
 NSaved= 2 IEnMin= 2 EnMin= -1258.94744762099     IErMin= 2 ErrMin= 6.13D-03
 ErrMax= 6.13D-03  0.00D+00 EMaxC= 1.00D+00 BMatC= 4.36D-02 BMatP= 3.73D-01
 IDIUse=1 WtCom= 1.00D+00 WtEn= 0.00D+00
 Coeff-Com:  0.230D+00 0.770D+00
 Coeff:      0.230D+00 0.770D+00
 Gap=     0.249 Goal=   None    Shift=    0.500
 T= 1136. Gap= 0.714 NK=0 IS=   58 IE=  332 IFin=   57
          NO(<0.9)=   0  NV(>0.1)=   0     57.00e < EF      0.00e >EF  Err=0.0D+00
 GapD=    0.249 DampG=1.000 DampE=1.000 DampFc=1.0000 IDamp=-1.
 RMSDP=1.30D-03 MaxDP=6.23D-02 DE=-3.60D-01 OVMax= 1.65D-02

 Cycle   3  Pass 1  IDiag  1:
 E= -1258.97666022423     Delta-E=       -0.029212603233 Rises=F Damp=F
 DIIS: error= 2.14D-03 at cycle   3 NSaved=   3.
 NSaved= 3 IEnMin= 3 EnMin= -1258.97666022423     IErMin= 3 ErrMin= 2.14D-03
 ErrMax= 2.14D-03  0.00D+00 EMaxC= 1.00D+00 BMatC= 4.64D-03 BMatP= 4.36D-02
 IDIUse=1 WtCom= 1.00D+00 WtEn= 0.00D+00
 Coeff-Com:  0.685D-01-0.108D+00 0.104D+01
 Coeff:      0.685D-01-0.108D+00 0.104D+01
 Gap=     0.232 Goal=   None    Shift=    0.500
 T=  835. Gap= 0.732 NK=0 IS=   58 IE=  332 IFin=   57
          NO(<0.9)=   0  NV(>0.1)=   0     57.00e < EF      0.00e >EF  Err=0.0D+00
 GapD=    0.232 DampG=1.000 DampE=1.000 DampFc=1.0000 IDamp=-1.
 RMSDP=9.87D-04 MaxDP=6.22D-02 DE=-2.92D-02 OVMax= 1.01D-02

 Cycle   4  Pass 1  IDiag  1:
 E= -1258.98158886133     Delta-E=       -0.004928637102 Rises=F Damp=F
 DIIS: error= 1.43D-03 at cycle   4 NSaved=   4.
 NSaved= 4 IEnMin= 4 EnMin= -1258.98158886133     IErMin= 4 ErrMin= 1.43D-03
 ErrMax= 1.43D-03  0.00D+00 EMaxC= 1.00D+00 BMatC= 5.61D-04 BMatP= 4.64D-03
 IDIUse=1 WtCom= 1.00D+00 WtEn= 0.00D+00
 Coeff-Com:  0.693D-03-0.253D-01-0.323D+00 0.135D+01
 Coeff:      0.693D-03-0.253D-01-0.323D+00 0.135D+01
 Gap=     0.236 Goal=   None    Shift=    0.500
 T=  159. Gap= 0.736 NK=0 IS=   58 IE=  332 IFin=   57
          NO(<0.9)=   0  NV(>0.1)=   0     57.00e < EF      0.00e >EF  Err=0.0D+00
 GapD=    0.236 DampG=1.000 DampE=1.000 DampFc=1.0000 IDamp=-1.
 RMSDP=6.01D-04 MaxDP=4.48D-02 DE=-4.93D-03 OVMax= 7.37D-03

 Cycle   5  Pass 1  IDiag  1:
 E= -1258.98256824159     Delta-E=       -0.000979380258 Rises=F Damp=F
 DIIS: error= 1.09D-03 at cycle   5 NSaved=   5.
 NSaved= 5 IEnMin= 5 EnMin= -1258.98256824159     IErMin= 5 ErrMin= 1.09D-03
 ErrMax= 1.09D-03  0.00D+00 EMaxC= 1.00D+00 BMatC= 1.07D-04 BMatP= 5.61D-04
 IDIUse=1 WtCom= 1.00D+00 WtEn= 0.00D+00
 Coeff-Com: -0.793D-02 0.110D-01-0.137D+00-0.301D+00 0.144D+01
 Coeff:     -0.793D-02 0.110D-01-0.137D+00-0.301D+00 0.144D+01
 Gap=     0.237 Goal=   None    Shift=    0.500
 GapD=    0.237 DampG=1.000 DampE=1.000 DampFc=1.0000 IDamp=-1.
 RMSDP=3.26D-04 MaxDP=2.46D-02 DE=-9.79D-04 OVMax= 6.25D-03

 Cycle   6  Pass 1  IDiag  1:
 E= -1258.98289764655     Delta-E=       -0.000329404961 Rises=F Damp=F
 DIIS: error= 8.13D-04 at cycle   6 NSaved=   6.
 NSaved= 6 IEnMin= 6 EnMin= -1258.98289764655     IErMin= 6 ErrMin= 8.13D-04
 ErrMax= 8.13D-04  0.00D+00 EMaxC= 1.00D+00 BMatC= 3.58D-05 BMatP= 1.07D-04
 IDIUse=1 WtCom= 1.00D+00 WtEn= 0.00D+00
 Coeff-Com: -0.482D-02 0.503D-02 0.848D-01-0.589D+00-0.992D-02 0.151D+01
 Coeff:     -0.482D-02 0.503D-02 0.848D-01-0.589D+00-0.992D-02 0.151D+01
 Gap=     0.237 Goal=   None    Shift=    0.500
 RMSDP=1.96D-04 MaxDP=1.46D-02 DE=-3.29D-04 OVMax= 4.60D-03

 Cycle   7  Pass 1  IDiag  1:
 E= -1258.98304588617     Delta-E=       -0.000148239618 Rises=F Damp=F
 DIIS: error= 5.74D-04 at cycle   7 NSaved=   7.
 NSaved= 7 IEnMin= 7 EnMin= -1258.98304588617     IErMin= 7 ErrMin= 5.74D-04
 ErrMax= 5.74D-04  0.00D+00 EMaxC= 1.00D+00 BMatC= 1.25D-05 BMatP= 3.58D-05
 IDIUse=1 WtCom= 1.00D+00 WtEn= 0.00D+00
 Coeff-Com:  0.656D-04-0.368D-02 0.453D-01 0.574D-01-0.547D+00-0.421D+00
 Coeff-Com:  0.187D+01
 Coeff:      0.656D-04-0.368D-02 0.453D-01 0.574D-01-0.547D+00-0.421D+00
 Coeff:      0.187D+01
 Gap=     0.237 Goal=   None    Shift=    0.500
 RMSDP=1.08D-04 MaxDP=6.66D-03 DE=-1.48D-04 OVMax= 3.43D-03

 Cycle   8  Pass 1  IDiag  1:
 E= -1258.98311037913     Delta-E=       -0.000064492964 Rises=F Damp=F
 DIIS: error= 3.91D-04 at cycle   8 NSaved=   8.
 NSaved= 8 IEnMin= 8 EnMin= -1258.98311037913     IErMin= 8 ErrMin= 3.91D-04
 ErrMax= 3.91D-04  0.00D+00 EMaxC= 1.00D+00 BMatC= 5.15D-06 BMatP= 1.25D-05
 IDIUse=1 WtCom= 1.00D+00 WtEn= 0.00D+00
 Coeff-Com:  0.435D-03-0.231D-02-0.261D-01 0.231D+00-0.231D+00-0.514D+00
 Coeff-Com: -0.383D+00 0.193D+01
 Coeff:      0.435D-03-0.231D-02-0.261D-01 0.231D+00-0.231D+00-0.514D+00
 Coeff:     -0.383D+00 0.193D+01
 Gap=     0.238 Goal=   None    Shift=    0.500
 RMSDP=6.11D-05 MaxDP=2.62D-03 DE=-6.45D-05 OVMax= 2.41D-03

 Cycle   9  Pass 1  IDiag  1:
 E= -1258.98313854059     Delta-E=       -0.000028161456 Rises=F Damp=F
 DIIS: error= 2.66D-04 at cycle   9 NSaved=   9.
 NSaved= 9 IEnMin= 9 EnMin= -1258.98313854059     IErMin= 9 ErrMin= 2.66D-04
 ErrMax= 2.66D-04  0.00D+00 EMaxC= 1.00D+00 BMatC= 2.17D-06 BMatP= 5.15D-06
 IDIUse=1 WtCom= 1.00D+00 WtEn= 0.00D+00
 Coeff-Com: -0.224D-03-0.299D-03-0.159D-01 0.279D-01 0.102D+00 0.125D+00
 Coeff-Com: -0.114D+01 0.362D-01 0.187D+01
 Coeff:     -0.224D-03-0.299D-03-0.159D-01 0.279D-01 0.102D+00 0.125D+00
 Coeff:     -0.114D+01 0.362D-01 0.187D+01
 Gap=     0.238 Goal=   None    Shift=    0.500
 RMSDP=3.78D-05 MaxDP=1.29D-03 DE=-2.82D-05 OVMax= 1.67D-03

 Cycle  10  Pass 1  IDiag  1:
 E= -1258.98315057566     Delta-E=       -0.000012035070 Rises=F Damp=F
 DIIS: error= 1.71D-04 at cycle  10 NSaved=  10.
 NSaved=10 IEnMin=10 EnMin= -1258.98315057566     IErMin=10 ErrMin= 1.71D-04
 ErrMax= 1.71D-04  0.00D+00 EMaxC= 1.00D+00 BMatC= 8.89D-07 BMatP= 2.17D-06
 IDIUse=1 WtCom= 1.00D+00 WtEn= 0.00D+00
 Coeff-Com: -0.330D-03 0.277D-03 0.391D-02-0.505D-01 0.912D-01 0.225D+00
 Coeff-Com: -0.466D+00-0.499D+00-0.387D-01 0.173D+01
 Coeff:     -0.330D-03 0.277D-03 0.391D-02-0.505D-01 0.912D-01 0.225D+00
 Coeff:     -0.466D+00-0.499D+00-0.387D-01 0.173D+01
 Gap=     0.238 Goal=   None    Shift=    0.500
 RMSDP=2.33D-05 MaxDP=8.49D-04 DE=-1.20D-05 OVMax= 1.09D-03

 Cycle  11  Pass 1  IDiag  1:
 E= -1258.98315543167     Delta-E=       -0.000004856018 Rises=F Damp=F
 DIIS: error= 1.13D-04 at cycle  11 NSaved=  11.
 NSaved=11 IEnMin=11 EnMin= -1258.98315543167     IErMin=11 ErrMin= 1.13D-04
 ErrMax= 1.13D-04  0.00D+00 EMaxC= 1.00D+00 BMatC= 3.78D-07 BMatP= 8.89D-07
 IDIUse=1 WtCom= 1.00D+00 WtEn= 0.00D+00
 Coeff-Com: -0.159D-03 0.308D-03 0.494D-02-0.940D-02-0.259D-01 0.109D-01
 Coeff-Com:  0.278D+00-0.112D+00-0.105D+01-0.111D+00 0.202D+01
 Coeff:     -0.159D-03 0.308D-03 0.494D-02-0.940D-02-0.259D-01 0.109D-01
 Coeff:      0.278D+00-0.112D+00-0.105D+01-0.111D+00 0.202D+01
 Gap=     0.238 Goal=   None    Shift=    0.500
 RMSDP=1.43D-05 MaxDP=5.55D-04 DE=-4.86D-06 OVMax= 7.11D-04

 Cycle  12  Pass 1  IDiag  1:
 E= -1258.98315740902     Delta-E=       -0.000001977346 Rises=F Damp=F
 DIIS: error= 7.07D-05 at cycle  12 NSaved=  12.
 NSaved=12 IEnMin=12 EnMin= -1258.98315740902     IErMin=12 ErrMin= 7.07D-05
 ErrMax= 7.07D-05  0.00D+00 EMaxC= 1.00D+00 BMatC= 1.60D-07 BMatP= 3.78D-07
 IDIUse=1 WtCom= 1.00D+00 WtEn= 0.00D+00
 Coeff-Com: -0.281D-04 0.167D-04 0.824D-03 0.104D-01-0.350D-01-0.401D-01
 Coeff-Com:  0.200D+00 0.128D+00-0.492D+00-0.543D+00-0.101D+00 0.187D+01
 Coeff:     -0.281D-04 0.167D-04 0.824D-03 0.104D-01-0.350D-01-0.401D-01
 Coeff:      0.200D+00 0.128D+00-0.492D+00-0.543D+00-0.101D+00 0.187D+01
 Gap=     0.238 Goal=   None    Shift=    0.500
 RMSDP=9.00D-06 MaxDP=3.49D-04 DE=-1.98D-06 OVMax= 4.50D-04

 Cycle  13  Pass 1  IDiag  1:
 E= -1258.98315820397     Delta-E=       -0.000000794948 Rises=F Damp=F
 DIIS: error= 4.46D-05 at cycle  13 NSaved=  13.
 NSaved=13 IEnMin=13 EnMin= -1258.98315820397     IErMin=13 ErrMin= 4.46D-05
 ErrMax= 4.46D-05  0.00D+00 EMaxC= 1.00D+00 BMatC= 6.35D-08 BMatP= 1.60D-07
 IDIUse=1 WtCom= 1.00D+00 WtEn= 0.00D+00
 Coeff-Com:  0.340D-05-0.187D-03-0.133D-02 0.502D-02 0.120D-03-0.992D-03
 Coeff-Com: -0.781D-01 0.103D+00 0.254D+00-0.145D+00-0.104D+01-0.246D+00
 Coeff-Com:  0.215D+01
 Coeff:      0.340D-05-0.187D-03-0.133D-02 0.502D-02 0.120D-03-0.992D-03
 Coeff:     -0.781D-01 0.103D+00 0.254D+00-0.145D+00-0.104D+01-0.246D+00
 Coeff:      0.215D+01
 Gap=     0.238 Goal=   None    Shift=    0.500
 RMSDP=5.51D-06 MaxDP=1.98D-04 DE=-7.95D-07 OVMax= 2.76D-04

 Cycle  14  Pass 1  IDiag  1:
 E= -1258.98315851842     Delta-E=       -0.000000314456 Rises=F Damp=F
 DIIS: error= 2.75D-05 at cycle  14 NSaved=  14.
 NSaved=14 IEnMin=14 EnMin= -1258.98315851842     IErMin=14 ErrMin= 2.75D-05
 ErrMax= 2.75D-05  0.00D+00 EMaxC= 1.00D+00 BMatC= 2.74D-08 BMatP= 6.35D-08
 IDIUse=1 WtCom= 1.00D+00 WtEn= 0.00D+00
 Coeff-Com: -0.965D-05-0.447D-04-0.247D-03-0.206D-02 0.906D-02 0.129D-01
 Coeff-Com: -0.577D-01-0.330D-01 0.166D+00 0.169D+00-0.189D+00-0.942D+00
 Coeff-Com: -0.385D+00 0.225D+01
 Coeff:     -0.965D-05-0.447D-04-0.247D-03-0.206D-02 0.906D-02 0.129D-01
 Coeff:     -0.577D-01-0.330D-01 0.166D+00 0.169D+00-0.189D+00-0.942D+00
 Coeff:     -0.385D+00 0.225D+01
 Gap=     0.238 Goal=   None    Shift=    0.500
 RMSDP=3.75D-06 MaxDP=1.31D-04 DE=-3.14D-07 OVMax= 1.83D-04

 Cycle  15  Pass 1  IDiag  1:
 E= -1258.98315864920     Delta-E=       -0.000000130779 Rises=F Damp=F
 DIIS: error= 1.66D-05 at cycle  15 NSaved=  15.
 NSaved=15 IEnMin=15 EnMin= -1258.98315864920     IErMin=15 ErrMin= 1.66D-05
 ErrMax= 1.66D-05  0.00D+00 EMaxC= 1.00D+00 BMatC= 1.14D-08 BMatP= 2.74D-08
 IDIUse=1 WtCom= 1.00D+00 WtEn= 0.00D+00
 Coeff-Com: -0.162D-04 0.369D-04 0.535D-03-0.275D-02 0.276D-02 0.843D-02
 Coeff-Com:  0.591D-02-0.584D-01-0.276D-01 0.155D+00 0.275D+00-0.416D+00
 Coeff-Com: -0.983D+00 0.113D+00 0.193D+01
 Coeff:     -0.162D-04 0.369D-04 0.535D-03-0.275D-02 0.276D-02 0.843D-02
 Coeff:      0.591D-02-0.584D-01-0.276D-01 0.155D+00 0.275D+00-0.416D+00
 Coeff:     -0.983D+00 0.113D+00 0.193D+01
 Gap=     0.238 Goal=   None    Shift=    0.500
 RMSDP=2.51D-06 MaxDP=8.44D-05 DE=-1.31D-07 OVMax= 1.34D-04

 Cycle  16  Pass 1  IDiag  1:
 E= -1258.98315870366     Delta-E=       -0.000000054459 Rises=F Damp=F
 DIIS: error= 1.03D-05 at cycle  16 NSaved=  16.
 NSaved=16 IEnMin=16 EnMin= -1258.98315870366     IErMin=16 ErrMin= 1.03D-05
 ErrMax= 1.03D-05  0.00D+00 EMaxC= 1.00D+00 BMatC= 4.98D-09 BMatP= 1.14D-08
 IDIUse=1 WtCom= 1.00D+00 WtEn= 0.00D+00
 Coeff-Com: -0.703D-06 0.171D-04 0.387D-03-0.697D-03-0.241D-02 0.917D-03
 Coeff-Com:  0.209D-01-0.801D-02-0.592D-01-0.682D-02 0.123D+00 0.262D+00
 Coeff-Com: -0.271D+00-0.111D+01-0.220D+00 0.227D+01
 Coeff:     -0.703D-06 0.171D-04 0.387D-03-0.697D-03-0.241D-02 0.917D-03
 Coeff:      0.209D-01-0.801D-02-0.592D-01-0.682D-02 0.123D+00 0.262D+00
 Coeff:     -0.271D+00-0.111D+01-0.220D+00 0.227D+01
 Gap=     0.238 Goal=   None    Shift=    0.500
 RMSDP=1.80D-06 MaxDP=5.83D-05 DE=-5.45D-08 OVMax= 1.03D-04

 Cycle  17  Pass 1  IDiag  1:
 E= -1258.98315872829     Delta-E=       -0.000000024626 Rises=F Damp=F
 DIIS: error= 6.05D-06 at cycle  17 NSaved=  17.
 NSaved=17 IEnMin=17 EnMin= -1258.98315872829     IErMin=17 ErrMin= 6.05D-06
 ErrMax= 6.05D-06  0.00D+00 EMaxC= 1.00D+00 BMatC= 2.12D-09 BMatP= 4.98D-09
 IDIUse=1 WtCom= 1.00D+00 WtEn= 0.00D+00
 Coeff-Com:  0.454D-05-0.769D-05-0.375D-04 0.758D-03-0.219D-02-0.210D-02
 Coeff-Com:  0.554D-02 0.186D-01-0.115D-01-0.593D-01-0.528D-01 0.293D+00
 Coeff-Com:  0.206D+00-0.590D+00-0.106D+01 0.321D+00 0.193D+01
 Coeff:      0.454D-05-0.769D-05-0.375D-04 0.758D-03-0.219D-02-0.210D-02
 Coeff:      0.554D-02 0.186D-01-0.115D-01-0.593D-01-0.528D-01 0.293D+00
 Coeff:      0.206D+00-0.590D+00-0.106D+01 0.321D+00 0.193D+01
 Gap=     0.238 Goal=   None    Shift=    0.500
 RMSDP=1.25D-06 MaxDP=4.19D-05 DE=-2.46D-08 OVMax= 7.56D-05

 Cycle  18  Pass 1  IDiag  1:
 E= -1258.98315873917     Delta-E=       -0.000000010879 Rises=F Damp=F
 DIIS: error= 3.62D-06 at cycle  18 NSaved=  18.
 NSaved=18 IEnMin=18 EnMin= -1258.98315873917     IErMin=18 ErrMin= 3.62D-06
 ErrMax= 3.62D-06  0.00D+00 EMaxC= 1.00D+00 BMatC= 8.95D-10 BMatP= 2.12D-09
 IDIUse=1 WtCom= 1.00D+00 WtEn= 0.00D+00
 Coeff-Com:  0.394D-06-0.113D-04-0.191D-03 0.687D-03 0.112D-03-0.135D-02
 Coeff-Com: -0.630D-02 0.113D-01 0.202D-01-0.227D-01-0.714D-01 0.303D-01
 Coeff-Com:  0.182D+00 0.206D+00-0.553D+00-0.878D+00 0.173D+00 0.191D+01
 Coeff:      0.394D-06-0.113D-04-0.191D-03 0.687D-03 0.112D-03-0.135D-02
 Coeff:     -0.630D-02 0.113D-01 0.202D-01-0.227D-01-0.714D-01 0.303D-01
 Coeff:      0.182D+00 0.206D+00-0.553D+00-0.878D+00 0.173D+00 0.191D+01
 Gap=     0.238 Goal=   None    Shift=    0.500
 RMSDP=8.79D-07 MaxDP=2.92D-05 DE=-1.09D-08 OVMax= 5.29D-05

 SCF Done:  E(RLC-wHPBE) =  -1258.98315874     A.U. after   18 cycles
            NFock= 18  Conv=0.88D-06     -V/T= 2.0034
 KE= 1.254757387951D+03 PE=-5.047211418769D+03 EE= 1.492828803759D+03
 Leave Link  502 at Mon Jan 25 22:56:37 2021, MaxMem=  4026531840 cpu:            1577.4 elap:             197.4
 (Enter /opt/ohpc/pub/libs/gaussian/g16-A.03/sandybridge/g16/l508.exe)
 QCSCF skips out because SCF is already converged.
 Leave Link  508 at Mon Jan 25 22:56:37 2021, MaxMem=  4026531840 cpu:               0.1 elap:               0.0
 (Enter /opt/ohpc/pub/libs/gaussian/g16-A.03/sandybridge/g16/l601.exe)
 Copying SCF densities to generalized density rwf, IOpCl= 0 IROHF=0.

 **********************************************************************

            Population analysis using the SCF density.

 **********************************************************************

 Orbital symmetries:
       Occupied  (A) (A) (A) (A) (A) (A) (A) (A) (A) (A) (A) (A)
                 (A) (A) (A) (A) (A) (A) (A) (A) (A) (A) (A) (A)
                 (A) (A) (A) (A) (A) (A) (A) (A) (A) (A) (A) (A)
                 (A) (A) (A) (A) (A) (A) (A) (A) (A) (A) (A) (A)
                 (A) (A) (A) (A) (A) (A) (A) (A) (A)
       Virtual   (A) (A) (A) (A) (A) (A) (A) (A) (A) (A) (A) (A)
                 (A) (A) (A) (A) (A) (A) (A) (A) (A) (A) (A) (A)
                 (A) (A) (A) (A) (A) (A) (A) (A) (A) (A) (A) (A)
                 (A) (A) (A) (A) (A) (A) (A) (A) (A) (A) (A) (A)
                 (A) (A) (A) (A) (A) (A) (A) (A) (A) (A) (A) (A)
                 (A) (A) (A) (A) (A) (A) (A) (A) (A) (A) (A) (A)
                 (A) (A) (A) (A) (A) (A) (A) (A) (A) (A) (A) (A)
                 (A) (A) (A) (A) (A) (A) (A) (A) (A) (A) (A) (A)
                 (A) (A) (A) (A) (A) (A) (A) (A) (A) (A) (A) (A)
                 (A) (A) (A) (A) (A) (A) (A) (A) (A) (A) (A) (A)
                 (A) (A) (A) (A) (A) (A) (A) (A) (A) (A) (A) (A)
                 (A) (A) (A) (A) (A) (A) (A) (A) (A) (A) (A) (A)
                 (A) (A) (A) (A) (A) (A) (A) (A) (A) (A) (A) (A)
                 (A) (A) (A) (A) (A) (A) (A) (A) (A) (A) (A) (A)
                 (A) (A) (A) (A) (A) (A) (A) (A) (A) (A) (A) (A)
                 (A) (A) (A) (A) (A) (A) (A) (A) (A) (A) (A) (A)
                 (A) (A) (A) (A) (A) (A) (A) (A) (A) (A) (A) (A)
                 (A) (A) (A) (A) (A) (A) (A) (A) (A) (A) (A) (A)
                 (A) (A) (A) (A) (A) (A) (A) (A) (A) (A) (A) (A)
                 (A) (A) (A) (A) (A) (A) (A) (A) (A) (A) (A) (A)
                 (A) (A) (A) (A) (A) (A) (A) (A) (A) (A) (A) (A)
                 (A) (A) (A) (A) (A) (A) (A) (A) (A) (A) (A) (A)
                 (A) (A) (A) (A) (A) (A) (A) (A) (A) (A) (A)
 The electronic state is 1-A.
 Alpha  occ. eigenvalues --  -88.32162 -88.23007 -10.08995 -10.08796 -10.05539
 Alpha  occ. eigenvalues --  -10.04686 -10.04577 -10.04441 -10.03408 -10.01297
 Alpha  occ. eigenvalues --  -10.00087  -9.99452  -9.98340  -9.94604  -7.91220
 Alpha  occ. eigenvalues --   -7.82264  -5.93158  -5.92993  -5.92290  -5.84428
 Alpha  occ. eigenvalues --   -5.83937  -5.83135  -0.97961  -0.93580  -0.89046
 Alpha  occ. eigenvalues --   -0.87828  -0.83708  -0.79668  -0.78582  -0.76946
 Alpha  occ. eigenvalues --   -0.70997  -0.69146  -0.65874  -0.63843  -0.61461
 Alpha  occ. eigenvalues --   -0.58472  -0.57676  -0.55826  -0.54100  -0.52326
 Alpha  occ. eigenvalues --   -0.51924  -0.49989  -0.49937  -0.47724  -0.46762
 Alpha  occ. eigenvalues --   -0.46502  -0.45359  -0.43989  -0.42529  -0.41010
 Alpha  occ. eigenvalues --   -0.38148  -0.38063  -0.36770  -0.32550  -0.29992
 Alpha  occ. eigenvalues --   -0.29863  -0.23124
 Alpha virt. eigenvalues --    0.00642   0.01948   0.04094   0.05404   0.07683
 Alpha virt. eigenvalues --    0.08873   0.09530   0.10560   0.11822   0.12902
 Alpha virt. eigenvalues --    0.14105   0.14647   0.16701   0.16943   0.17269
 Alpha virt. eigenvalues --    0.18933   0.19031   0.20117   0.21195   0.21695
 Alpha virt. eigenvalues --    0.23835   0.24467   0.24839   0.25894   0.26448
 Alpha virt. eigenvalues --    0.27412   0.27544   0.28728   0.29057   0.29722
 Alpha virt. eigenvalues --    0.30092   0.30507   0.31772   0.32226   0.32581
 Alpha virt. eigenvalues --    0.33218   0.33910   0.34133   0.34574   0.35504
 Alpha virt. eigenvalues --    0.36220   0.36640   0.37820   0.38602   0.39476
 Alpha virt. eigenvalues --    0.40286   0.40931   0.41518   0.41850   0.43540
 Alpha virt. eigenvalues --    0.43948   0.44558   0.44929   0.45327   0.45361
 Alpha virt. eigenvalues --    0.46582   0.47274   0.48028   0.48764   0.49123
 Alpha virt. eigenvalues --    0.49478   0.50316   0.50768   0.51780   0.51944
 Alpha virt. eigenvalues --    0.53040   0.53437   0.54751   0.55286   0.56219
 Alpha virt. eigenvalues --    0.56438   0.56944   0.58594   0.59112   0.59604
 Alpha virt. eigenvalues --    0.60143   0.61339   0.62912   0.63417   0.64918
 Alpha virt. eigenvalues --    0.66290   0.66619   0.68970   0.70425   0.72139
 Alpha virt. eigenvalues --    0.74070   0.75122   0.75711   0.76636   0.77880
 Alpha virt. eigenvalues --    0.78226   0.79892   0.80447   0.81743   0.83544
 Alpha virt. eigenvalues --    0.86195   0.90227   0.91485   0.92284   0.92725
 Alpha virt. eigenvalues --    0.94627   0.95610   0.97922   0.99147   1.00310
 Alpha virt. eigenvalues --    1.08268   1.11108   1.20232   1.23090   1.26185
 Alpha virt. eigenvalues --    1.27828   1.28882   1.29783   1.29817   1.31137
 Alpha virt. eigenvalues --    1.31822   1.32950   1.33784   1.34523   1.34881
 Alpha virt. eigenvalues --    1.36183   1.38385   1.38750   1.38954   1.39636
 Alpha virt. eigenvalues --    1.43031   1.43935   1.44151   1.45140   1.46642
 Alpha virt. eigenvalues --    1.47488   1.47951   1.48112   1.49130   1.51316
 Alpha virt. eigenvalues --    1.51840   1.52082   1.52558   1.52980   1.53812
 Alpha virt. eigenvalues --    1.54536   1.55514   1.56230   1.56674   1.57740
 Alpha virt. eigenvalues --    1.58469   1.59148   1.59406   1.59636   1.61886
 Alpha virt. eigenvalues --    1.62949   1.64735   1.65170   1.66083   1.67751
 Alpha virt. eigenvalues --    1.68748   1.69048   1.72451   1.72824   1.73391
 Alpha virt. eigenvalues --    1.75929   1.76669   1.79420   1.80494   1.80850
 Alpha virt. eigenvalues --    1.82719   1.82967   1.83452   1.84782   1.85149
 Alpha virt. eigenvalues --    1.86620   1.87506   1.89962   1.90878   1.91174
 Alpha virt. eigenvalues --    1.92254   1.93656   1.94132   1.94584   1.95173
 Alpha virt. eigenvalues --    1.95918   1.97599   1.98009   1.99893   2.00916
 Alpha virt. eigenvalues --    2.02923   2.03603   2.04763   2.04970   2.07481
 Alpha virt. eigenvalues --    2.08582   2.10721   2.11935   2.15435   2.17602
 Alpha virt. eigenvalues --    2.19495   2.23133   2.28056   2.28797   2.30810
 Alpha virt. eigenvalues --    2.32146   2.32510   2.33220   2.34032   2.35945
 Alpha virt. eigenvalues --    2.36794   2.37223   2.38742   2.39232   2.39606
 Alpha virt. eigenvalues --    2.40998   2.42461   2.44944   2.47051   2.49836
 Alpha virt. eigenvalues --    2.51078   2.52012   2.54252   2.54463   2.57214
 Alpha virt. eigenvalues --    2.58491   2.60266   2.60655   2.63556   2.65072
 Alpha virt. eigenvalues --    2.65717   2.66972   2.67201   2.68587   2.70353
 Alpha virt. eigenvalues --    2.72004   2.72949   2.73909   2.74647   2.76357
 Alpha virt. eigenvalues --    2.82020   2.84138   2.84668   2.88626   2.97075
 Alpha virt. eigenvalues --    3.00096   3.04154   3.07997   3.11457   3.13342
 Alpha virt. eigenvalues --    3.13971   3.14517   3.16165   3.18340   3.19591
 Alpha virt. eigenvalues --    3.21074   3.23760   3.29845   3.31164   3.37300
 Alpha virt. eigenvalues --    3.39179   3.41008   3.55674   3.58808   3.73320
 Alpha virt. eigenvalues --    3.74676  18.96840  19.07308  21.06988  21.35044
 Alpha virt. eigenvalues --   21.62194  21.70420  21.72396  21.75507  21.92109
 Alpha virt. eigenvalues --   21.93931  21.96438  22.01796  22.10474  22.14864
          Condensed to atoms (all electrons):
               1          2          3          4          5          6
     1  C    6.350627  -0.384042  -0.107288   0.343817  -0.006010  -0.028740
     2  C   -0.384042   6.421376   0.461669  -0.442021  -0.027728   0.029039
     3  S   -0.107288   0.461669  15.475109  -0.160231   0.012234  -0.059186
     4  C    0.343817  -0.442021  -0.160231   6.541462  -0.042970  -0.021054
     5  C   -0.006010  -0.027728   0.012234  -0.042970   7.098881  -0.067218
     6  C   -0.028740   0.029039  -0.059186  -0.021054  -0.067218   5.926278
     7  C   -0.400791   0.366285   0.059005  -0.340703   0.002740   0.006213
     8  C   -0.443742   0.128448   0.029123  -0.244101   0.020814   0.000659
     9  H   -0.003139   0.015847   0.005079  -0.024123  -0.062270   0.012829
    10  C   -0.005657   0.030718  -0.017174  -0.022947  -0.735503   0.186740
    11  C    0.002091   0.003057   0.019610  -0.004800   0.114808   0.355000
    12  C   -0.000793   0.001089  -0.011131  -0.002532  -0.453377   0.129725
    13  C    0.000435  -0.000518   0.016923   0.002025   0.251060  -0.116694
    14  H    0.000020   0.000343  -0.000686  -0.000391  -0.068644   0.002919
    15  H    0.000161  -0.000138  -0.000462   0.000146   0.038524  -0.084209
    16  H    0.000003  -0.000058  -0.000428   0.000040   0.004460   0.012851
    17  H    0.000000   0.000015   0.000198  -0.000002   0.025184  -0.000151
    18  C    0.355519  -0.340347  -0.011229   0.264477  -0.005208  -0.007540
    19  H    0.464340  -0.113579  -0.013020   0.035064   0.000087  -0.000683
    20  H   -0.050989  -0.006601   0.305077   0.006917   0.000529   0.004939
    21  H   -0.060877   0.023391  -0.000037  -0.004725   0.000008   0.000031
    22  H   -0.005625   0.033921   0.000063  -0.079376   0.002119   0.000507
    23  H    0.023838  -0.004704  -0.000052   0.027470  -0.000028  -0.000040
    24  S    0.029651  -0.211881  -0.008543   0.374974   0.248817  -0.104356
               7          8          9         10         11         12
     1  C   -0.400791  -0.443742  -0.003139  -0.005657   0.002091  -0.000793
     2  C    0.366285   0.128448   0.015847   0.030718   0.003057   0.001089
     3  S    0.059005   0.029123   0.005079  -0.017174   0.019610  -0.011131
     4  C   -0.340703  -0.244101  -0.024123  -0.022947  -0.004800  -0.002532
     5  C    0.002740   0.020814  -0.062270  -0.735503   0.114808  -0.453377
     6  C    0.006213   0.000659   0.012829   0.186740   0.355000   0.129725
     7  C    5.679567   0.312068   0.000953   0.000845  -0.000549   0.000111
     8  C    0.312068   5.901258  -0.013474  -0.006849  -0.002267  -0.000077
     9  H    0.000953  -0.013474   0.635759   0.043147  -0.001060   0.001221
    10  C    0.000845  -0.006849   0.043147   6.463179  -0.373866   0.365448
    11  C   -0.000549  -0.002267  -0.001060  -0.373866   5.330932   0.098933
    12  C    0.000111  -0.000077   0.001221   0.365448   0.098933   5.590727
    13  C   -0.000075   0.000415  -0.000049   0.062176   0.189092   0.157650
    14  H   -0.000003  -0.000168  -0.000535   0.375917  -0.000312   0.009238
    15  H   -0.000022  -0.000054  -0.000021  -0.009012   0.449745  -0.142393
    16  H    0.000000   0.000001  -0.000011   0.009285  -0.040169   0.394297
    17  H   -0.000000  -0.000001  -0.000029  -0.068321   0.012302  -0.054627
    18  C    0.103431   0.054169  -0.004146  -0.001099   0.000429  -0.000070
    19  H   -0.065494  -0.007291  -0.000037  -0.000080   0.000051  -0.000030
    20  H    0.005937   0.002373   0.000249   0.001022  -0.000537   0.000602
    21  H    0.425305   0.022188   0.000006   0.000002  -0.000001   0.000000
    22  H    0.015113   0.395037   0.000874   0.000306  -0.000035   0.000006
    23  H   -0.070537  -0.078836  -0.000017  -0.000003   0.000001  -0.000000
    24  S   -0.004871  -0.004046   0.279923  -0.317470   0.025904  -0.015649
              13         14         15         16         17         18
     1  C    0.000435   0.000020   0.000161   0.000003   0.000000   0.355519
     2  C   -0.000518   0.000343  -0.000138  -0.000058   0.000015  -0.340347
     3  S    0.016923  -0.000686  -0.000462  -0.000428   0.000198  -0.011229
     4  C    0.002025  -0.000391   0.000146   0.000040  -0.000002   0.264477
     5  C    0.251060  -0.068644   0.038524   0.004460   0.025184  -0.005208
     6  C   -0.116694   0.002919  -0.084209   0.012851  -0.000151  -0.007540
     7  C   -0.000075  -0.000003  -0.000022   0.000000  -0.000000   0.103431
     8  C    0.000415  -0.000168  -0.000054   0.000001  -0.000001   0.054169
     9  H   -0.000049  -0.000535  -0.000021  -0.000011  -0.000029  -0.004146
    10  C    0.062176   0.375917  -0.009012   0.009285  -0.068321  -0.001099
    11  C    0.189092  -0.000312   0.449745  -0.040169   0.012302   0.000429
    12  C    0.157650   0.009238  -0.142393   0.394297  -0.054627  -0.000070
    13  C    5.209565  -0.002865   0.022994  -0.057552   0.416174   0.000052
    14  H   -0.002865   0.589172   0.000133  -0.000208  -0.007870   0.000022
    15  H    0.022994   0.000133   0.637876  -0.006801  -0.000273   0.000017
    16  H   -0.057552  -0.000208  -0.006801   0.592692  -0.006670   0.000000
    17  H    0.416174  -0.007870  -0.000273  -0.006670   0.581771   0.000000
    18  C    0.000052   0.000022   0.000017   0.000000   0.000000   5.345991
    19  H    0.000014  -0.000000   0.000007   0.000000  -0.000000   0.020984
    20  H   -0.000749  -0.000067  -0.000056  -0.000004   0.000002  -0.001854
    21  H   -0.000000  -0.000000  -0.000000  -0.000000  -0.000000  -0.067262
    22  H   -0.000002  -0.000004  -0.000001  -0.000000  -0.000000  -0.038225
    23  H    0.000000   0.000000   0.000000   0.000000   0.000000   0.440073
    24  S    0.040486  -0.004417  -0.000078   0.000140  -0.000217   0.010364
              19         20         21         22         23         24
     1  C    0.464340  -0.050989  -0.060877  -0.005625   0.023838   0.029651
     2  C   -0.113579  -0.006601   0.023391   0.033921  -0.004704  -0.211881
     3  S   -0.013020   0.305077  -0.000037   0.000063  -0.000052  -0.008543
     4  C    0.035064   0.006917  -0.004725  -0.079376   0.027470   0.374974
     5  C    0.000087   0.000529   0.000008   0.002119  -0.000028   0.248817
     6  C   -0.000683   0.004939   0.000031   0.000507  -0.000040  -0.104356
     7  C   -0.065494   0.005937   0.425305   0.015113  -0.070537  -0.004871
     8  C   -0.007291   0.002373   0.022188   0.395037  -0.078836  -0.004046
     9  H   -0.000037   0.000249   0.000006   0.000874  -0.000017   0.279923
    10  C   -0.000080   0.001022   0.000002   0.000306  -0.000003  -0.317470
    11  C    0.000051  -0.000537  -0.000001  -0.000035   0.000001   0.025904
    12  C   -0.000030   0.000602   0.000000   0.000006  -0.000000  -0.015649
    13  C    0.000014  -0.000749  -0.000000  -0.000002   0.000000   0.040486
    14  H   -0.000000  -0.000067  -0.000000  -0.000004   0.000000  -0.004417
    15  H    0.000007  -0.000056  -0.000000  -0.000001   0.000000  -0.000078
    16  H    0.000000  -0.000004  -0.000000  -0.000000   0.000000   0.000140
    17  H   -0.000000   0.000002  -0.000000  -0.000000   0.000000  -0.000217
    18  C    0.020984  -0.001854  -0.067262  -0.038225   0.440073   0.010364
    19  H    0.550407  -0.004205  -0.008205  -0.000066  -0.000154   0.000110
    20  H   -0.004205   0.652417   0.000065   0.000020  -0.000009  -0.000733
    21  H   -0.008205   0.000065   0.552731  -0.000157  -0.007991   0.000032
    22  H   -0.000066   0.000020  -0.000157   0.528782  -0.007368   0.003714
    23  H   -0.000154  -0.000009  -0.007991  -0.007368   0.554882  -0.000596
    24  S    0.000110  -0.000733   0.000032   0.003714  -0.000596  15.318734
 Mulliken charges:
               1
     1  C   -0.072807
     2  C    0.016420
     3  S    0.005376
     4  C   -0.206414
     5  C   -0.351310
     6  C   -0.177859
     7  C   -0.094528
     8  C   -0.065648
     9  H    0.113025
    10  C    0.019197
    11  C   -0.178357
    12  C   -0.068366
    13  C   -0.190555
    14  H    0.108405
    15  H    0.093915
    16  H    0.098131
    17  H    0.102514
    18  C   -0.118547
    19  H    0.141780
    20  H    0.085656
    21  H    0.125495
    22  H    0.150399
    23  H    0.124071
    24  S    0.340007
 Sum of Mulliken charges =  -0.00000
 Mulliken charges with hydrogens summed into heavy atoms:
               1
     1  C    0.068973
     2  C    0.016420
     3  S    0.091032
     4  C   -0.206414
     5  C   -0.351310
     6  C   -0.177859
     7  C    0.030967
     8  C    0.084751
    10  C    0.127602
    11  C   -0.084442
    12  C    0.029765
    13  C   -0.088041
    18  C    0.005524
    24  S    0.453032
 Electronic spatial extent (au):  <R**2>=           3317.8967
 Charge=              0.0000 electrons
 Dipole moment (field-independent basis, Debye):
    X=              4.6642    Y=             -0.9340    Z=             -4.5045  Tot=              6.5511
 Quadrupole moment (field-independent basis, Debye-Ang):
   XX=            -86.1215   YY=            -86.9634   ZZ=           -101.0006
   XY=             -1.1463   XZ=              5.4440   YZ=              2.5687
 Traceless Quadrupole moment (field-independent basis, Debye-Ang):
   XX=              5.2403   YY=              4.3984   ZZ=             -9.6388
   XY=             -1.1463   XZ=              5.4440   YZ=              2.5687
 Octapole moment (field-independent basis, Debye-Ang**2):
  XXX=             54.9443  YYY=              1.4559  ZZZ=            -25.3273  XYY=             21.7638
  XXY=             14.5904  XXZ=              0.7683  XZZ=             -1.9489  YZZ=              0.3924
  YYZ=            -14.6898  XYZ=            -10.2188
 Hexadecapole moment (field-independent basis, Debye-Ang**3):
 XXXX=          -3061.1379 YYYY=           -866.2742 ZZZZ=           -432.0817 XXXY=            -49.0137
 XXXZ=             91.7801 YYYX=              4.8405 YYYZ=            -13.6128 ZZZX=             16.1880
 ZZZY=             19.2685 XXYY=           -673.9807 XXZZ=           -646.2043 YYZZ=           -206.5412
 XXYZ=             10.3854 YYXZ=              5.0491 ZZXY=             -5.8820
 N-N= 1.040642068320D+03 E-N=-5.047211509238D+03  KE= 1.254757387951D+03
 No NMR shielding tensors so no spin-rotation constants.
 Leave Link  601 at Mon Jan 25 22:56:38 2021, MaxMem=  4026531840 cpu:               1.6 elap:               0.2
 (Enter /opt/ohpc/pub/libs/gaussian/g16-A.03/sandybridge/g16/l9999.exe)

 Test job not archived.
 1\1\GINC-CNODE146\SP\RLC-wHPBE\TZVP\C12H10S2\RDU230\25-Jan-2021\0\\#P 
 LC-wHPBE/TZVP iop(3/107=0236300000, 3/108=0236300000) scf=(conver=6,fe
 rmi,ndamp=35,noincfock,novaracc,vshift=500,xqc)\\H10 C12 S2\\0,1\C,0,-
 2.574063,-1.434391,-0.049117\C,0,-1.368901,-0.745264,-0.216328\S,0,0.0
 93606,-1.678504,-0.585022\C,0,-1.397687,0.626896,-0.046009\C,0,1.50039
 5,0.811934,0.077279\C,0,1.478004,0.220423,1.307027\C,0,-3.746915,-0.78
 3096,0.229547\C,0,-2.584351,1.293751,0.256604\H,0,-0.039943,1.860892,-
 1.547006\C,0,2.473105,0.786527,-0.925649\C,0,2.645316,-0.559969,1.4924
 38\C,0,3.655495,-0.649979,0.563531\C,0,3.583956,0.035098,-0.656753\H,0
 ,2.357645,1.302286,-1.874829\H,0,2.763398,-1.119309,2.419207\H,0,4.527
 775,-1.262476,0.773175\H,0,4.391412,-0.038194,-1.378729\C,0,-3.759914,
 0.597536,0.384558\H,0,-2.557315,-2.514169,-0.13851\H,0,-0.525974,-2.52
 8359,-1.4318\H,0,-4.665467,-1.345208,0.349638\H,0,-2.558102,2.368477,0
 .406674\H,0,-4.681894,1.115025,0.619767\S,0,0.004008,1.738768,-0.20875
 \\Version=EM64L-G16RevA.03\State=1-A\HF=-1258.9831587\RMSD=8.785e-07\D
 ipole=-1.8350311,0.3674824,-1.7722031\Quadrupole=3.8960652,3.2701102,-
 7.1661754,-0.8522671,-4.0475176,-1.9097929\PG=C01 [X(C12H10S2)]\\@


 Change starts when someone sees the next step.
                            -- William Drayton
 Job cpu time:       0 days  0 hours 26 minutes 46.5 seconds.
 Elapsed time:       0 days  0 hours  3 minutes 21.3 seconds.
 File lengths (MBytes):  RWF=     92 Int=      0 D2E=      0 Chk=     12 Scr=      8
 Normal termination of Gaussian 16 at Mon Jan 25 22:56:38 2021.
