 Entering Gaussian System, Link 0=g16
 Input=mol_ta_NN_frag_tune_n5.gjf
 Output=mol_ta_NN_frag_tune_n5.log
 Initial command:
 /opt/ohpc/pub/libs/gaussian/g16-A.03/sandybridge/g16/l1.exe "/mnt/gpfs2_4m/scratch/rdu230/ondemand/projects/init_structures/gaussian/wtuning/mol_ta_NN_frag/tuning_mol_ta_NN_frag_ocycle0/Gau-24854.inp" -scrdir="/mnt/gpfs2_4m/scratch/rdu230/ondemand/projects/init_structures/gaussian/wtuning/mol_ta_NN_frag/tuning_mol_ta_NN_frag_ocycle0/"
 Entering Link 1 = /opt/ohpc/pub/libs/gaussian/g16-A.03/sandybridge/g16/l1.exe PID=     24855.
  
 Copyright (c) 1988,1990,1992,1993,1995,1998,2003,2009,2016,
            Gaussian, Inc.  All Rights Reserved.
  
 This is part of the Gaussian(R) 16 program.  It is based on
 the Gaussian(R) 09 system (copyright 2009, Gaussian, Inc.),
 the Gaussian(R) 03 system (copyright 2003, Gaussian, Inc.),
 the Gaussian(R) 98 system (copyright 1998, Gaussian, Inc.),
 the Gaussian(R) 94 system (copyright 1995, Gaussian, Inc.),
 the Gaussian 92(TM) system (copyright 1992, Gaussian, Inc.),
 the Gaussian 90(TM) system (copyright 1990, Gaussian, Inc.),
 the Gaussian 88(TM) system (copyright 1988, Gaussian, Inc.),
 the Gaussian 86(TM) system (copyright 1986, Carnegie Mellon
 University), and the Gaussian 82(TM) system (copyright 1983,
 Carnegie Mellon University). Gaussian is a federally registered
 trademark of Gaussian, Inc.
  
 This software contains proprietary and confidential information,
 including trade secrets, belonging to Gaussian, Inc.
  
 This software is provided under written license and may be
 used, copied, transmitted, or stored only in accord with that
 written license.
  
 The following legend is applicable only to US Government
 contracts under FAR:
  
                    RESTRICTED RIGHTS LEGEND
  
 Use, reproduction and disclosure by the US Government is
 subject to restrictions as set forth in subparagraphs (a)
 and (c) of the Commercial Computer Software - Restricted
 Rights clause in FAR 52.227-19.
  
 Gaussian, Inc.
 340 Quinnipiac St., Bldg. 40, Wallingford CT 06492
  
  
 ---------------------------------------------------------------
 Warning -- This program may not be used in any manner that
 competes with the business of Gaussian, Inc. or will provide
 assistance to any competitor of Gaussian, Inc.  The licensee
 of this program is prohibited from giving any competitor of
 Gaussian, Inc. access to this program.  By using this program,
 the user acknowledges that Gaussian, Inc. is engaged in the
 business of creating and licensing software in the field of
 computational chemistry and represents and warrants to the
 licensee that it is not a competitor of Gaussian, Inc. and that
 it will not use this program in any manner prohibited above.
 ---------------------------------------------------------------
  

 Cite this work as:
 Gaussian 16, Revision A.03,
 M. J. Frisch, G. W. Trucks, H. B. Schlegel, G. E. Scuseria, 
 M. A. Robb, J. R. Cheeseman, G. Scalmani, V. Barone, 
 G. A. Petersson, H. Nakatsuji, X. Li, M. Caricato, A. V. Marenich, 
 J. Bloino, B. G. Janesko, R. Gomperts, B. Mennucci, H. P. Hratchian, 
 J. V. Ortiz, A. F. Izmaylov, J. L. Sonnenberg, D. Williams-Young, 
 F. Ding, F. Lipparini, F. Egidi, J. Goings, B. Peng, A. Petrone, 
 T. Henderson, D. Ranasinghe, V. G. Zakrzewski, J. Gao, N. Rega, 
 G. Zheng, W. Liang, M. Hada, M. Ehara, K. Toyota, R. Fukuda, 
 J. Hasegawa, M. Ishida, T. Nakajima, Y. Honda, O. Kitao, H. Nakai, 
 T. Vreven, K. Throssell, J. A. Montgomery, Jr., J. E. Peralta, 
 F. Ogliaro, M. J. Bearpark, J. J. Heyd, E. N. Brothers, K. N. Kudin, 
 V. N. Staroverov, T. A. Keith, R. Kobayashi, J. Normand, 
 K. Raghavachari, A. P. Rendell, J. C. Burant, S. S. Iyengar, 
 J. Tomasi, M. Cossi, J. M. Millam, M. Klene, C. Adamo, R. Cammi, 
 J. W. Ochterski, R. L. Martin, K. Morokuma, O. Farkas, 
 J. B. Foresman, and D. J. Fox, Gaussian, Inc., Wallingford CT, 2016.
 
 ******************************************
 Gaussian 16:  EM64L-G16RevA.03 25-Dec-2016
                25-Jan-2021 
 ******************************************
 %mem=30GB
 %nproc=8
 Will use up to    8 processors via shared memory.
 ----------------------------------------------------------------------
 #P LC-wHPBE/TZVP iop(3/107=0221200000, 3/108=0221200000) scf=(conver=6
 ,fermi,ndamp=35,noincfock,novaracc,vshift=500,xqc)
 ----------------------------------------------------------------------
 1/38=1,172=1/1;
 2/12=2,17=6,18=5,40=1/2;
 3/5=19,7=101,11=2,25=1,30=1,74=-71,107=221200000,108=221200000/1,2,3;
 4//1;
 5/5=100002,6=6,8=3,10=500,13=1,18=-1,22=13,38=1,93=35/2,8;
 6/7=2,8=2,9=2,10=2,28=1/1;
 99/5=1,9=1/99;
 Leave Link    1 at Mon Jan 25 23:28:25 2021, MaxMem=  4026531840 cpu:               1.2 elap:               0.2
 (Enter /opt/ohpc/pub/libs/gaussian/g16-A.03/sandybridge/g16/l101.exe)
 ----------
 H10 C12 S2
 ----------
 Symbolic Z-matrix:
 Charge =  0 Multiplicity = 1
 C                    -2.57406  -1.43439  -0.04912 
 C                    -1.3689   -0.74526  -0.21633 
 S                     0.09361  -1.6785   -0.58502 
 C                    -1.39769   0.6269   -0.04601 
 C                     1.5004    0.81193   0.07728 
 C                     1.478     0.22042   1.30703 
 C                    -3.74692  -0.7831    0.22955 
 C                    -2.58435   1.29375   0.2566 
 H                    -0.03994   1.86089  -1.54701 
 C                     2.47311   0.78653  -0.92565 
 C                     2.64532  -0.55997   1.49244 
 C                     3.6555   -0.64998   0.56353 
 C                     3.58396   0.0351   -0.65675 
 H                     2.35765   1.30229  -1.87483 
 H                     2.7634   -1.11931   2.41921 
 H                     4.52778  -1.26248   0.77318 
 H                     4.39141  -0.03819  -1.37873 
 C                    -3.75991   0.59754   0.38456 
 H                    -2.55732  -2.51417  -0.13851 
 H                    -0.52597  -2.52836  -1.4318 
 H                    -4.66547  -1.34521   0.34964 
 H                    -2.5581    2.36848   0.40667 
 H                    -4.68189   1.11503   0.61977 
 S                     0.00401   1.73877  -0.20875 
 
 ITRead=  0  0  0  0  0  0  0  0  0  0  0  0  0  0  0  0  0  0  0  0
 ITRead=  0  0  0  0
 MicOpt= -1 -1 -1 -1 -1 -1 -1 -1 -1 -1 -1 -1 -1 -1 -1 -1 -1 -1 -1 -1
 MicOpt= -1 -1 -1 -1
 NAtoms=     24 NQM=       24 NQMF=       0 NMMI=      0 NMMIF=      0
                NMic=       0 NMicF=      0.
                    Isotopes and Nuclear Properties:
 (Nuclear quadrupole moments (NQMom) in fm**2, nuclear magnetic moments (NMagM)
  in nuclear magnetons)

  Atom         1           2           3           4           5           6           7           8           9          10
 IAtWgt=          12          12          32          12          12          12          12          12           1          12
 AtmWgt=  12.0000000  12.0000000  31.9720718  12.0000000  12.0000000  12.0000000  12.0000000  12.0000000   1.0078250  12.0000000
 NucSpn=           0           0           0           0           0           0           0           0           1           0
 AtZEff=  -0.0000000  -0.0000000  -0.0000000  -0.0000000  -0.0000000  -0.0000000  -0.0000000  -0.0000000  -0.0000000  -0.0000000
 NQMom=    0.0000000   0.0000000   0.0000000   0.0000000   0.0000000   0.0000000   0.0000000   0.0000000   0.0000000   0.0000000
 NMagM=    0.0000000   0.0000000   0.0000000   0.0000000   0.0000000   0.0000000   0.0000000   0.0000000   2.7928460   0.0000000
 AtZNuc=   6.0000000   6.0000000  16.0000000   6.0000000   6.0000000   6.0000000   6.0000000   6.0000000   1.0000000   6.0000000

  Atom        11          12          13          14          15          16          17          18          19          20
 IAtWgt=          12          12          12           1           1           1           1          12           1           1
 AtmWgt=  12.0000000  12.0000000  12.0000000   1.0078250   1.0078250   1.0078250   1.0078250  12.0000000   1.0078250   1.0078250
 NucSpn=           0           0           0           1           1           1           1           0           1           1
 AtZEff=  -0.0000000  -0.0000000  -0.0000000  -0.0000000  -0.0000000  -0.0000000  -0.0000000  -0.0000000  -0.0000000  -0.0000000
 NQMom=    0.0000000   0.0000000   0.0000000   0.0000000   0.0000000   0.0000000   0.0000000   0.0000000   0.0000000   0.0000000
 NMagM=    0.0000000   0.0000000   0.0000000   2.7928460   2.7928460   2.7928460   2.7928460   0.0000000   2.7928460   2.7928460
 AtZNuc=   6.0000000   6.0000000   6.0000000   1.0000000   1.0000000   1.0000000   1.0000000   6.0000000   1.0000000   1.0000000

  Atom        21          22          23          24
 IAtWgt=           1           1           1          32
 AtmWgt=   1.0078250   1.0078250   1.0078250  31.9720718
 NucSpn=           1           1           1           0
 AtZEff=  -0.0000000  -0.0000000  -0.0000000  -0.0000000
 NQMom=    0.0000000   0.0000000   0.0000000   0.0000000
 NMagM=    2.7928460   2.7928460   2.7928460   0.0000000
 AtZNuc=   1.0000000   1.0000000   1.0000000  16.0000000
 Leave Link  101 at Mon Jan 25 23:28:26 2021, MaxMem=  4026531840 cpu:               0.6 elap:               0.1
 (Enter /opt/ohpc/pub/libs/gaussian/g16-A.03/sandybridge/g16/l202.exe)
                          Input orientation:                          
 ---------------------------------------------------------------------
 Center     Atomic      Atomic             Coordinates (Angstroms)
 Number     Number       Type             X           Y           Z
 ---------------------------------------------------------------------
      1          6           0       -2.574063   -1.434391   -0.049117
      2          6           0       -1.368901   -0.745264   -0.216328
      3         16           0        0.093606   -1.678504   -0.585022
      4          6           0       -1.397687    0.626896   -0.046009
      5          6           0        1.500395    0.811934    0.077279
      6          6           0        1.478004    0.220423    1.307027
      7          6           0       -3.746915   -0.783096    0.229547
      8          6           0       -2.584351    1.293751    0.256604
      9          1           0       -0.039943    1.860892   -1.547006
     10          6           0        2.473105    0.786527   -0.925649
     11          6           0        2.645316   -0.559969    1.492438
     12          6           0        3.655495   -0.649979    0.563531
     13          6           0        3.583956    0.035098   -0.656753
     14          1           0        2.357645    1.302286   -1.874829
     15          1           0        2.763398   -1.119309    2.419207
     16          1           0        4.527775   -1.262476    0.773175
     17          1           0        4.391412   -0.038194   -1.378729
     18          6           0       -3.759914    0.597536    0.384558
     19          1           0       -2.557315   -2.514169   -0.138510
     20          1           0       -0.525974   -2.528359   -1.431800
     21          1           0       -4.665467   -1.345208    0.349638
     22          1           0       -2.558102    2.368477    0.406674
     23          1           0       -4.681894    1.115025    0.619767
     24         16           0        0.004008    1.738768   -0.208750
 ---------------------------------------------------------------------
                    Distance matrix (angstroms):
                    1          2          3          4          5
     1  C    0.000000
     2  C    1.398310   0.000000
     3  S    2.731894   1.773640   0.000000
     4  C    2.373347   1.382990   2.798099   0.000000
     5  C    4.654370   3.277793   2.935980   2.906599   0.000000
     6  C    4.582225   3.370168   3.017007   3.203986   1.364796
     7  C    1.370190   2.419749   4.026770   2.753703   5.486490
     8  C    2.745238   2.420447   4.088287   1.394432   4.116972
     9  H    4.418634   3.213858   3.670228   2.370487   2.472095
    10  C    5.583430   4.196490   3.443025   3.972692   1.397381
    11  C    5.512071   4.366710   3.475368   4.485682   2.279394
    12  C    6.308568   5.085451   3.881249   5.247532   2.649167
    13  C    6.360017   5.033263   3.888974   5.053712   2.341688
    14  H    5.928269   4.564015   3.959114   4.231224   2.187704
    15  H    5.889006   4.915470   4.057817   5.142096   3.287781
    16  H    7.151351   6.001451   4.656139   6.273108   3.735302
    17  H    7.227384   5.918812   4.668161   5.977638   3.346738
    18  C    2.392288   2.807333   4.579308   2.401326   5.273636
    19  H    1.083601   2.132465   2.815154   3.349565   5.251146
    20  H    2.702452   2.316749   1.350247   3.554706   4.188203
    21  H    2.130946   3.398176   4.861425   3.837202   6.537989
    22  H    3.830118   3.390828   4.938934   2.141165   4.359212
    23  H    3.374890   3.890457   5.662219   3.386376   6.213441
    24  S    4.091561   2.838195   3.439092   1.796522   1.783258
                    6          7          8          9         10
     6  C    0.000000
     7  C    5.428424   0.000000
     8  C    4.331068   2.380248   0.000000
     9  H    3.625025   4.887582   3.169964   0.000000
    10  C    2.509092   6.518193   5.218511   2.802812   0.000000
    11  C    1.416335   6.519609   5.684451   4.723283   2.773058
    12  C    2.460051   7.411136   6.542780   4.941164   2.383118
    13  C    2.885448   7.429444   6.361324   4.154361   1.367823
    14  H    3.473961   6.785490   5.382045   2.483533   1.086407
    15  H    2.164270   6.876905   6.252850   5.698348   3.860640
    16  H    3.432942   8.306373   7.575188   6.000226   3.362452
    17  H    3.970908   8.329093   7.287638   4.824080   2.136667
    18  C    5.331880   1.389368   1.372238   4.377807   6.372039
    19  H    5.084424   2.132423   3.828459   5.240437   6.067892
    20  H    4.367254   4.022496   4.657912   4.417581   4.498792
    21  H    6.411710   1.083573   3.362113   5.939007   7.558430
    22  H    4.659927   3.372990   1.085470   3.227326   5.439733
    23  H    6.262346   2.151586   2.136239   5.176768   7.327362
    24  S    2.603001   4.541071   2.667245   1.344535   2.741742
                   11         12         13         14         15
    11  C    0.000000
    12  C    1.375293   0.000000
    13  C    2.419540   1.401264   0.000000
    14  H    3.858657   3.382507   2.143202   0.000000
    15  H    1.088901   2.111786   3.386370   4.946464   0.000000
    16  H    2.134129   1.086267   2.149229   4.277779   2.417218
    17  H    3.400691   2.165232   1.085636   2.485802   4.271248
    18  C    6.602589   7.521743   7.438622   6.559423   7.045634
    19  H    5.791913   6.524345   6.669524   6.460415   6.066097
    20  H    4.741604   4.999434   4.905460   4.815119   5.256962
    21  H    7.441111   8.352694   8.424432   7.828255   7.715062
    22  H    6.068792   6.909737   6.655855   5.523277   6.673328
    23  H    7.566714   8.522350   8.433269   7.470822   7.978885
    24  S    3.892909   4.431240   3.989890   2.916495   4.763297
                   16         17         18         19         20
    16  H    0.000000
    17  H    2.479547   0.000000
    18  C    8.502732   8.364057   0.000000
    19  H    7.252338   7.480201   3.376767   0.000000
    20  H    5.657274   5.512207   4.850644   2.408142   0.000000
    21  H    9.203365   9.312497   2.143712   2.459484   4.659267
    22  H    7.970433   7.568056   2.140344   4.912989   5.611464
    23  H    9.512836   9.362093   1.083128   4.273157   5.895324
    24  S    5.516893   4.876039   3.977629   4.965157   4.470470
                   21         22         23         24
    21  H    0.000000
    22  H    4.270327   0.000000
    23  H    2.475073   2.475286   0.000000
    24  S    5.623762   2.709186   4.799289   0.000000
 Stoichiometry    C12H10S2
 Framework group  C1[X(C12H10S2)]
 Deg. of freedom    66
 Full point group                 C1      NOp   1
 Largest Abelian subgroup         C1      NOp   1
 Largest concise Abelian subgroup C1      NOp   1
                         Standard orientation:                         
 ---------------------------------------------------------------------
 Center     Atomic      Atomic             Coordinates (Angstroms)
 Number     Number       Type             X           Y           Z
 ---------------------------------------------------------------------
      1          6           0        2.574063    1.434391   -0.049117
      2          6           0        1.368901    0.745264   -0.216328
      3         16           0       -0.093606    1.678504   -0.585022
      4          6           0        1.397687   -0.626896   -0.046009
      5          6           0       -1.500395   -0.811934    0.077279
      6          6           0       -1.478004   -0.220423    1.307027
      7          6           0        3.746915    0.783096    0.229547
      8          6           0        2.584351   -1.293751    0.256604
      9          1           0        0.039943   -1.860892   -1.547006
     10          6           0       -2.473105   -0.786527   -0.925649
     11          6           0       -2.645316    0.559969    1.492438
     12          6           0       -3.655495    0.649979    0.563531
     13          6           0       -3.583956   -0.035098   -0.656753
     14          1           0       -2.357645   -1.302286   -1.874829
     15          1           0       -2.763398    1.119309    2.419207
     16          1           0       -4.527775    1.262476    0.773175
     17          1           0       -4.391412    0.038194   -1.378729
     18          6           0        3.759914   -0.597536    0.384558
     19          1           0        2.557315    2.514169   -0.138510
     20          1           0        0.525974    2.528359   -1.431800
     21          1           0        4.665467    1.345208    0.349638
     22          1           0        2.558102   -2.368477    0.406674
     23          1           0        4.681894   -1.115025    0.619767
     24         16           0       -0.004008   -1.738768   -0.208750
 ---------------------------------------------------------------------
 Rotational constants (GHZ):           1.2365549           0.3949099           0.3394237
 Leave Link  202 at Mon Jan 25 23:28:26 2021, MaxMem=  4026531840 cpu:               0.3 elap:               0.1
 (Enter /opt/ohpc/pub/libs/gaussian/g16-A.03/sandybridge/g16/l301.exe)
 Standard basis: TZVP (5D, 7F)
 Ernie: Thresh=  0.10000D-02 Tol=  0.10000D-05 Strict=F.
 There are   346 symmetry adapted cartesian basis functions of A   symmetry.
 There are   332 symmetry adapted basis functions of A   symmetry.
   332 basis functions,   594 primitive gaussians,   346 cartesian basis functions
    57 alpha electrons       57 beta electrons
       nuclear repulsion energy      1040.6420683200 Hartrees.
 IExCor=33909 DFT=T Ex+Corr=LC-wHPBE ExCW=0 ScaHFX=  1.000000
 ScaDFX=  1.000000  1.000000  1.000000  1.000000 ScalE2=  1.000000  1.000000
 IRadAn=      5 IRanWt=     -1 IRanGd=            0 ICorTp=0 IEmpDi=  4
 HFx  wShort=  0.000000 wLong=  0.221200 cFull=  0.000000 cShort=  0.000000 cLong=  1.000000
 DFx  wShort=  0.000000 wLong=  0.221200 cFull=  0.000000 cShort=  1.000000 cLong=  0.000000
 NAtoms=   24 NActive=   24 NUniq=   24 SFac= 1.00D+00 NAtFMM=   60 NAOKFM=F Big=F
 Integral buffers will be    131072 words long.
 Raffenetti 2 integral format.
 Two-electron integral symmetry is turned on.
 Leave Link  301 at Mon Jan 25 23:28:26 2021, MaxMem=  4026531840 cpu:               0.4 elap:               0.1
 (Enter /opt/ohpc/pub/libs/gaussian/g16-A.03/sandybridge/g16/l302.exe)
 NPDir=0 NMtPBC=     1 NCelOv=     1 NCel=       1 NClECP=     1 NCelD=      1
         NCelK=      1 NCelE2=     1 NClLst=     1 CellRange=     0.0.
 One-electron integrals computed using PRISM.
 One-electron integral symmetry used in STVInt
 NBasis=   332 RedAO= T EigKep=  8.19D-06  NBF=   332
 NBsUse=   332 1.00D-06 EigRej= -1.00D+00 NBFU=   332
 Precomputing XC quadrature grid using
 IXCGrd= 4 IRadAn=           5 IRanWt=          -1 IRanGd=           0 AccXCQ= 0.00D+00.
 Generated NRdTot=       0 NPtTot=           0 NUsed=           0 NTot=          32
 NSgBfM=   338   338   338   338   338 MxSgAt=    24 MxSgA2=    24.
 Leave Link  302 at Mon Jan 25 23:28:26 2021, MaxMem=  4026531840 cpu:               3.1 elap:               0.4
 (Enter /opt/ohpc/pub/libs/gaussian/g16-A.03/sandybridge/g16/l303.exe)
 DipDrv:  MaxL=1.
 Leave Link  303 at Mon Jan 25 23:28:26 2021, MaxMem=  4026531840 cpu:               0.4 elap:               0.1
 (Enter /opt/ohpc/pub/libs/gaussian/g16-A.03/sandybridge/g16/l401.exe)
 ExpMin= 9.52D-02 ExpMax= 6.07D+04 ExpMxC= 2.07D+03 IAcc=3 IRadAn=         5 AccDes= 0.00D+00
 Harris functional with IExCor=33909 and IRadAn=       5 diagonalized for initial guess.
 HarFok:  IExCor=33909 AccDes= 0.00D+00 IRadAn=         5 IDoV= 1 UseB2=F ITyADJ=14
 ICtDFT=  3500011 ScaDFX=  1.000000  1.000000  1.000000  1.000000
 FoFCou: FMM=F IPFlag=           0 FMFlag=      100000 FMFlg1=           0
         NFxFlg=           0 DoJE=T BraDBF=F KetDBF=T FulRan=T
         wScrn=  0.000000 ICntrl=       500 IOpCl=  0 I1Cent=   200000004 NGrid=           0
         NMat0=    1 NMatS0=      1 NMatT0=    0 NMatD0=    1 NMtDS0=    0 NMtDT0=    0
 Petite list used in FoFCou.
 Harris En= -1245.58938586892    
 JPrj=0 DoOrth=F DoCkMO=F.
 Leave Link  401 at Mon Jan 25 23:28:29 2021, MaxMem=  4026531840 cpu:              19.5 elap:               2.5
 (Enter /opt/ohpc/pub/libs/gaussian/g16-A.03/sandybridge/g16/l502.exe)
 Integral symmetry usage will be decided dynamically.
 Closed shell SCF:
 Using DIIS extrapolation, IDIIS=    10.
 NGot=  4026531840 LenX=  4026286196 LenY=  4026166039
 Requested convergence on RMS density matrix=1.00D-06 within  32 cycles.
 Requested convergence on MAX density matrix=1.00D-04.
 Requested convergence on             energy=1.00D-04.
 Virtual orbitals will be shifted by   0.500 hartree.
 No special actions if energy rises.
 Dynamic level shift is on during FON iterations.

 Cycle   1  Pass 1  IDiag  1:
 FoFJK:  IHMeth= 1 ICntrl=       0 DoSepK=T KAlg= 0 I1Cent=           0 FoldK=F
 IRaf=         1 NMat=       1 IRICut=       1 DoRegI=T DoRafI=F ISym2E= 0 IDoP0=0 IntGTp=1.
 FoFCou: FMM=F IPFlag=           0 FMFlag=      100000 FMFlg1=           0
         NFxFlg=           0 DoJE=T BraDBF=F KetDBF=F FulRan=T
         wScrn=  0.000000 ICntrl=       500 IOpCl=  0 I1Cent=           0 NGrid=           0
         NMat0=    1 NMatS0=      1 NMatT0=    0 NMatD0=    1 NMtDS0=    0 NMtDT0=    0
 Symmetry not used in FoFCou.
 E= -1258.57026970908    
 DIIS: error= 2.20D-02 at cycle   1 NSaved=   1.
 NSaved= 1 IEnMin= 1 EnMin= -1258.57026970908     IErMin= 1 ErrMin= 2.20D-02
 ErrMax= 2.20D-02  0.00D+00 EMaxC= 1.00D+00 BMatC= 3.77D-01 BMatP= 3.77D-01
 IDIUse=1 WtCom= 1.00D+00 WtEn= 0.00D+00
 Coeff-Com:  0.100D+01
 Coeff:      0.100D+01
 Gap=     0.462 Goal=   None    Shift=    0.500
 T= 1310. Gap= 0.492 NK=0 IS=   58 IE=  332 IFin=   57
          NO(<0.9)=   0  NV(>0.1)=   0     57.00e < EF      0.00e >EF  Err=0.0D+00
 GapD=    0.462 DampG=2.000 DampE=0.500 DampFc=1.0000 IDamp=-1.
 RMSDP=6.34D-03 MaxDP=4.13D-01              OVMax= 1.24D-01

 Cycle   2  Pass 1  IDiag  1:
 E= -1258.93456725064     Delta-E=       -0.364297541553 Rises=F Damp=F
 DIIS: error= 6.32D-03 at cycle   2 NSaved=   2.
 NSaved= 2 IEnMin= 2 EnMin= -1258.93456725064     IErMin= 2 ErrMin= 6.32D-03
 ErrMax= 6.32D-03  0.00D+00 EMaxC= 1.00D+00 BMatC= 4.62D-02 BMatP= 3.77D-01
 IDIUse=1 WtCom= 1.00D+00 WtEn= 0.00D+00
 Coeff-Com:  0.235D+00 0.765D+00
 Coeff:      0.235D+00 0.765D+00
 Gap=     0.241 Goal=   None    Shift=    0.500
 T= 1148. Gap= 0.706 NK=0 IS=   58 IE=  332 IFin=   57
          NO(<0.9)=   0  NV(>0.1)=   0     57.00e < EF      0.00e >EF  Err=0.0D+00
 GapD=    0.241 DampG=1.000 DampE=1.000 DampFc=1.0000 IDamp=-1.
 RMSDP=1.27D-03 MaxDP=5.93D-02 DE=-3.64D-01 OVMax= 1.71D-02

 Cycle   3  Pass 1  IDiag  1:
 E= -1258.96556984000     Delta-E=       -0.031002589365 Rises=F Damp=F
 DIIS: error= 2.22D-03 at cycle   3 NSaved=   3.
 NSaved= 3 IEnMin= 3 EnMin= -1258.96556984000     IErMin= 3 ErrMin= 2.22D-03
 ErrMax= 2.22D-03  0.00D+00 EMaxC= 1.00D+00 BMatC= 5.01D-03 BMatP= 4.62D-02
 IDIUse=1 WtCom= 1.00D+00 WtEn= 0.00D+00
 Coeff-Com:  0.721D-01-0.107D+00 0.103D+01
 Coeff:      0.721D-01-0.107D+00 0.103D+01
 Gap=     0.225 Goal=   None    Shift=    0.500
 T=  848. Gap= 0.725 NK=0 IS=   58 IE=  332 IFin=   57
          NO(<0.9)=   0  NV(>0.1)=   0     57.00e < EF      0.00e >EF  Err=0.0D+00
 GapD=    0.225 DampG=1.000 DampE=1.000 DampFc=1.0000 IDamp=-1.
 RMSDP=9.93D-04 MaxDP=6.62D-02 DE=-3.10D-02 OVMax= 9.95D-03

 Cycle   4  Pass 1  IDiag  1:
 E= -1258.97078441470     Delta-E=       -0.005214574696 Rises=F Damp=F
 DIIS: error= 1.36D-03 at cycle   4 NSaved=   4.
 NSaved= 4 IEnMin= 4 EnMin= -1258.97078441470     IErMin= 4 ErrMin= 1.36D-03
 ErrMax= 1.36D-03  0.00D+00 EMaxC= 1.00D+00 BMatC= 6.02D-04 BMatP= 5.01D-03
 IDIUse=1 WtCom= 1.00D+00 WtEn= 0.00D+00
 Coeff-Com:  0.234D-02-0.256D-01-0.311D+00 0.133D+01
 Coeff:      0.234D-02-0.256D-01-0.311D+00 0.133D+01
 Gap=     0.228 Goal=   None    Shift=    0.500
 T=  172. Gap= 0.729 NK=0 IS=   58 IE=  332 IFin=   57
          NO(<0.9)=   0  NV(>0.1)=   0     57.00e < EF      0.00e >EF  Err=0.0D+00
 GapD=    0.228 DampG=1.000 DampE=1.000 DampFc=1.0000 IDamp=-1.
 RMSDP=6.14D-04 MaxDP=4.68D-02 DE=-5.21D-03 OVMax= 7.20D-03

 Cycle   5  Pass 1  IDiag  1:
 E= -1258.97178040275     Delta-E=       -0.000995988047 Rises=F Damp=F
 DIIS: error= 1.05D-03 at cycle   5 NSaved=   5.
 NSaved= 5 IEnMin= 5 EnMin= -1258.97178040275     IErMin= 5 ErrMin= 1.05D-03
 ErrMax= 1.05D-03  0.00D+00 EMaxC= 1.00D+00 BMatC= 1.10D-04 BMatP= 6.02D-04
 IDIUse=1 WtCom= 1.00D+00 WtEn= 0.00D+00
 Coeff-Com: -0.757D-02 0.108D-01-0.141D+00-0.266D+00 0.140D+01
 Coeff:     -0.757D-02 0.108D-01-0.141D+00-0.266D+00 0.140D+01
 Gap=     0.229 Goal=   None    Shift=    0.500
 GapD=    0.229 DampG=1.000 DampE=1.000 DampFc=1.0000 IDamp=-1.
 RMSDP=3.33D-04 MaxDP=2.54D-02 DE=-9.96D-04 OVMax= 6.16D-03

 Cycle   6  Pass 1  IDiag  1:
 E= -1258.97210273802     Delta-E=       -0.000322335273 Rises=F Damp=F
 DIIS: error= 7.86D-04 at cycle   6 NSaved=   6.
 NSaved= 6 IEnMin= 6 EnMin= -1258.97210273802     IErMin= 6 ErrMin= 7.86D-04
 ErrMax= 7.86D-04  0.00D+00 EMaxC= 1.00D+00 BMatC= 3.54D-05 BMatP= 1.10D-04
 IDIUse=1 WtCom= 1.00D+00 WtEn= 0.00D+00
 Coeff-Com: -0.514D-02 0.533D-02 0.798D-01-0.577D+00-0.117D-01 0.151D+01
 Coeff:     -0.514D-02 0.533D-02 0.798D-01-0.577D+00-0.117D-01 0.151D+01
 Gap=     0.230 Goal=   None    Shift=    0.500
 RMSDP=2.02D-04 MaxDP=1.51D-02 DE=-3.22D-04 OVMax= 4.53D-03

 Cycle   7  Pass 1  IDiag  1:
 E= -1258.97224727607     Delta-E=       -0.000144538049 Rises=F Damp=F
 DIIS: error= 5.58D-04 at cycle   7 NSaved=   7.
 NSaved= 7 IEnMin= 7 EnMin= -1258.97224727607     IErMin= 7 ErrMin= 5.58D-04
 ErrMax= 5.58D-04  0.00D+00 EMaxC= 1.00D+00 BMatC= 1.23D-05 BMatP= 3.54D-05
 IDIUse=1 WtCom= 1.00D+00 WtEn= 0.00D+00
 Coeff-Com: -0.984D-04-0.377D-02 0.474D-01 0.410D-01-0.526D+00-0.416D+00
 Coeff-Com:  0.186D+01
 Coeff:     -0.984D-04-0.377D-02 0.474D-01 0.410D-01-0.526D+00-0.416D+00
 Coeff:      0.186D+01
 Gap=     0.230 Goal=   None    Shift=    0.500
 RMSDP=1.11D-04 MaxDP=7.02D-03 DE=-1.45D-04 OVMax= 3.40D-03

 Cycle   8  Pass 1  IDiag  1:
 E= -1258.97231067003     Delta-E=       -0.000063393960 Rises=F Damp=F
 DIIS: error= 3.81D-04 at cycle   8 NSaved=   8.
 NSaved= 8 IEnMin= 8 EnMin= -1258.97231067003     IErMin= 8 ErrMin= 3.81D-04
 ErrMax= 3.81D-04  0.00D+00 EMaxC= 1.00D+00 BMatC= 5.15D-06 BMatP= 1.23D-05
 IDIUse=1 WtCom= 1.00D+00 WtEn= 0.00D+00
 Coeff-Com:  0.493D-03-0.257D-02-0.233D-01 0.229D+00-0.235D+00-0.539D+00
 Coeff-Com: -0.331D+00 0.190D+01
 Coeff:      0.493D-03-0.257D-02-0.233D-01 0.229D+00-0.235D+00-0.539D+00
 Coeff:     -0.331D+00 0.190D+01
 Gap=     0.230 Goal=   None    Shift=    0.500
 RMSDP=6.25D-05 MaxDP=2.82D-03 DE=-6.34D-05 OVMax= 2.39D-03

 Cycle   9  Pass 1  IDiag  1:
 E= -1258.97233881138     Delta-E=       -0.000028141356 Rises=F Damp=F
 DIIS: error= 2.61D-04 at cycle   9 NSaved=   9.
 NSaved= 9 IEnMin= 9 EnMin= -1258.97233881138     IErMin= 9 ErrMin= 2.61D-04
 ErrMax= 2.61D-04  0.00D+00 EMaxC= 1.00D+00 BMatC= 2.20D-06 BMatP= 5.15D-06
 IDIUse=1 WtCom= 1.00D+00 WtEn= 0.00D+00
 Coeff-Com: -0.170D-03-0.340D-03-0.167D-01 0.371D-01 0.923D-01 0.109D+00
 Coeff-Com: -0.113D+01 0.499D-01 0.186D+01
 Coeff:     -0.170D-03-0.340D-03-0.167D-01 0.371D-01 0.923D-01 0.109D+00
 Coeff:     -0.113D+01 0.499D-01 0.186D+01
 Gap=     0.231 Goal=   None    Shift=    0.500
 RMSDP=3.84D-05 MaxDP=1.31D-03 DE=-2.81D-05 OVMax= 1.67D-03

 Cycle  10  Pass 1  IDiag  1:
 E= -1258.97235107031     Delta-E=       -0.000012258923 Rises=F Damp=F
 DIIS: error= 1.68D-04 at cycle  10 NSaved=  10.
 NSaved=10 IEnMin=10 EnMin= -1258.97235107031     IErMin=10 ErrMin= 1.68D-04
 ErrMax= 1.68D-04  0.00D+00 EMaxC= 1.00D+00 BMatC= 9.22D-07 BMatP= 2.20D-06
 IDIUse=1 WtCom= 1.00D+00 WtEn= 0.00D+00
 Coeff-Com: -0.325D-03 0.305D-03 0.287D-02-0.479D-01 0.931D-01 0.234D+00
 Coeff-Com: -0.505D+00-0.497D+00-0.804D-02 0.173D+01
 Coeff:     -0.325D-03 0.305D-03 0.287D-02-0.479D-01 0.931D-01 0.234D+00
 Coeff:     -0.505D+00-0.497D+00-0.804D-02 0.173D+01
 Gap=     0.231 Goal=   None    Shift=    0.500
 RMSDP=2.38D-05 MaxDP=8.83D-04 DE=-1.23D-05 OVMax= 1.09D-03

 Cycle  11  Pass 1  IDiag  1:
 E= -1258.97235614258     Delta-E=       -0.000005072275 Rises=F Damp=F
 DIIS: error= 1.12D-04 at cycle  11 NSaved=  11.
 NSaved=11 IEnMin=11 EnMin= -1258.97235614258     IErMin=11 ErrMin= 1.12D-04
 ErrMax= 1.12D-04  0.00D+00 EMaxC= 1.00D+00 BMatC= 4.01D-07 BMatP= 9.22D-07
 IDIUse=1 WtCom= 1.00D+00 WtEn= 0.00D+00
 Coeff-Com: -0.170D-03 0.317D-03 0.523D-02-0.118D-01-0.226D-01 0.167D-01
 Coeff-Com:  0.276D+00-0.114D+00-0.108D+01-0.128D+00 0.206D+01
 Coeff:     -0.170D-03 0.317D-03 0.523D-02-0.118D-01-0.226D-01 0.167D-01
 Coeff:      0.276D+00-0.114D+00-0.108D+01-0.128D+00 0.206D+01
 Gap=     0.231 Goal=   None    Shift=    0.500
 RMSDP=1.48D-05 MaxDP=5.59D-04 DE=-5.07D-06 OVMax= 7.21D-04

 Cycle  12  Pass 1  IDiag  1:
 E= -1258.97235827014     Delta-E=       -0.000002127555 Rises=F Damp=F
 DIIS: error= 7.00D-05 at cycle  12 NSaved=  12.
 NSaved=12 IEnMin=12 EnMin= -1258.97235827014     IErMin=12 ErrMin= 7.00D-05
 ErrMax= 7.00D-05  0.00D+00 EMaxC= 1.00D+00 BMatC= 1.76D-07 BMatP= 4.01D-07
 IDIUse=1 WtCom= 1.00D+00 WtEn= 0.00D+00
 Coeff-Com: -0.371D-04 0.363D-04 0.135D-02 0.920D-02-0.365D-01-0.410D-01
 Coeff-Com:  0.226D+00 0.124D+00-0.560D+00-0.557D+00 0.908D-02 0.182D+01
 Coeff:     -0.371D-04 0.363D-04 0.135D-02 0.920D-02-0.365D-01-0.410D-01
 Coeff:      0.226D+00 0.124D+00-0.560D+00-0.557D+00 0.908D-02 0.182D+01
 Gap=     0.231 Goal=   None    Shift=    0.500
 RMSDP=9.63D-06 MaxDP=3.63D-04 DE=-2.13D-06 OVMax= 4.58D-04

 Cycle  13  Pass 1  IDiag  1:
 E= -1258.97235915662     Delta-E=       -0.000000886488 Rises=F Damp=F
 DIIS: error= 4.42D-05 at cycle  13 NSaved=  13.
 NSaved=13 IEnMin=13 EnMin= -1258.97235915662     IErMin=13 ErrMin= 4.42D-05
 ErrMax= 4.42D-05  0.00D+00 EMaxC= 1.00D+00 BMatC= 7.25D-08 BMatP= 1.76D-07
 IDIUse=1 WtCom= 1.00D+00 WtEn= 0.00D+00
 Coeff-Com:  0.489D-05-0.205D-03-0.144D-02 0.628D-02-0.176D-02-0.326D-02
 Coeff-Com: -0.784D-01 0.113D+00 0.273D+00-0.155D+00-0.110D+01-0.297D+00
 Coeff-Com:  0.224D+01
 Coeff:      0.489D-05-0.205D-03-0.144D-02 0.628D-02-0.176D-02-0.326D-02
 Coeff:     -0.784D-01 0.113D+00 0.273D+00-0.155D+00-0.110D+01-0.297D+00
 Coeff:      0.224D+01
 Gap=     0.231 Goal=   None    Shift=    0.500
 RMSDP=6.10D-06 MaxDP=2.17D-04 DE=-8.86D-07 OVMax= 3.01D-04

 Cycle  14  Pass 1  IDiag  1:
 E= -1258.97235952364     Delta-E=       -0.000000367015 Rises=F Damp=F
 DIIS: error= 2.73D-05 at cycle  14 NSaved=  14.
 NSaved=14 IEnMin=14 EnMin= -1258.97235952364     IErMin=14 ErrMin= 2.73D-05
 ErrMax= 2.73D-05  0.00D+00 EMaxC= 1.00D+00 BMatC= 3.28D-08 BMatP= 7.25D-08
 IDIUse=1 WtCom= 1.00D+00 WtEn= 0.00D+00
 Coeff-Com: -0.785D-05-0.805D-04-0.523D-03-0.109D-02 0.952D-02 0.125D-01
 Coeff-Com: -0.722D-01-0.187D-01 0.208D+00 0.156D+00-0.299D+00-0.971D+00
 Coeff-Com: -0.208D+00 0.218D+01
 Coeff:     -0.785D-05-0.805D-04-0.523D-03-0.109D-02 0.952D-02 0.125D-01
 Coeff:     -0.722D-01-0.187D-01 0.208D+00 0.156D+00-0.299D+00-0.971D+00
 Coeff:     -0.208D+00 0.218D+01
 Gap=     0.231 Goal=   None    Shift=    0.500
 RMSDP=4.25D-06 MaxDP=1.43D-04 DE=-3.67D-07 OVMax= 2.27D-04

 Cycle  15  Pass 1  IDiag  1:
 E= -1258.97235968392     Delta-E=       -0.000000160284 Rises=F Damp=F
 DIIS: error= 1.63D-05 at cycle  15 NSaved=  15.
 NSaved=15 IEnMin=15 EnMin= -1258.97235968392     IErMin=15 ErrMin= 1.63D-05
 ErrMax= 1.63D-05  0.00D+00 EMaxC= 1.00D+00 BMatC= 1.42D-08 BMatP= 3.28D-08
 IDIUse=1 WtCom= 1.00D+00 WtEn= 0.00D+00
 Coeff-Com: -0.194D-04 0.338D-04 0.489D-03-0.293D-02 0.396D-02 0.958D-02
 Coeff-Com:  0.640D-03-0.609D-01-0.235D-01 0.169D+00 0.303D+00-0.470D+00
 Coeff-Com: -0.103D+01 0.931D-01 0.200D+01
 Coeff:     -0.194D-04 0.338D-04 0.489D-03-0.293D-02 0.396D-02 0.958D-02
 Coeff:      0.640D-03-0.609D-01-0.235D-01 0.169D+00 0.303D+00-0.470D+00
 Coeff:     -0.103D+01 0.931D-01 0.200D+01
 Gap=     0.231 Goal=   None    Shift=    0.500
 RMSDP=2.94D-06 MaxDP=9.32D-05 DE=-1.60D-07 OVMax= 1.68D-04

 Cycle  16  Pass 1  IDiag  1:
 E= -1258.97235975408     Delta-E=       -0.000000070158 Rises=F Damp=F
 DIIS: error= 1.01D-05 at cycle  16 NSaved=  16.
 NSaved=16 IEnMin=16 EnMin= -1258.97235975408     IErMin=16 ErrMin= 1.01D-05
 ErrMax= 1.01D-05  0.00D+00 EMaxC= 1.00D+00 BMatC= 6.54D-09 BMatP= 1.42D-08
 IDIUse=1 WtCom= 1.00D+00 WtEn= 0.00D+00
 Coeff-Com: -0.275D-05 0.268D-04 0.477D-03-0.111D-02-0.228D-02 0.197D-02
 Coeff-Com:  0.232D-01-0.132D-01-0.690D-01 0.410D-02 0.161D+00 0.248D+00
 Coeff-Com: -0.321D+00-0.118D+01-0.170D+00 0.232D+01
 Coeff:     -0.275D-05 0.268D-04 0.477D-03-0.111D-02-0.228D-02 0.197D-02
 Coeff:      0.232D-01-0.132D-01-0.690D-01 0.410D-02 0.161D+00 0.248D+00
 Coeff:     -0.321D+00-0.118D+01-0.170D+00 0.232D+01
 Gap=     0.231 Goal=   None    Shift=    0.500
 RMSDP=2.15D-06 MaxDP=7.14D-05 DE=-7.02D-08 OVMax= 1.31D-04

 Cycle  17  Pass 1  IDiag  1:
 E= -1258.97235978749     Delta-E=       -0.000000033405 Rises=F Damp=F
 DIIS: error= 5.92D-06 at cycle  17 NSaved=  17.
 NSaved=17 IEnMin=17 EnMin= -1258.97235978749     IErMin=17 ErrMin= 5.92D-06
 ErrMax= 5.92D-06  0.00D+00 EMaxC= 1.00D+00 BMatC= 2.87D-09 BMatP= 6.54D-09
 IDIUse=1 WtCom= 1.00D+00 WtEn= 0.00D+00
 Coeff-Com:  0.403D-05-0.693D-05 0.128D-06 0.796D-03-0.278D-02-0.231D-02
 Coeff-Com:  0.835D-02 0.199D-01-0.184D-01-0.643D-01-0.455D-01 0.309D+00
 Coeff-Com:  0.228D+00-0.657D+00-0.104D+01 0.210D+00 0.205D+01
 Coeff:      0.403D-05-0.693D-05 0.128D-06 0.796D-03-0.278D-02-0.231D-02
 Coeff:      0.835D-02 0.199D-01-0.184D-01-0.643D-01-0.455D-01 0.309D+00
 Coeff:      0.228D+00-0.657D+00-0.104D+01 0.210D+00 0.205D+01
 Gap=     0.231 Goal=   None    Shift=    0.500
 RMSDP=1.48D-06 MaxDP=5.05D-05 DE=-3.34D-08 OVMax= 9.61D-05

 Cycle  18  Pass 1  IDiag  1:
 E= -1258.97235980290     Delta-E=       -0.000000015412 Rises=F Damp=F
 DIIS: error= 3.93D-06 at cycle  18 NSaved=  18.
 NSaved=18 IEnMin=18 EnMin= -1258.97235980290     IErMin=18 ErrMin= 3.93D-06
 ErrMax= 3.93D-06  0.00D+00 EMaxC= 1.00D+00 BMatC= 1.26D-09 BMatP= 2.87D-09
 IDIUse=1 WtCom= 1.00D+00 WtEn= 0.00D+00
 Coeff-Com:  0.125D-05-0.165D-04-0.207D-03 0.942D-03-0.448D-03-0.206D-02
 Coeff-Com: -0.543D-02 0.165D-01 0.186D-01-0.354D-01-0.829D-01 0.647D-01
 Coeff-Com:  0.237D+00 0.107D+00-0.604D+00-0.896D+00 0.408D+00 0.177D+01
 Coeff:      0.125D-05-0.165D-04-0.207D-03 0.942D-03-0.448D-03-0.206D-02
 Coeff:     -0.543D-02 0.165D-01 0.186D-01-0.354D-01-0.829D-01 0.647D-01
 Coeff:      0.237D+00 0.107D+00-0.604D+00-0.896D+00 0.408D+00 0.177D+01
 Gap=     0.231 Goal=   None    Shift=    0.500
 RMSDP=1.03D-06 MaxDP=3.45D-05 DE=-1.54D-08 OVMax= 6.69D-05

 Cycle  19  Pass 1  IDiag  1:
 E= -1258.97235980975     Delta-E=       -0.000000006851 Rises=F Damp=F
 DIIS: error= 2.78D-06 at cycle  19 NSaved=  19.
 NSaved=19 IEnMin=19 EnMin= -1258.97235980975     IErMin=19 ErrMin= 2.78D-06
 ErrMax= 2.78D-06  0.00D+00 EMaxC= 1.00D+00 BMatC= 5.86D-10 BMatP= 1.26D-09
 IDIUse=1 WtCom= 1.00D+00 WtEn= 0.00D+00
 Coeff-Com: -0.208D-05-0.630D-05-0.835D-04 0.108D-03 0.937D-03-0.707D-04
 Coeff-Com: -0.549D-02-0.500D-03 0.149D-01 0.111D-01-0.135D-01-0.884D-01
 Coeff-Com:  0.159D-01 0.284D+00 0.672D-01-0.493D+00-0.812D+00-0.459D-01
 Coeff-Com:  0.206D+01
 Coeff:     -0.208D-05-0.630D-05-0.835D-04 0.108D-03 0.937D-03-0.707D-04
 Coeff:     -0.549D-02-0.500D-03 0.149D-01 0.111D-01-0.135D-01-0.884D-01
 Coeff:      0.159D-01 0.284D+00 0.672D-01-0.493D+00-0.812D+00-0.459D-01
 Coeff:      0.206D+01
 Gap=     0.231 Goal=   None    Shift=    0.500
 RMSDP=7.20D-07 MaxDP=2.45D-05 DE=-6.85D-09 OVMax= 4.78D-05

 SCF Done:  E(RLC-wHPBE) =  -1258.97235981     A.U. after   19 cycles
            NFock= 19  Conv=0.72D-06     -V/T= 2.0033
 KE= 1.254786838819D+03 PE=-5.047236971546D+03 EE= 1.492835704597D+03
 Leave Link  502 at Mon Jan 25 23:31:57 2021, MaxMem=  4026531840 cpu:            1662.5 elap:             208.1
 (Enter /opt/ohpc/pub/libs/gaussian/g16-A.03/sandybridge/g16/l508.exe)
 QCSCF skips out because SCF is already converged.
 Leave Link  508 at Mon Jan 25 23:31:57 2021, MaxMem=  4026531840 cpu:               0.1 elap:               0.0
 (Enter /opt/ohpc/pub/libs/gaussian/g16-A.03/sandybridge/g16/l601.exe)
 Copying SCF densities to generalized density rwf, IOpCl= 0 IROHF=0.

 **********************************************************************

            Population analysis using the SCF density.

 **********************************************************************

 Orbital symmetries:
       Occupied  (A) (A) (A) (A) (A) (A) (A) (A) (A) (A) (A) (A)
                 (A) (A) (A) (A) (A) (A) (A) (A) (A) (A) (A) (A)
                 (A) (A) (A) (A) (A) (A) (A) (A) (A) (A) (A) (A)
                 (A) (A) (A) (A) (A) (A) (A) (A) (A) (A) (A) (A)
                 (A) (A) (A) (A) (A) (A) (A) (A) (A)
       Virtual   (A) (A) (A) (A) (A) (A) (A) (A) (A) (A) (A) (A)
                 (A) (A) (A) (A) (A) (A) (A) (A) (A) (A) (A) (A)
                 (A) (A) (A) (A) (A) (A) (A) (A) (A) (A) (A) (A)
                 (A) (A) (A) (A) (A) (A) (A) (A) (A) (A) (A) (A)
                 (A) (A) (A) (A) (A) (A) (A) (A) (A) (A) (A) (A)
                 (A) (A) (A) (A) (A) (A) (A) (A) (A) (A) (A) (A)
                 (A) (A) (A) (A) (A) (A) (A) (A) (A) (A) (A) (A)
                 (A) (A) (A) (A) (A) (A) (A) (A) (A) (A) (A) (A)
                 (A) (A) (A) (A) (A) (A) (A) (A) (A) (A) (A) (A)
                 (A) (A) (A) (A) (A) (A) (A) (A) (A) (A) (A) (A)
                 (A) (A) (A) (A) (A) (A) (A) (A) (A) (A) (A) (A)
                 (A) (A) (A) (A) (A) (A) (A) (A) (A) (A) (A) (A)
                 (A) (A) (A) (A) (A) (A) (A) (A) (A) (A) (A) (A)
                 (A) (A) (A) (A) (A) (A) (A) (A) (A) (A) (A) (A)
                 (A) (A) (A) (A) (A) (A) (A) (A) (A) (A) (A) (A)
                 (A) (A) (A) (A) (A) (A) (A) (A) (A) (A) (A) (A)
                 (A) (A) (A) (A) (A) (A) (A) (A) (A) (A) (A) (A)
                 (A) (A) (A) (A) (A) (A) (A) (A) (A) (A) (A) (A)
                 (A) (A) (A) (A) (A) (A) (A) (A) (A) (A) (A) (A)
                 (A) (A) (A) (A) (A) (A) (A) (A) (A) (A) (A) (A)
                 (A) (A) (A) (A) (A) (A) (A) (A) (A) (A) (A) (A)
                 (A) (A) (A) (A) (A) (A) (A) (A) (A) (A) (A) (A)
                 (A) (A) (A) (A) (A) (A) (A) (A) (A) (A) (A)
 The electronic state is 1-A.
 Alpha  occ. eigenvalues --  -88.31269 -88.22190 -10.08105 -10.07911 -10.04660
 Alpha  occ. eigenvalues --  -10.03811 -10.03712 -10.03572 -10.02572 -10.00457
 Alpha  occ. eigenvalues --   -9.99272  -9.98631  -9.97542  -9.93831  -7.90309
 Alpha  occ. eigenvalues --   -7.81428  -5.92270  -5.92107  -5.91408  -5.83613
 Alpha  occ. eigenvalues --   -5.83127  -5.82329  -0.97029  -0.92677  -0.88177
 Alpha  occ. eigenvalues --   -0.86954  -0.82859  -0.78851  -0.77776  -0.76153
 Alpha  occ. eigenvalues --   -0.70232  -0.68407  -0.65158  -0.63148  -0.60779
 Alpha  occ. eigenvalues --   -0.57816  -0.57023  -0.55191  -0.53473  -0.51732
 Alpha  occ. eigenvalues --   -0.51320  -0.49383  -0.49307  -0.47142  -0.46191
 Alpha  occ. eigenvalues --   -0.45938  -0.44795  -0.43439  -0.41997  -0.40488
 Alpha  occ. eigenvalues --   -0.37660  -0.37588  -0.36343  -0.32145  -0.29609
 Alpha  occ. eigenvalues --   -0.29529  -0.22689
 Alpha virt. eigenvalues --    0.00374   0.01666   0.03768   0.05091   0.07348
 Alpha virt. eigenvalues --    0.08533   0.09174   0.10211   0.11521   0.12534
 Alpha virt. eigenvalues --    0.13818   0.14343   0.16395   0.16649   0.16977
 Alpha virt. eigenvalues --    0.18518   0.18735   0.19817   0.20867   0.21353
 Alpha virt. eigenvalues --    0.23507   0.24079   0.24499   0.25518   0.26096
 Alpha virt. eigenvalues --    0.27085   0.27208   0.28395   0.28703   0.29388
 Alpha virt. eigenvalues --    0.29742   0.30153   0.31396   0.31884   0.32221
 Alpha virt. eigenvalues --    0.32852   0.33558   0.33768   0.34179   0.35106
 Alpha virt. eigenvalues --    0.35832   0.36250   0.37429   0.38200   0.39078
 Alpha virt. eigenvalues --    0.39877   0.40507   0.41120   0.41458   0.43127
 Alpha virt. eigenvalues --    0.43551   0.44171   0.44506   0.44899   0.44959
 Alpha virt. eigenvalues --    0.46152   0.46858   0.47590   0.48346   0.48733
 Alpha virt. eigenvalues --    0.49048   0.49916   0.50335   0.51369   0.51518
 Alpha virt. eigenvalues --    0.52589   0.53013   0.54318   0.54852   0.55759
 Alpha virt. eigenvalues --    0.55990   0.56498   0.58116   0.58653   0.59108
 Alpha virt. eigenvalues --    0.59671   0.60886   0.62416   0.62938   0.64452
 Alpha virt. eigenvalues --    0.65778   0.66105   0.68459   0.69927   0.71631
 Alpha virt. eigenvalues --    0.73518   0.74629   0.75223   0.76149   0.77302
 Alpha virt. eigenvalues --    0.77648   0.79374   0.79911   0.81279   0.83028
 Alpha virt. eigenvalues --    0.85711   0.89695   0.90949   0.91718   0.92161
 Alpha virt. eigenvalues --    0.94091   0.95029   0.97335   0.98580   0.99668
 Alpha virt. eigenvalues --    1.07671   1.10517   1.19671   1.22483   1.25592
 Alpha virt. eigenvalues --    1.27193   1.28261   1.29180   1.29197   1.30517
 Alpha virt. eigenvalues --    1.31192   1.32310   1.33119   1.33889   1.34258
 Alpha virt. eigenvalues --    1.35557   1.37767   1.38081   1.38339   1.39005
 Alpha virt. eigenvalues --    1.42397   1.43302   1.43549   1.44475   1.46005
 Alpha virt. eigenvalues --    1.46826   1.47313   1.47474   1.48485   1.50649
 Alpha virt. eigenvalues --    1.51204   1.51407   1.51905   1.52307   1.53164
 Alpha virt. eigenvalues --    1.53870   1.54856   1.55582   1.56032   1.57090
 Alpha virt. eigenvalues --    1.57804   1.58492   1.58754   1.58978   1.61231
 Alpha virt. eigenvalues --    1.62306   1.64074   1.64530   1.65419   1.67100
 Alpha virt. eigenvalues --    1.68061   1.68406   1.71771   1.72151   1.72713
 Alpha virt. eigenvalues --    1.75277   1.76020   1.78772   1.79832   1.80184
 Alpha virt. eigenvalues --    1.82051   1.82316   1.82772   1.84121   1.84453
 Alpha virt. eigenvalues --    1.85949   1.86808   1.89277   1.90218   1.90491
 Alpha virt. eigenvalues --    1.91583   1.92966   1.93463   1.93915   1.94483
 Alpha virt. eigenvalues --    1.95219   1.96890   1.97339   1.99217   2.00242
 Alpha virt. eigenvalues --    2.02243   2.02922   2.04060   2.04264   2.06783
 Alpha virt. eigenvalues --    2.07863   2.10031   2.11236   2.14731   2.16891
 Alpha virt. eigenvalues --    2.18797   2.22459   2.27356   2.28091   2.30096
 Alpha virt. eigenvalues --    2.31428   2.31800   2.32499   2.33329   2.35221
 Alpha virt. eigenvalues --    2.36081   2.36522   2.38028   2.38502   2.38862
 Alpha virt. eigenvalues --    2.40289   2.41726   2.44211   2.46353   2.49079
 Alpha virt. eigenvalues --    2.50358   2.51287   2.53564   2.53758   2.56507
 Alpha virt. eigenvalues --    2.57764   2.59529   2.59954   2.62848   2.64384
 Alpha virt. eigenvalues --    2.64963   2.66267   2.66495   2.67882   2.69641
 Alpha virt. eigenvalues --    2.71312   2.72195   2.73183   2.73913   2.75651
 Alpha virt. eigenvalues --    2.81328   2.83438   2.83926   2.87887   2.96358
 Alpha virt. eigenvalues --    2.99441   3.03474   3.07277   3.10776   3.12637
 Alpha virt. eigenvalues --    3.13246   3.13828   3.15423   3.17627   3.18873
 Alpha virt. eigenvalues --    3.20374   3.23014   3.29130   3.30412   3.36538
 Alpha virt. eigenvalues --    3.38457   3.40329   3.54966   3.58039   3.72577
 Alpha virt. eigenvalues --    3.73886  18.95999  19.06537  21.06174  21.34172
 Alpha virt. eigenvalues --   21.61376  21.69595  21.71527  21.74631  21.91293
 Alpha virt. eigenvalues --   21.93097  21.95575  22.00927  22.09653  22.13993
          Condensed to atoms (all electrons):
               1          2          3          4          5          6
     1  C    6.356035  -0.393563  -0.106901   0.351249  -0.006184  -0.028514
     2  C   -0.393563   6.453703   0.459712  -0.463220  -0.029397   0.030437
     3  S   -0.106901   0.459712  15.479276  -0.161791   0.011826  -0.057113
     4  C    0.351249  -0.463220  -0.161791   6.568628  -0.041101  -0.022818
     5  C   -0.006184  -0.029397   0.011826  -0.041101   7.093026  -0.055060
     6  C   -0.028514   0.030437  -0.057113  -0.022818  -0.055060   5.907956
     7  C   -0.405230   0.369320   0.059263  -0.345451   0.002789   0.006194
     8  C   -0.445091   0.130463   0.029548  -0.255752   0.020558   0.000834
     9  H   -0.003263   0.016320   0.005228  -0.024908  -0.063213   0.013175
    10  C   -0.005703   0.031646  -0.016695  -0.024476  -0.732536   0.177817
    11  C    0.001990   0.002886   0.019148  -0.004643   0.109895   0.363385
    12  C   -0.000782   0.001263  -0.010864  -0.002702  -0.449311   0.125179
    13  C    0.000424  -0.000643   0.016812   0.002189   0.246756  -0.114945
    14  H    0.000026   0.000338  -0.000686  -0.000392  -0.069190   0.003111
    15  H    0.000163  -0.000153  -0.000493   0.000158   0.038703  -0.084642
    16  H    0.000004  -0.000059  -0.000432   0.000041   0.004715   0.013472
    17  H    0.000000   0.000014   0.000194  -0.000002   0.025645  -0.000166
    18  C    0.357472  -0.345650  -0.011191   0.270740  -0.005297  -0.007554
    19  H    0.464542  -0.115733  -0.012817   0.035708   0.000099  -0.000681
    20  H   -0.051295  -0.006185   0.302890   0.006661   0.000530   0.004946
    21  H   -0.062297   0.024076  -0.000058  -0.004860   0.000008   0.000031
    22  H   -0.005880   0.035022   0.000060  -0.082339   0.002139   0.000523
    23  H    0.024418  -0.004818  -0.000051   0.028153  -0.000029  -0.000040
    24  S    0.029692  -0.213484  -0.008923   0.375905   0.244642  -0.101017
               7          8          9         10         11         12
     1  C   -0.405230  -0.445091  -0.003263  -0.005703   0.001990  -0.000782
     2  C    0.369320   0.130463   0.016320   0.031646   0.002886   0.001263
     3  S    0.059263   0.029548   0.005228  -0.016695   0.019148  -0.010864
     4  C   -0.345451  -0.255752  -0.024908  -0.024476  -0.004643  -0.002702
     5  C    0.002789   0.020558  -0.063213  -0.732536   0.109895  -0.449311
     6  C    0.006194   0.000834   0.013175   0.177817   0.363385   0.125179
     7  C    5.686769   0.314228   0.000979   0.000852  -0.000538   0.000110
     8  C    0.314228   5.913239  -0.013565  -0.006875  -0.002265  -0.000077
     9  H    0.000979  -0.013565   0.640329   0.044908  -0.001071   0.001258
    10  C    0.000852  -0.006875   0.044908   6.467494  -0.370876   0.360507
    11  C   -0.000538  -0.002265  -0.001071  -0.370876   5.325882   0.101776
    12  C    0.000110  -0.000077   0.001258   0.360507   0.101776   5.589323
    13  C   -0.000075   0.000417  -0.000053   0.065904   0.187245   0.162401
    14  H   -0.000004  -0.000168  -0.000669   0.374889  -0.000313   0.009529
    15  H   -0.000022  -0.000055  -0.000023  -0.008700   0.448322  -0.143541
    16  H    0.000000   0.000001  -0.000012   0.009431  -0.041210   0.393411
    17  H   -0.000000  -0.000001  -0.000030  -0.069692   0.012685  -0.055932
    18  C    0.099059   0.048210  -0.004254  -0.001115   0.000421  -0.000070
    19  H   -0.066238  -0.007283  -0.000039  -0.000081   0.000049  -0.000030
    20  H    0.006056   0.002450   0.000266   0.001067  -0.000531   0.000610
    21  H    0.425974   0.022832   0.000007   0.000002  -0.000001   0.000000
    22  H    0.015832   0.396497   0.000875   0.000314  -0.000035   0.000006
    23  H   -0.072365  -0.080963  -0.000019  -0.000003   0.000001  -0.000000
    24  S   -0.004690  -0.003185   0.275908  -0.318967   0.025363  -0.015284
              13         14         15         16         17         18
     1  C    0.000424   0.000026   0.000163   0.000004   0.000000   0.357472
     2  C   -0.000643   0.000338  -0.000153  -0.000059   0.000014  -0.345650
     3  S    0.016812  -0.000686  -0.000493  -0.000432   0.000194  -0.011191
     4  C    0.002189  -0.000392   0.000158   0.000041  -0.000002   0.270740
     5  C    0.246756  -0.069190   0.038703   0.004715   0.025645  -0.005297
     6  C   -0.114945   0.003111  -0.084642   0.013472  -0.000166  -0.007554
     7  C   -0.000075  -0.000004  -0.000022   0.000000  -0.000000   0.099059
     8  C    0.000417  -0.000168  -0.000055   0.000001  -0.000001   0.048210
     9  H   -0.000053  -0.000669  -0.000023  -0.000012  -0.000030  -0.004254
    10  C    0.065904   0.374889  -0.008700   0.009431  -0.069692  -0.001115
    11  C    0.187245  -0.000313   0.448322  -0.041210   0.012685   0.000421
    12  C    0.162401   0.009529  -0.143541   0.393411  -0.055932  -0.000070
    13  C    5.206194  -0.004479   0.022963  -0.058905   0.416413   0.000051
    14  H   -0.004479   0.593936   0.000143  -0.000209  -0.008186   0.000024
    15  H    0.022963   0.000143   0.641880  -0.006889  -0.000292   0.000017
    16  H   -0.058905  -0.000209  -0.006889   0.597262  -0.006924   0.000000
    17  H    0.416413  -0.008186  -0.000292  -0.006924   0.585759   0.000000
    18  C    0.000051   0.000024   0.000017   0.000000   0.000000   5.354036
    19  H    0.000014   0.000000   0.000007   0.000000  -0.000000   0.021416
    20  H   -0.000751  -0.000073  -0.000058  -0.000005   0.000002  -0.001905
    21  H   -0.000000  -0.000000  -0.000000  -0.000000  -0.000000  -0.069202
    22  H   -0.000002  -0.000005  -0.000001  -0.000000  -0.000000  -0.040342
    23  H    0.000000   0.000000   0.000000   0.000000   0.000000   0.441405
    24  S    0.040181  -0.003999  -0.000104   0.000150  -0.000239   0.009944
              19         20         21         22         23         24
     1  C    0.464542  -0.051295  -0.062297  -0.005880   0.024418   0.029692
     2  C   -0.115733  -0.006185   0.024076   0.035022  -0.004818  -0.213484
     3  S   -0.012817   0.302890  -0.000058   0.000060  -0.000051  -0.008923
     4  C    0.035708   0.006661  -0.004860  -0.082339   0.028153   0.375905
     5  C    0.000099   0.000530   0.000008   0.002139  -0.000029   0.244642
     6  C   -0.000681   0.004946   0.000031   0.000523  -0.000040  -0.101017
     7  C   -0.066238   0.006056   0.425974   0.015832  -0.072365  -0.004690
     8  C   -0.007283   0.002450   0.022832   0.396497  -0.080963  -0.003185
     9  H   -0.000039   0.000266   0.000007   0.000875  -0.000019   0.275908
    10  C   -0.000081   0.001067   0.000002   0.000314  -0.000003  -0.318967
    11  C    0.000049  -0.000531  -0.000001  -0.000035   0.000001   0.025363
    12  C   -0.000030   0.000610   0.000000   0.000006  -0.000000  -0.015284
    13  C    0.000014  -0.000751  -0.000000  -0.000002   0.000000   0.040181
    14  H    0.000000  -0.000073  -0.000000  -0.000005   0.000000  -0.003999
    15  H    0.000007  -0.000058  -0.000000  -0.000001   0.000000  -0.000104
    16  H    0.000000  -0.000005  -0.000000  -0.000000   0.000000   0.000150
    17  H   -0.000000   0.000002  -0.000000  -0.000000   0.000000  -0.000239
    18  C    0.021416  -0.001905  -0.069202  -0.040342   0.441405   0.009944
    19  H    0.554214  -0.004176  -0.008513  -0.000065  -0.000166   0.000097
    20  H   -0.004176   0.654814   0.000065   0.000021  -0.000010  -0.000752
    21  H   -0.008513   0.000065   0.556934  -0.000164  -0.008291   0.000035
    22  H   -0.000065   0.000021  -0.000164   0.533077  -0.007709   0.004056
    23  H   -0.000166  -0.000010  -0.008291  -0.007709   0.559077  -0.000622
    24  S    0.000097  -0.000752   0.000035   0.004056  -0.000622  15.328041
 Mulliken charges:
               1
     1  C   -0.071311
     2  C    0.017706
     3  S    0.004058
     4  C   -0.204976
     5  C   -0.350012
     6  C   -0.174509
     7  C   -0.092812
     8  C   -0.063998
     9  H    0.111868
    10  C    0.020887
    11  C   -0.177564
    12  C   -0.066781
    13  C   -0.188111
    14  H    0.106377
    15  H    0.092617
    16  H    0.096157
    17  H    0.100750
    18  C   -0.116214
    19  H    0.139677
    20  H    0.085363
    21  H    0.123422
    22  H    0.148120
    23  H    0.122032
    24  S    0.337252
 Sum of Mulliken charges =  -0.00000
 Mulliken charges with hydrogens summed into heavy atoms:
               1
     1  C    0.068366
     2  C    0.017706
     3  S    0.089422
     4  C   -0.204976
     5  C   -0.350012
     6  C   -0.174509
     7  C    0.030610
     8  C    0.084122
    10  C    0.127265
    11  C   -0.084947
    12  C    0.029376
    13  C   -0.087360
    18  C    0.005818
    24  S    0.449120
 Electronic spatial extent (au):  <R**2>=           3318.0317
 Charge=             -0.0000 electrons
 Dipole moment (field-independent basis, Debye):
    X=              4.6213    Y=             -0.9173    Z=             -4.4738  Tot=              6.4971
 Quadrupole moment (field-independent basis, Debye-Ang):
   XX=            -86.1838   YY=            -87.0609   ZZ=           -101.0223
   XY=             -1.1424   XZ=              5.4191   YZ=              2.5384
 Traceless Quadrupole moment (field-independent basis, Debye-Ang):
   XX=              5.2386   YY=              4.3614   ZZ=             -9.6000
   XY=             -1.1424   XZ=              5.4191   YZ=              2.5384
 Octapole moment (field-independent basis, Debye-Ang**2):
  XXX=             54.5048  YYY=              1.5114  ZZZ=            -25.1698  XYY=             21.6373
  XXY=             14.5033  XXZ=              0.7518  XZZ=             -1.9856  YZZ=              0.4240
  YYZ=            -14.5980  XYZ=            -10.1652
 Hexadecapole moment (field-independent basis, Debye-Ang**3):
 XXXX=          -3064.2214 YYYY=           -867.2859 ZZZZ=           -432.3830 XXXY=            -48.7800
 XXXZ=             91.5069 YYYX=              4.8079 YYYZ=            -13.6680 ZZZX=             16.1133
 ZZZY=             19.0645 XXYY=           -674.6206 XXZZ=           -646.4939 YYZZ=           -206.8453
 XXYZ=             10.2970 YYXZ=              5.0396 ZZXY=             -5.8599
 N-N= 1.040642068320D+03 E-N=-5.047236998974D+03  KE= 1.254786838819D+03
 No NMR shielding tensors so no spin-rotation constants.
 Leave Link  601 at Mon Jan 25 23:31:57 2021, MaxMem=  4026531840 cpu:               1.7 elap:               0.3
 (Enter /opt/ohpc/pub/libs/gaussian/g16-A.03/sandybridge/g16/l9999.exe)

 Test job not archived.
 1\1\GINC-CNODE146\SP\RLC-wHPBE\TZVP\C12H10S2\RDU230\25-Jan-2021\0\\#P 
 LC-wHPBE/TZVP iop(3/107=0221200000, 3/108=0221200000) scf=(conver=6,fe
 rmi,ndamp=35,noincfock,novaracc,vshift=500,xqc)\\H10 C12 S2\\0,1\C,0,-
 2.574063,-1.434391,-0.049117\C,0,-1.368901,-0.745264,-0.216328\S,0,0.0
 93606,-1.678504,-0.585022\C,0,-1.397687,0.626896,-0.046009\C,0,1.50039
 5,0.811934,0.077279\C,0,1.478004,0.220423,1.307027\C,0,-3.746915,-0.78
 3096,0.229547\C,0,-2.584351,1.293751,0.256604\H,0,-0.039943,1.860892,-
 1.547006\C,0,2.473105,0.786527,-0.925649\C,0,2.645316,-0.559969,1.4924
 38\C,0,3.655495,-0.649979,0.563531\C,0,3.583956,0.035098,-0.656753\H,0
 ,2.357645,1.302286,-1.874829\H,0,2.763398,-1.119309,2.419207\H,0,4.527
 775,-1.262476,0.773175\H,0,4.391412,-0.038194,-1.378729\C,0,-3.759914,
 0.597536,0.384558\H,0,-2.557315,-2.514169,-0.13851\H,0,-0.525974,-2.52
 8359,-1.4318\H,0,-4.665467,-1.345208,0.349638\H,0,-2.558102,2.368477,0
 .406674\H,0,-4.681894,1.115025,0.619767\S,0,0.004008,1.738768,-0.20875
 \\Version=EM64L-G16RevA.03\State=1-A\HF=-1258.9723598\RMSD=7.199e-07\D
 ipole=-1.8181615,0.3609009,-1.7601194\Quadrupole=3.8947373,3.2425948,-
 7.1373321,-0.8493597,-4.0289947,-1.8872104\PG=C01 [X(C12H10S2)]\\@


 BUT 'GLORY' DOESN'T MEAN 'A NICE KNOCK DOWN ARGUMENT', ALICE OBJECTED.
 WHEN I USE A WORD, HUMPTY DUMPTY SAID, IN A RATHER SCORNFUL TONE,
 IT MEANS JUST WHAT I CHOOSE IT TO MEAN....
 NEITHER MORE NOR LESS....
 THE QUESTION IS, SAID ALICE,
 WHETHER YOU CAN MAKE WORDS MEAN SO MANY DIFFERENT THINGS...
 THE QUESTION IS, SAID HUMPTY DUMPTY,
 WHICH IS TO BE MASTER....
 THAT IS ALL.....

 ALICE THROUGH THE LOOKING GLASS
 Job cpu time:       0 days  0 hours 28 minutes 10.4 seconds.
 Elapsed time:       0 days  0 hours  3 minutes 31.8 seconds.
 File lengths (MBytes):  RWF=     92 Int=      0 D2E=      0 Chk=     12 Scr=      8
 Normal termination of Gaussian 16 at Mon Jan 25 23:31:57 2021.
