 Entering Gaussian System, Link 0=g16
 Input=mol_ta_NN_frag_tune_n9.gjf
 Output=mol_ta_NN_frag_tune_n9.log
 Initial command:
 /opt/ohpc/pub/libs/gaussian/g16-A.03/sandybridge/g16/l1.exe "/mnt/gpfs2_4m/scratch/rdu230/ondemand/projects/init_structures/gaussian/wtuning/mol_ta_NN_frag/tuning_mol_ta_NN_frag_ocycle0/Gau-28663.inp" -scrdir="/mnt/gpfs2_4m/scratch/rdu230/ondemand/projects/init_structures/gaussian/wtuning/mol_ta_NN_frag/tuning_mol_ta_NN_frag_ocycle0/"
 Entering Link 1 = /opt/ohpc/pub/libs/gaussian/g16-A.03/sandybridge/g16/l1.exe PID=     28664.
  
 Copyright (c) 1988,1990,1992,1993,1995,1998,2003,2009,2016,
            Gaussian, Inc.  All Rights Reserved.
  
 This is part of the Gaussian(R) 16 program.  It is based on
 the Gaussian(R) 09 system (copyright 2009, Gaussian, Inc.),
 the Gaussian(R) 03 system (copyright 2003, Gaussian, Inc.),
 the Gaussian(R) 98 system (copyright 1998, Gaussian, Inc.),
 the Gaussian(R) 94 system (copyright 1995, Gaussian, Inc.),
 the Gaussian 92(TM) system (copyright 1992, Gaussian, Inc.),
 the Gaussian 90(TM) system (copyright 1990, Gaussian, Inc.),
 the Gaussian 88(TM) system (copyright 1988, Gaussian, Inc.),
 the Gaussian 86(TM) system (copyright 1986, Carnegie Mellon
 University), and the Gaussian 82(TM) system (copyright 1983,
 Carnegie Mellon University). Gaussian is a federally registered
 trademark of Gaussian, Inc.
  
 This software contains proprietary and confidential information,
 including trade secrets, belonging to Gaussian, Inc.
  
 This software is provided under written license and may be
 used, copied, transmitted, or stored only in accord with that
 written license.
  
 The following legend is applicable only to US Government
 contracts under FAR:
  
                    RESTRICTED RIGHTS LEGEND
  
 Use, reproduction and disclosure by the US Government is
 subject to restrictions as set forth in subparagraphs (a)
 and (c) of the Commercial Computer Software - Restricted
 Rights clause in FAR 52.227-19.
  
 Gaussian, Inc.
 340 Quinnipiac St., Bldg. 40, Wallingford CT 06492
  
  
 ---------------------------------------------------------------
 Warning -- This program may not be used in any manner that
 competes with the business of Gaussian, Inc. or will provide
 assistance to any competitor of Gaussian, Inc.  The licensee
 of this program is prohibited from giving any competitor of
 Gaussian, Inc. access to this program.  By using this program,
 the user acknowledges that Gaussian, Inc. is engaged in the
 business of creating and licensing software in the field of
 computational chemistry and represents and warrants to the
 licensee that it is not a competitor of Gaussian, Inc. and that
 it will not use this program in any manner prohibited above.
 ---------------------------------------------------------------
  

 Cite this work as:
 Gaussian 16, Revision A.03,
 M. J. Frisch, G. W. Trucks, H. B. Schlegel, G. E. Scuseria, 
 M. A. Robb, J. R. Cheeseman, G. Scalmani, V. Barone, 
 G. A. Petersson, H. Nakatsuji, X. Li, M. Caricato, A. V. Marenich, 
 J. Bloino, B. G. Janesko, R. Gomperts, B. Mennucci, H. P. Hratchian, 
 J. V. Ortiz, A. F. Izmaylov, J. L. Sonnenberg, D. Williams-Young, 
 F. Ding, F. Lipparini, F. Egidi, J. Goings, B. Peng, A. Petrone, 
 T. Henderson, D. Ranasinghe, V. G. Zakrzewski, J. Gao, N. Rega, 
 G. Zheng, W. Liang, M. Hada, M. Ehara, K. Toyota, R. Fukuda, 
 J. Hasegawa, M. Ishida, T. Nakajima, Y. Honda, O. Kitao, H. Nakai, 
 T. Vreven, K. Throssell, J. A. Montgomery, Jr., J. E. Peralta, 
 F. Ogliaro, M. J. Bearpark, J. J. Heyd, E. N. Brothers, K. N. Kudin, 
 V. N. Staroverov, T. A. Keith, R. Kobayashi, J. Normand, 
 K. Raghavachari, A. P. Rendell, J. C. Burant, S. S. Iyengar, 
 J. Tomasi, M. Cossi, J. M. Millam, M. Klene, C. Adamo, R. Cammi, 
 J. W. Ochterski, R. L. Martin, K. Morokuma, O. Farkas, 
 J. B. Foresman, and D. J. Fox, Gaussian, Inc., Wallingford CT, 2016.
 
 ******************************************
 Gaussian 16:  EM64L-G16RevA.03 25-Dec-2016
                26-Jan-2021 
 ******************************************
 %mem=30GB
 %nproc=8
 Will use up to    8 processors via shared memory.
 ----------------------------------------------------------------------
 #P LC-wHPBE/TZVP iop(3/107=0219100000, 3/108=0219100000) scf=(conver=6
 ,fermi,ndamp=35,noincfock,novaracc,vshift=500,xqc)
 ----------------------------------------------------------------------
 1/38=1,172=1/1;
 2/12=2,17=6,18=5,40=1/2;
 3/5=19,7=101,11=2,25=1,30=1,74=-71,107=219100000,108=219100000/1,2,3;
 4//1;
 5/5=100002,6=6,8=3,10=500,13=1,18=-1,22=13,38=1,93=35/2,8;
 6/7=2,8=2,9=2,10=2,28=1/1;
 99/5=1,9=1/99;
 Leave Link    1 at Tue Jan 26 00:26:46 2021, MaxMem=  4026531840 cpu:               1.6 elap:               0.2
 (Enter /opt/ohpc/pub/libs/gaussian/g16-A.03/sandybridge/g16/l101.exe)
 ----------
 H10 C12 S2
 ----------
 Symbolic Z-matrix:
 Charge =  0 Multiplicity = 1
 C                    -2.57406  -1.43439  -0.04912 
 C                    -1.3689   -0.74526  -0.21633 
 S                     0.09361  -1.6785   -0.58502 
 C                    -1.39769   0.6269   -0.04601 
 C                     1.5004    0.81193   0.07728 
 C                     1.478     0.22042   1.30703 
 C                    -3.74692  -0.7831    0.22955 
 C                    -2.58435   1.29375   0.2566 
 H                    -0.03994   1.86089  -1.54701 
 C                     2.47311   0.78653  -0.92565 
 C                     2.64532  -0.55997   1.49244 
 C                     3.6555   -0.64998   0.56353 
 C                     3.58396   0.0351   -0.65675 
 H                     2.35765   1.30229  -1.87483 
 H                     2.7634   -1.11931   2.41921 
 H                     4.52778  -1.26248   0.77318 
 H                     4.39141  -0.03819  -1.37873 
 C                    -3.75991   0.59754   0.38456 
 H                    -2.55732  -2.51417  -0.13851 
 H                    -0.52597  -2.52836  -1.4318 
 H                    -4.66547  -1.34521   0.34964 
 H                    -2.5581    2.36848   0.40667 
 H                    -4.68189   1.11503   0.61977 
 S                     0.00401   1.73877  -0.20875 
 
 ITRead=  0  0  0  0  0  0  0  0  0  0  0  0  0  0  0  0  0  0  0  0
 ITRead=  0  0  0  0
 MicOpt= -1 -1 -1 -1 -1 -1 -1 -1 -1 -1 -1 -1 -1 -1 -1 -1 -1 -1 -1 -1
 MicOpt= -1 -1 -1 -1
 NAtoms=     24 NQM=       24 NQMF=       0 NMMI=      0 NMMIF=      0
                NMic=       0 NMicF=      0.
                    Isotopes and Nuclear Properties:
 (Nuclear quadrupole moments (NQMom) in fm**2, nuclear magnetic moments (NMagM)
  in nuclear magnetons)

  Atom         1           2           3           4           5           6           7           8           9          10
 IAtWgt=          12          12          32          12          12          12          12          12           1          12
 AtmWgt=  12.0000000  12.0000000  31.9720718  12.0000000  12.0000000  12.0000000  12.0000000  12.0000000   1.0078250  12.0000000
 NucSpn=           0           0           0           0           0           0           0           0           1           0
 AtZEff=  -0.0000000  -0.0000000  -0.0000000  -0.0000000  -0.0000000  -0.0000000  -0.0000000  -0.0000000  -0.0000000  -0.0000000
 NQMom=    0.0000000   0.0000000   0.0000000   0.0000000   0.0000000   0.0000000   0.0000000   0.0000000   0.0000000   0.0000000
 NMagM=    0.0000000   0.0000000   0.0000000   0.0000000   0.0000000   0.0000000   0.0000000   0.0000000   2.7928460   0.0000000
 AtZNuc=   6.0000000   6.0000000  16.0000000   6.0000000   6.0000000   6.0000000   6.0000000   6.0000000   1.0000000   6.0000000

  Atom        11          12          13          14          15          16          17          18          19          20
 IAtWgt=          12          12          12           1           1           1           1          12           1           1
 AtmWgt=  12.0000000  12.0000000  12.0000000   1.0078250   1.0078250   1.0078250   1.0078250  12.0000000   1.0078250   1.0078250
 NucSpn=           0           0           0           1           1           1           1           0           1           1
 AtZEff=  -0.0000000  -0.0000000  -0.0000000  -0.0000000  -0.0000000  -0.0000000  -0.0000000  -0.0000000  -0.0000000  -0.0000000
 NQMom=    0.0000000   0.0000000   0.0000000   0.0000000   0.0000000   0.0000000   0.0000000   0.0000000   0.0000000   0.0000000
 NMagM=    0.0000000   0.0000000   0.0000000   2.7928460   2.7928460   2.7928460   2.7928460   0.0000000   2.7928460   2.7928460
 AtZNuc=   6.0000000   6.0000000   6.0000000   1.0000000   1.0000000   1.0000000   1.0000000   6.0000000   1.0000000   1.0000000

  Atom        21          22          23          24
 IAtWgt=           1           1           1          32
 AtmWgt=   1.0078250   1.0078250   1.0078250  31.9720718
 NucSpn=           1           1           1           0
 AtZEff=  -0.0000000  -0.0000000  -0.0000000  -0.0000000
 NQMom=    0.0000000   0.0000000   0.0000000   0.0000000
 NMagM=    2.7928460   2.7928460   2.7928460   0.0000000
 AtZNuc=   1.0000000   1.0000000   1.0000000  16.0000000
 Leave Link  101 at Tue Jan 26 00:26:46 2021, MaxMem=  4026531840 cpu:               0.8 elap:               0.1
 (Enter /opt/ohpc/pub/libs/gaussian/g16-A.03/sandybridge/g16/l202.exe)
                          Input orientation:                          
 ---------------------------------------------------------------------
 Center     Atomic      Atomic             Coordinates (Angstroms)
 Number     Number       Type             X           Y           Z
 ---------------------------------------------------------------------
      1          6           0       -2.574063   -1.434391   -0.049117
      2          6           0       -1.368901   -0.745264   -0.216328
      3         16           0        0.093606   -1.678504   -0.585022
      4          6           0       -1.397687    0.626896   -0.046009
      5          6           0        1.500395    0.811934    0.077279
      6          6           0        1.478004    0.220423    1.307027
      7          6           0       -3.746915   -0.783096    0.229547
      8          6           0       -2.584351    1.293751    0.256604
      9          1           0       -0.039943    1.860892   -1.547006
     10          6           0        2.473105    0.786527   -0.925649
     11          6           0        2.645316   -0.559969    1.492438
     12          6           0        3.655495   -0.649979    0.563531
     13          6           0        3.583956    0.035098   -0.656753
     14          1           0        2.357645    1.302286   -1.874829
     15          1           0        2.763398   -1.119309    2.419207
     16          1           0        4.527775   -1.262476    0.773175
     17          1           0        4.391412   -0.038194   -1.378729
     18          6           0       -3.759914    0.597536    0.384558
     19          1           0       -2.557315   -2.514169   -0.138510
     20          1           0       -0.525974   -2.528359   -1.431800
     21          1           0       -4.665467   -1.345208    0.349638
     22          1           0       -2.558102    2.368477    0.406674
     23          1           0       -4.681894    1.115025    0.619767
     24         16           0        0.004008    1.738768   -0.208750
 ---------------------------------------------------------------------
                    Distance matrix (angstroms):
                    1          2          3          4          5
     1  C    0.000000
     2  C    1.398310   0.000000
     3  S    2.731894   1.773640   0.000000
     4  C    2.373347   1.382990   2.798099   0.000000
     5  C    4.654370   3.277793   2.935980   2.906599   0.000000
     6  C    4.582225   3.370168   3.017007   3.203986   1.364796
     7  C    1.370190   2.419749   4.026770   2.753703   5.486490
     8  C    2.745238   2.420447   4.088287   1.394432   4.116972
     9  H    4.418634   3.213858   3.670228   2.370487   2.472095
    10  C    5.583430   4.196490   3.443025   3.972692   1.397381
    11  C    5.512071   4.366710   3.475368   4.485682   2.279394
    12  C    6.308568   5.085451   3.881249   5.247532   2.649167
    13  C    6.360017   5.033263   3.888974   5.053712   2.341688
    14  H    5.928269   4.564015   3.959114   4.231224   2.187704
    15  H    5.889006   4.915470   4.057817   5.142096   3.287781
    16  H    7.151351   6.001451   4.656139   6.273108   3.735302
    17  H    7.227384   5.918812   4.668161   5.977638   3.346738
    18  C    2.392288   2.807333   4.579308   2.401326   5.273636
    19  H    1.083601   2.132465   2.815154   3.349565   5.251146
    20  H    2.702452   2.316749   1.350247   3.554706   4.188203
    21  H    2.130946   3.398176   4.861425   3.837202   6.537989
    22  H    3.830118   3.390828   4.938934   2.141165   4.359212
    23  H    3.374890   3.890457   5.662219   3.386376   6.213441
    24  S    4.091561   2.838195   3.439092   1.796522   1.783258
                    6          7          8          9         10
     6  C    0.000000
     7  C    5.428424   0.000000
     8  C    4.331068   2.380248   0.000000
     9  H    3.625025   4.887582   3.169964   0.000000
    10  C    2.509092   6.518193   5.218511   2.802812   0.000000
    11  C    1.416335   6.519609   5.684451   4.723283   2.773058
    12  C    2.460051   7.411136   6.542780   4.941164   2.383118
    13  C    2.885448   7.429444   6.361324   4.154361   1.367823
    14  H    3.473961   6.785490   5.382045   2.483533   1.086407
    15  H    2.164270   6.876905   6.252850   5.698348   3.860640
    16  H    3.432942   8.306373   7.575188   6.000226   3.362452
    17  H    3.970908   8.329093   7.287638   4.824080   2.136667
    18  C    5.331880   1.389368   1.372238   4.377807   6.372039
    19  H    5.084424   2.132423   3.828459   5.240437   6.067892
    20  H    4.367254   4.022496   4.657912   4.417581   4.498792
    21  H    6.411710   1.083573   3.362113   5.939007   7.558430
    22  H    4.659927   3.372990   1.085470   3.227326   5.439733
    23  H    6.262346   2.151586   2.136239   5.176768   7.327362
    24  S    2.603001   4.541071   2.667245   1.344535   2.741742
                   11         12         13         14         15
    11  C    0.000000
    12  C    1.375293   0.000000
    13  C    2.419540   1.401264   0.000000
    14  H    3.858657   3.382507   2.143202   0.000000
    15  H    1.088901   2.111786   3.386370   4.946464   0.000000
    16  H    2.134129   1.086267   2.149229   4.277779   2.417218
    17  H    3.400691   2.165232   1.085636   2.485802   4.271248
    18  C    6.602589   7.521743   7.438622   6.559423   7.045634
    19  H    5.791913   6.524345   6.669524   6.460415   6.066097
    20  H    4.741604   4.999434   4.905460   4.815119   5.256962
    21  H    7.441111   8.352694   8.424432   7.828255   7.715062
    22  H    6.068792   6.909737   6.655855   5.523277   6.673328
    23  H    7.566714   8.522350   8.433269   7.470822   7.978885
    24  S    3.892909   4.431240   3.989890   2.916495   4.763297
                   16         17         18         19         20
    16  H    0.000000
    17  H    2.479547   0.000000
    18  C    8.502732   8.364057   0.000000
    19  H    7.252338   7.480201   3.376767   0.000000
    20  H    5.657274   5.512207   4.850644   2.408142   0.000000
    21  H    9.203365   9.312497   2.143712   2.459484   4.659267
    22  H    7.970433   7.568056   2.140344   4.912989   5.611464
    23  H    9.512836   9.362093   1.083128   4.273157   5.895324
    24  S    5.516893   4.876039   3.977629   4.965157   4.470470
                   21         22         23         24
    21  H    0.000000
    22  H    4.270327   0.000000
    23  H    2.475073   2.475286   0.000000
    24  S    5.623762   2.709186   4.799289   0.000000
 Stoichiometry    C12H10S2
 Framework group  C1[X(C12H10S2)]
 Deg. of freedom    66
 Full point group                 C1      NOp   1
 Largest Abelian subgroup         C1      NOp   1
 Largest concise Abelian subgroup C1      NOp   1
                         Standard orientation:                         
 ---------------------------------------------------------------------
 Center     Atomic      Atomic             Coordinates (Angstroms)
 Number     Number       Type             X           Y           Z
 ---------------------------------------------------------------------
      1          6           0        2.574063    1.434391   -0.049117
      2          6           0        1.368901    0.745264   -0.216328
      3         16           0       -0.093606    1.678504   -0.585022
      4          6           0        1.397687   -0.626896   -0.046009
      5          6           0       -1.500395   -0.811934    0.077279
      6          6           0       -1.478004   -0.220423    1.307027
      7          6           0        3.746915    0.783096    0.229547
      8          6           0        2.584351   -1.293751    0.256604
      9          1           0        0.039943   -1.860892   -1.547006
     10          6           0       -2.473105   -0.786527   -0.925649
     11          6           0       -2.645316    0.559969    1.492438
     12          6           0       -3.655495    0.649979    0.563531
     13          6           0       -3.583956   -0.035098   -0.656753
     14          1           0       -2.357645   -1.302286   -1.874829
     15          1           0       -2.763398    1.119309    2.419207
     16          1           0       -4.527775    1.262476    0.773175
     17          1           0       -4.391412    0.038194   -1.378729
     18          6           0        3.759914   -0.597536    0.384558
     19          1           0        2.557315    2.514169   -0.138510
     20          1           0        0.525974    2.528359   -1.431800
     21          1           0        4.665467    1.345208    0.349638
     22          1           0        2.558102   -2.368477    0.406674
     23          1           0        4.681894   -1.115025    0.619767
     24         16           0       -0.004008   -1.738768   -0.208750
 ---------------------------------------------------------------------
 Rotational constants (GHZ):           1.2365549           0.3949099           0.3394237
 Leave Link  202 at Tue Jan 26 00:26:46 2021, MaxMem=  4026531840 cpu:               0.2 elap:               0.0
 (Enter /opt/ohpc/pub/libs/gaussian/g16-A.03/sandybridge/g16/l301.exe)
 Standard basis: TZVP (5D, 7F)
 Ernie: Thresh=  0.10000D-02 Tol=  0.10000D-05 Strict=F.
 There are   346 symmetry adapted cartesian basis functions of A   symmetry.
 There are   332 symmetry adapted basis functions of A   symmetry.
   332 basis functions,   594 primitive gaussians,   346 cartesian basis functions
    57 alpha electrons       57 beta electrons
       nuclear repulsion energy      1040.6420683200 Hartrees.
 IExCor=33909 DFT=T Ex+Corr=LC-wHPBE ExCW=0 ScaHFX=  1.000000
 ScaDFX=  1.000000  1.000000  1.000000  1.000000 ScalE2=  1.000000  1.000000
 IRadAn=      5 IRanWt=     -1 IRanGd=            0 ICorTp=0 IEmpDi=  4
 HFx  wShort=  0.000000 wLong=  0.219100 cFull=  0.000000 cShort=  0.000000 cLong=  1.000000
 DFx  wShort=  0.000000 wLong=  0.219100 cFull=  0.000000 cShort=  1.000000 cLong=  0.000000
 NAtoms=   24 NActive=   24 NUniq=   24 SFac= 1.00D+00 NAtFMM=   60 NAOKFM=F Big=F
 Integral buffers will be    131072 words long.
 Raffenetti 2 integral format.
 Two-electron integral symmetry is turned on.
 Leave Link  301 at Tue Jan 26 00:26:46 2021, MaxMem=  4026531840 cpu:               0.5 elap:               0.1
 (Enter /opt/ohpc/pub/libs/gaussian/g16-A.03/sandybridge/g16/l302.exe)
 NPDir=0 NMtPBC=     1 NCelOv=     1 NCel=       1 NClECP=     1 NCelD=      1
         NCelK=      1 NCelE2=     1 NClLst=     1 CellRange=     0.0.
 One-electron integrals computed using PRISM.
 One-electron integral symmetry used in STVInt
 NBasis=   332 RedAO= T EigKep=  8.19D-06  NBF=   332
 NBsUse=   332 1.00D-06 EigRej= -1.00D+00 NBFU=   332
 Precomputing XC quadrature grid using
 IXCGrd= 4 IRadAn=           5 IRanWt=          -1 IRanGd=           0 AccXCQ= 0.00D+00.
 Generated NRdTot=       0 NPtTot=           0 NUsed=           0 NTot=          32
 NSgBfM=   338   338   338   338   338 MxSgAt=    24 MxSgA2=    24.
 Leave Link  302 at Tue Jan 26 00:26:47 2021, MaxMem=  4026531840 cpu:               3.0 elap:               0.4
 (Enter /opt/ohpc/pub/libs/gaussian/g16-A.03/sandybridge/g16/l303.exe)
 DipDrv:  MaxL=1.
 Leave Link  303 at Tue Jan 26 00:26:47 2021, MaxMem=  4026531840 cpu:               0.5 elap:               0.1
 (Enter /opt/ohpc/pub/libs/gaussian/g16-A.03/sandybridge/g16/l401.exe)
 ExpMin= 9.52D-02 ExpMax= 6.07D+04 ExpMxC= 2.07D+03 IAcc=3 IRadAn=         5 AccDes= 0.00D+00
 Harris functional with IExCor=33909 and IRadAn=       5 diagonalized for initial guess.
 HarFok:  IExCor=33909 AccDes= 0.00D+00 IRadAn=         5 IDoV= 1 UseB2=F ITyADJ=14
 ICtDFT=  3500011 ScaDFX=  1.000000  1.000000  1.000000  1.000000
 FoFCou: FMM=F IPFlag=           0 FMFlag=      100000 FMFlg1=           0
         NFxFlg=           0 DoJE=T BraDBF=F KetDBF=T FulRan=T
         wScrn=  0.000000 ICntrl=       500 IOpCl=  0 I1Cent=   200000004 NGrid=           0
         NMat0=    1 NMatS0=      1 NMatT0=    0 NMatD0=    1 NMtDS0=    0 NMtDT0=    0
 Petite list used in FoFCou.
 Harris En= -1245.70685091082    
 JPrj=0 DoOrth=F DoCkMO=F.
 Leave Link  401 at Tue Jan 26 00:26:49 2021, MaxMem=  4026531840 cpu:              19.3 elap:               2.4
 (Enter /opt/ohpc/pub/libs/gaussian/g16-A.03/sandybridge/g16/l502.exe)
 Integral symmetry usage will be decided dynamically.
 Closed shell SCF:
 Using DIIS extrapolation, IDIIS=    10.
 NGot=  4026531840 LenX=  4026286196 LenY=  4026166039
 Requested convergence on RMS density matrix=1.00D-06 within  32 cycles.
 Requested convergence on MAX density matrix=1.00D-04.
 Requested convergence on             energy=1.00D-04.
 Virtual orbitals will be shifted by   0.500 hartree.
 No special actions if energy rises.
 Dynamic level shift is on during FON iterations.

 Cycle   1  Pass 1  IDiag  1:
 FoFJK:  IHMeth= 1 ICntrl=       0 DoSepK=T KAlg= 0 I1Cent=           0 FoldK=F
 IRaf=         1 NMat=       1 IRICut=       1 DoRegI=T DoRafI=F ISym2E= 0 IDoP0=0 IntGTp=1.
 FoFCou: FMM=F IPFlag=           0 FMFlag=      100000 FMFlg1=           0
         NFxFlg=           0 DoJE=T BraDBF=F KetDBF=F FulRan=T
         wScrn=  0.000000 ICntrl=       500 IOpCl=  0 I1Cent=           0 NGrid=           0
         NMat0=    1 NMatS0=      1 NMatT0=    0 NMatD0=    1 NMtDS0=    0 NMtDT0=    0
 Symmetry not used in FoFCou.
 E= -1258.56781929913    
 DIIS: error= 2.21D-02 at cycle   1 NSaved=   1.
 NSaved= 1 IEnMin= 1 EnMin= -1258.56781929913     IErMin= 1 ErrMin= 2.21D-02
 ErrMax= 2.21D-02  0.00D+00 EMaxC= 1.00D+00 BMatC= 3.78D-01 BMatP= 3.78D-01
 IDIUse=1 WtCom= 1.00D+00 WtEn= 0.00D+00
 Coeff-Com:  0.100D+01
 Coeff:      0.100D+01
 Gap=     0.461 Goal=   None    Shift=    0.500
 T= 1312. Gap= 0.491 NK=0 IS=   58 IE=  332 IFin=   57
          NO(<0.9)=   0  NV(>0.1)=   0     57.00e < EF      0.00e >EF  Err=0.0D+00
 GapD=    0.461 DampG=2.000 DampE=0.500 DampFc=1.0000 IDamp=-1.
 RMSDP=6.35D-03 MaxDP=4.14D-01              OVMax= 1.25D-01

 Cycle   2  Pass 1  IDiag  1:
 E= -1258.93272480859     Delta-E=       -0.364905509460 Rises=F Damp=F
 DIIS: error= 6.35D-03 at cycle   2 NSaved=   2.
 NSaved= 2 IEnMin= 2 EnMin= -1258.93272480859     IErMin= 2 ErrMin= 6.35D-03
 ErrMax= 6.35D-03  0.00D+00 EMaxC= 1.00D+00 BMatC= 4.66D-02 BMatP= 3.78D-01
 IDIUse=1 WtCom= 1.00D+00 WtEn= 0.00D+00
 Coeff-Com:  0.236D+00 0.764D+00
 Coeff:      0.236D+00 0.764D+00
 Gap=     0.240 Goal=   None    Shift=    0.500
 T= 1149. Gap= 0.705 NK=0 IS=   58 IE=  332 IFin=   57
          NO(<0.9)=   0  NV(>0.1)=   0     57.00e < EF      0.00e >EF  Err=0.0D+00
 GapD=    0.240 DampG=1.000 DampE=1.000 DampFc=1.0000 IDamp=-1.
 RMSDP=1.26D-03 MaxDP=5.94D-02 DE=-3.65D-01 OVMax= 1.72D-02

 Cycle   3  Pass 1  IDiag  1:
 E= -1258.96399115713     Delta-E=       -0.031266348543 Rises=F Damp=F
 DIIS: error= 2.23D-03 at cycle   3 NSaved=   3.
 NSaved= 3 IEnMin= 3 EnMin= -1258.96399115713     IErMin= 3 ErrMin= 2.23D-03
 ErrMax= 2.23D-03  0.00D+00 EMaxC= 1.00D+00 BMatC= 5.06D-03 BMatP= 4.66D-02
 IDIUse=1 WtCom= 1.00D+00 WtEn= 0.00D+00
 Coeff-Com:  0.726D-01-0.107D+00 0.103D+01
 Coeff:      0.726D-01-0.107D+00 0.103D+01
 Gap=     0.224 Goal=   None    Shift=    0.500
 T=  850. Gap= 0.724 NK=0 IS=   58 IE=  332 IFin=   57
          NO(<0.9)=   0  NV(>0.1)=   0     57.00e < EF      0.00e >EF  Err=0.0D+00
 GapD=    0.224 DampG=1.000 DampE=1.000 DampFc=1.0000 IDamp=-1.
 RMSDP=9.95D-04 MaxDP=6.67D-02 DE=-3.13D-02 OVMax= 9.94D-03

 Cycle   4  Pass 1  IDiag  1:
 E= -1258.96924921367     Delta-E=       -0.005258056544 Rises=F Damp=F
 DIIS: error= 1.35D-03 at cycle   4 NSaved=   4.
 NSaved= 4 IEnMin= 4 EnMin= -1258.96924921367     IErMin= 4 ErrMin= 1.35D-03
 ErrMax= 1.35D-03  0.00D+00 EMaxC= 1.00D+00 BMatC= 6.08D-04 BMatP= 5.06D-03
 IDIUse=1 WtCom= 1.00D+00 WtEn= 0.00D+00
 Coeff-Com:  0.257D-02-0.256D-01-0.309D+00 0.133D+01
 Coeff:      0.257D-02-0.256D-01-0.309D+00 0.133D+01
 Gap=     0.227 Goal=   None    Shift=    0.500
 T=  174. Gap= 0.727 NK=0 IS=   58 IE=  332 IFin=   57
          NO(<0.9)=   0  NV(>0.1)=   0     57.00e < EF      0.00e >EF  Err=0.0D+00
 GapD=    0.227 DampG=1.000 DampE=1.000 DampFc=1.0000 IDamp=-1.
 RMSDP=6.16D-04 MaxDP=4.71D-02 DE=-5.26D-03 OVMax= 7.18D-03

 Cycle   5  Pass 1  IDiag  1:
 E= -1258.97024822014     Delta-E=       -0.000999006469 Rises=F Damp=F
 DIIS: error= 1.04D-03 at cycle   5 NSaved=   5.
 NSaved= 5 IEnMin= 5 EnMin= -1258.97024822014     IErMin= 5 ErrMin= 1.04D-03
 ErrMax= 1.04D-03  0.00D+00 EMaxC= 1.00D+00 BMatC= 1.10D-04 BMatP= 6.08D-04
 IDIUse=1 WtCom= 1.00D+00 WtEn= 0.00D+00
 Coeff-Com: -0.751D-02 0.108D-01-0.142D+00-0.261D+00 0.140D+01
 Coeff:     -0.751D-02 0.108D-01-0.142D+00-0.261D+00 0.140D+01
 Gap=     0.228 Goal=   None    Shift=    0.500
 GapD=    0.228 DampG=1.000 DampE=1.000 DampFc=1.0000 IDamp=-1.
 RMSDP=3.34D-04 MaxDP=2.55D-02 DE=-9.99D-04 OVMax= 6.15D-03

 Cycle   6  Pass 1  IDiag  1:
 E= -1258.97056972657     Delta-E=       -0.000321506424 Rises=F Damp=F
 DIIS: error= 7.82D-04 at cycle   6 NSaved=   6.
 NSaved= 6 IEnMin= 6 EnMin= -1258.97056972657     IErMin= 6 ErrMin= 7.82D-04
 ErrMax= 7.82D-04  0.00D+00 EMaxC= 1.00D+00 BMatC= 3.54D-05 BMatP= 1.10D-04
 IDIUse=1 WtCom= 1.00D+00 WtEn= 0.00D+00
 Coeff-Com: -0.518D-02 0.538D-02 0.791D-01-0.575D+00-0.120D-01 0.151D+01
 Coeff:     -0.518D-02 0.538D-02 0.791D-01-0.575D+00-0.120D-01 0.151D+01
 Gap=     0.229 Goal=   None    Shift=    0.500
 RMSDP=2.02D-04 MaxDP=1.52D-02 DE=-3.22D-04 OVMax= 4.52D-03

 Cycle   7  Pass 1  IDiag  1:
 E= -1258.97071379293     Delta-E=       -0.000144066367 Rises=F Damp=F
 DIIS: error= 5.55D-04 at cycle   7 NSaved=   7.
 NSaved= 7 IEnMin= 7 EnMin= -1258.97071379293     IErMin= 7 ErrMin= 5.55D-04
 ErrMax= 5.55D-04  0.00D+00 EMaxC= 1.00D+00 BMatC= 1.23D-05 BMatP= 3.54D-05
 IDIUse=1 WtCom= 1.00D+00 WtEn= 0.00D+00
 Coeff-Com: -0.121D-03-0.379D-02 0.477D-01 0.388D-01-0.524D+00-0.415D+00
 Coeff-Com:  0.186D+01
 Coeff:     -0.121D-03-0.379D-02 0.477D-01 0.388D-01-0.524D+00-0.415D+00
 Coeff:      0.186D+01
 Gap=     0.229 Goal=   None    Shift=    0.500
 RMSDP=1.12D-04 MaxDP=7.06D-03 DE=-1.44D-04 OVMax= 3.39D-03

 Cycle   8  Pass 1  IDiag  1:
 E= -1258.97077706174     Delta-E=       -0.000063268804 Rises=F Damp=F
 DIIS: error= 3.80D-04 at cycle   8 NSaved=   8.
 NSaved= 8 IEnMin= 8 EnMin= -1258.97077706174     IErMin= 8 ErrMin= 3.80D-04
 ErrMax= 3.80D-04  0.00D+00 EMaxC= 1.00D+00 BMatC= 5.15D-06 BMatP= 1.23D-05
 IDIUse=1 WtCom= 1.00D+00 WtEn= 0.00D+00
 Coeff-Com:  0.502D-03-0.261D-02-0.229D-01 0.228D+00-0.236D+00-0.543D+00
 Coeff-Com: -0.324D+00 0.190D+01
 Coeff:      0.502D-03-0.261D-02-0.229D-01 0.228D+00-0.236D+00-0.543D+00
 Coeff:     -0.324D+00 0.190D+01
 Gap=     0.229 Goal=   None    Shift=    0.500
 RMSDP=6.27D-05 MaxDP=2.84D-03 DE=-6.33D-05 OVMax= 2.39D-03

 Cycle   9  Pass 1  IDiag  1:
 E= -1258.97080522059     Delta-E=       -0.000028158850 Rises=F Damp=F
 DIIS: error= 2.60D-04 at cycle   9 NSaved=   9.
 NSaved= 9 IEnMin= 9 EnMin= -1258.97080522059     IErMin= 9 ErrMin= 2.60D-04
 ErrMax= 2.60D-04  0.00D+00 EMaxC= 1.00D+00 BMatC= 2.21D-06 BMatP= 5.15D-06
 IDIUse=1 WtCom= 1.00D+00 WtEn= 0.00D+00
 Coeff-Com: -0.162D-03-0.347D-03-0.168D-01 0.385D-01 0.908D-01 0.107D+00
 Coeff-Com: -0.113D+01 0.520D-01 0.186D+01
 Coeff:     -0.162D-03-0.347D-03-0.168D-01 0.385D-01 0.908D-01 0.107D+00
 Coeff:     -0.113D+01 0.520D-01 0.186D+01
 Gap=     0.229 Goal=   None    Shift=    0.500
 RMSDP=3.84D-05 MaxDP=1.31D-03 DE=-2.82D-05 OVMax= 1.67D-03

 Cycle  10  Pass 1  IDiag  1:
 E= -1258.97081752388     Delta-E=       -0.000012303291 Rises=F Damp=F
 DIIS: error= 1.68D-04 at cycle  10 NSaved=  10.
 NSaved=10 IEnMin=10 EnMin= -1258.97081752388     IErMin=10 ErrMin= 1.68D-04
 ErrMax= 1.68D-04  0.00D+00 EMaxC= 1.00D+00 BMatC= 9.28D-07 BMatP= 2.21D-06
 IDIUse=1 WtCom= 1.00D+00 WtEn= 0.00D+00
 Coeff-Com: -0.324D-03 0.308D-03 0.273D-02-0.475D-01 0.934D-01 0.236D+00
 Coeff-Com: -0.510D+00-0.497D+00-0.381D-02 0.173D+01
 Coeff:     -0.324D-03 0.308D-03 0.273D-02-0.475D-01 0.934D-01 0.236D+00
 Coeff:     -0.510D+00-0.497D+00-0.381D-02 0.173D+01
 Gap=     0.230 Goal=   None    Shift=    0.500
 RMSDP=2.38D-05 MaxDP=8.88D-04 DE=-1.23D-05 OVMax= 1.09D-03

 Cycle  11  Pass 1  IDiag  1:
 E= -1258.97082263499     Delta-E=       -0.000005111107 Rises=F Damp=F
 DIIS: error= 1.12D-04 at cycle  11 NSaved=  11.
 NSaved=11 IEnMin=11 EnMin= -1258.97082263499     IErMin=11 ErrMin= 1.12D-04
 ErrMax= 1.12D-04  0.00D+00 EMaxC= 1.00D+00 BMatC= 4.05D-07 BMatP= 9.28D-07
 IDIUse=1 WtCom= 1.00D+00 WtEn= 0.00D+00
 Coeff-Com: -0.171D-03 0.319D-03 0.527D-02-0.122D-01-0.222D-01 0.175D-01
 Coeff-Com:  0.276D+00-0.114D+00-0.109D+01-0.131D+00 0.207D+01
 Coeff:     -0.171D-03 0.319D-03 0.527D-02-0.122D-01-0.222D-01 0.175D-01
 Coeff:      0.276D+00-0.114D+00-0.109D+01-0.131D+00 0.207D+01
 Gap=     0.230 Goal=   None    Shift=    0.500
 RMSDP=1.49D-05 MaxDP=5.63D-04 DE=-5.11D-06 OVMax= 7.22D-04

 Cycle  12  Pass 1  IDiag  1:
 E= -1258.97082478915     Delta-E=       -0.000002154163 Rises=F Damp=F
 DIIS: error= 6.98D-05 at cycle  12 NSaved=  12.
 NSaved=12 IEnMin=12 EnMin= -1258.97082478915     IErMin=12 ErrMin= 6.98D-05
 ErrMax= 6.98D-05  0.00D+00 EMaxC= 1.00D+00 BMatC= 1.79D-07 BMatP= 4.05D-07
 IDIUse=1 WtCom= 1.00D+00 WtEn= 0.00D+00
 Coeff-Com: -0.383D-04 0.392D-04 0.143D-02 0.903D-02-0.368D-01-0.412D-01
 Coeff-Com:  0.230D+00 0.124D+00-0.571D+00-0.560D+00 0.261D-01 0.182D+01
 Coeff:     -0.383D-04 0.392D-04 0.143D-02 0.903D-02-0.368D-01-0.412D-01
 Coeff:      0.230D+00 0.124D+00-0.571D+00-0.560D+00 0.261D-01 0.182D+01
 Gap=     0.230 Goal=   None    Shift=    0.500
 RMSDP=9.73D-06 MaxDP=3.67D-04 DE=-2.15D-06 OVMax= 4.60D-04

 Cycle  13  Pass 1  IDiag  1:
 E= -1258.97082569198     Delta-E=       -0.000000902832 Rises=F Damp=F
 DIIS: error= 4.42D-05 at cycle  13 NSaved=  13.
 NSaved=13 IEnMin=13 EnMin= -1258.97082569198     IErMin=13 ErrMin= 4.42D-05
 ErrMax= 4.42D-05  0.00D+00 EMaxC= 1.00D+00 BMatC= 7.41D-08 BMatP= 1.79D-07
 IDIUse=1 WtCom= 1.00D+00 WtEn= 0.00D+00
 Coeff-Com:  0.524D-05-0.208D-03-0.145D-02 0.647D-02-0.206D-02-0.363D-02
 Coeff-Com: -0.784D-01 0.115D+00 0.276D+00-0.156D+00-0.111D+01-0.305D+00
 Coeff-Com:  0.226D+01
 Coeff:      0.524D-05-0.208D-03-0.145D-02 0.647D-02-0.206D-02-0.363D-02
 Coeff:     -0.784D-01 0.115D+00 0.276D+00-0.156D+00-0.111D+01-0.305D+00
 Coeff:      0.226D+01
 Gap=     0.230 Goal=   None    Shift=    0.500
 RMSDP=6.20D-06 MaxDP=2.20D-04 DE=-9.03D-07 OVMax= 3.11D-04

 Cycle  14  Pass 1  IDiag  1:
 E= -1258.97082606847     Delta-E=       -0.000000376484 Rises=F Damp=F
 DIIS: error= 2.73D-05 at cycle  14 NSaved=  14.
 NSaved=14 IEnMin=14 EnMin= -1258.97082606847     IErMin=14 ErrMin= 2.73D-05
 ErrMax= 2.73D-05  0.00D+00 EMaxC= 1.00D+00 BMatC= 3.37D-08 BMatP= 7.41D-08
 IDIUse=1 WtCom= 1.00D+00 WtEn= 0.00D+00
 Coeff-Com: -0.752D-05-0.863D-04-0.566D-03-0.923D-03 0.957D-02 0.124D-01
 Coeff-Com: -0.745D-01-0.164D-01 0.215D+00 0.154D+00-0.317D+00-0.976D+00
 Coeff-Com: -0.178D+00 0.217D+01
 Coeff:     -0.752D-05-0.863D-04-0.566D-03-0.923D-03 0.957D-02 0.124D-01
 Coeff:     -0.745D-01-0.164D-01 0.215D+00 0.154D+00-0.317D+00-0.976D+00
 Coeff:     -0.178D+00 0.217D+01
 Gap=     0.230 Goal=   None    Shift=    0.500
 RMSDP=4.34D-06 MaxDP=1.45D-04 DE=-3.76D-07 OVMax= 2.35D-04

 Cycle  15  Pass 1  IDiag  1:
 E= -1258.97082623412     Delta-E=       -0.000000165650 Rises=F Damp=F
 DIIS: error= 1.63D-05 at cycle  15 NSaved=  15.
 NSaved=15 IEnMin=15 EnMin= -1258.97082623412     IErMin=15 ErrMin= 1.63D-05
 ErrMax= 1.63D-05  0.00D+00 EMaxC= 1.00D+00 BMatC= 1.47D-08 BMatP= 3.37D-08
 IDIUse=1 WtCom= 1.00D+00 WtEn= 0.00D+00
 Coeff-Com: -0.199D-04 0.331D-04 0.481D-03-0.296D-02 0.415D-02 0.976D-02
 Coeff-Com: -0.262D-03-0.612D-01-0.227D-01 0.171D+00 0.307D+00-0.477D+00
 Coeff-Com: -0.103D+01 0.869D-01 0.202D+01
 Coeff:     -0.199D-04 0.331D-04 0.481D-03-0.296D-02 0.415D-02 0.976D-02
 Coeff:     -0.262D-03-0.612D-01-0.227D-01 0.171D+00 0.307D+00-0.477D+00
 Coeff:     -0.103D+01 0.869D-01 0.202D+01
 Gap=     0.230 Goal=   None    Shift=    0.500
 RMSDP=3.01D-06 MaxDP=9.45D-05 DE=-1.66D-07 OVMax= 1.74D-04

 Cycle  16  Pass 1  IDiag  1:
 E= -1258.97082630730     Delta-E=       -0.000000073185 Rises=F Damp=F
 DIIS: error= 1.01D-05 at cycle  16 NSaved=  16.
 NSaved=16 IEnMin=16 EnMin= -1258.97082630730     IErMin=16 ErrMin= 1.01D-05
 ErrMax= 1.01D-05  0.00D+00 EMaxC= 1.00D+00 BMatC= 6.82D-09 BMatP= 1.47D-08
 IDIUse=1 WtCom= 1.00D+00 WtEn= 0.00D+00
 Coeff-Com: -0.318D-05 0.285D-04 0.492D-03-0.118D-02-0.224D-02 0.217D-02
 Coeff-Com:  0.236D-01-0.142D-01-0.707D-01 0.635D-02 0.169D+00 0.244D+00
 Coeff-Com: -0.333D+00-0.119D+01-0.154D+00 0.232D+01
 Coeff:     -0.318D-05 0.285D-04 0.492D-03-0.118D-02-0.224D-02 0.217D-02
 Coeff:      0.236D-01-0.142D-01-0.707D-01 0.635D-02 0.169D+00 0.244D+00
 Coeff:     -0.333D+00-0.119D+01-0.154D+00 0.232D+01
 Gap=     0.230 Goal=   None    Shift=    0.500
 RMSDP=2.21D-06 MaxDP=7.34D-05 DE=-7.32D-08 OVMax= 1.35D-04

 Cycle  17  Pass 1  IDiag  1:
 E= -1258.97082634232     Delta-E=       -0.000000035020 Rises=F Damp=F
 DIIS: error= 5.89D-06 at cycle  17 NSaved=  17.
 NSaved=17 IEnMin=17 EnMin= -1258.97082634232     IErMin=17 ErrMin= 5.89D-06
 ErrMax= 5.89D-06  0.00D+00 EMaxC= 1.00D+00 BMatC= 3.01D-09 BMatP= 6.82D-09
 IDIUse=1 WtCom= 1.00D+00 WtEn= 0.00D+00
 Coeff-Com:  0.392D-05-0.693D-05 0.247D-05 0.812D-03-0.287D-02-0.236D-02
 Coeff-Com:  0.867D-02 0.202D-01-0.191D-01-0.652D-01-0.449D-01 0.309D+00
 Coeff-Com:  0.233D+00-0.658D+00-0.103D+01 0.164D+00 0.209D+01
 Coeff:      0.392D-05-0.693D-05 0.247D-05 0.812D-03-0.287D-02-0.236D-02
 Coeff:      0.867D-02 0.202D-01-0.191D-01-0.652D-01-0.449D-01 0.309D+00
 Coeff:      0.233D+00-0.658D+00-0.103D+01 0.164D+00 0.209D+01
 Gap=     0.230 Goal=   None    Shift=    0.500
 RMSDP=1.52D-06 MaxDP=5.17D-05 DE=-3.50D-08 OVMax= 9.96D-05

 Cycle  18  Pass 1  IDiag  1:
 E= -1258.97082635855     Delta-E=       -0.000000016229 Rises=F Damp=F
 DIIS: error= 4.08D-06 at cycle  18 NSaved=  18.
 NSaved=18 IEnMin=18 EnMin= -1258.97082635855     IErMin=18 ErrMin= 4.08D-06
 ErrMax= 4.08D-06  0.00D+00 EMaxC= 1.00D+00 BMatC= 1.34D-09 BMatP= 3.01D-09
 IDIUse=1 WtCom= 1.00D+00 WtEn= 0.00D+00
 Coeff-Com:  0.139D-05-0.172D-04-0.210D-03 0.982D-03-0.542D-03-0.217D-02
 Coeff-Com: -0.526D-02 0.173D-01 0.183D-01-0.373D-01-0.846D-01 0.693D-01
 Coeff-Com:  0.246D+00 0.927D-01-0.610D+00-0.910D+00 0.457D+00 0.175D+01
 Coeff:      0.139D-05-0.172D-04-0.210D-03 0.982D-03-0.542D-03-0.217D-02
 Coeff:     -0.526D-02 0.173D-01 0.183D-01-0.373D-01-0.846D-01 0.693D-01
 Coeff:      0.246D+00 0.927D-01-0.610D+00-0.910D+00 0.457D+00 0.175D+01
 Gap=     0.230 Goal=   None    Shift=    0.500
 RMSDP=1.05D-06 MaxDP=3.53D-05 DE=-1.62D-08 OVMax= 6.94D-05

 Cycle  19  Pass 1  IDiag  1:
 E= -1258.97082636595     Delta-E=       -0.000000007401 Rises=F Damp=F
 DIIS: error= 2.88D-06 at cycle  19 NSaved=  19.
 NSaved=19 IEnMin=19 EnMin= -1258.97082636595     IErMin=19 ErrMin= 2.88D-06
 ErrMax= 2.88D-06  0.00D+00 EMaxC= 1.00D+00 BMatC= 6.22D-10 BMatP= 1.34D-09
 IDIUse=1 WtCom= 1.00D+00 WtEn= 0.00D+00
 Coeff-Com: -0.213D-05-0.662D-05-0.892D-04 0.127D-03 0.952D-03-0.114D-03
 Coeff-Com: -0.570D-02-0.241D-03 0.154D-01 0.110D-01-0.143D-01-0.899D-01
 Coeff-Com:  0.185D-01 0.285D+00 0.669D-01-0.495D+00-0.816D+00-0.558D-01
 Coeff-Com:  0.208D+01
 Coeff:     -0.213D-05-0.662D-05-0.892D-04 0.127D-03 0.952D-03-0.114D-03
 Coeff:     -0.570D-02-0.241D-03 0.154D-01 0.110D-01-0.143D-01-0.899D-01
 Coeff:      0.185D-01 0.285D+00 0.669D-01-0.495D+00-0.816D+00-0.558D-01
 Coeff:      0.208D+01
 Gap=     0.230 Goal=   None    Shift=    0.500
 RMSDP=7.37D-07 MaxDP=2.50D-05 DE=-7.40D-09 OVMax= 4.96D-05

 SCF Done:  E(RLC-wHPBE) =  -1258.97082637     A.U. after   19 cycles
            NFock= 19  Conv=0.74D-06     -V/T= 2.0033
 KE= 1.254790921769D+03 PE=-5.047240410390D+03 EE= 1.492836593935D+03
 Leave Link  502 at Tue Jan 26 00:30:17 2021, MaxMem=  4026531840 cpu:            1660.7 elap:             207.9
 (Enter /opt/ohpc/pub/libs/gaussian/g16-A.03/sandybridge/g16/l508.exe)
 QCSCF skips out because SCF is already converged.
 Leave Link  508 at Tue Jan 26 00:30:17 2021, MaxMem=  4026531840 cpu:               0.1 elap:               0.0
 (Enter /opt/ohpc/pub/libs/gaussian/g16-A.03/sandybridge/g16/l601.exe)
 Copying SCF densities to generalized density rwf, IOpCl= 0 IROHF=0.

 **********************************************************************

            Population analysis using the SCF density.

 **********************************************************************

 Orbital symmetries:
       Occupied  (A) (A) (A) (A) (A) (A) (A) (A) (A) (A) (A) (A)
                 (A) (A) (A) (A) (A) (A) (A) (A) (A) (A) (A) (A)
                 (A) (A) (A) (A) (A) (A) (A) (A) (A) (A) (A) (A)
                 (A) (A) (A) (A) (A) (A) (A) (A) (A) (A) (A) (A)
                 (A) (A) (A) (A) (A) (A) (A) (A) (A)
       Virtual   (A) (A) (A) (A) (A) (A) (A) (A) (A) (A) (A) (A)
                 (A) (A) (A) (A) (A) (A) (A) (A) (A) (A) (A) (A)
                 (A) (A) (A) (A) (A) (A) (A) (A) (A) (A) (A) (A)
                 (A) (A) (A) (A) (A) (A) (A) (A) (A) (A) (A) (A)
                 (A) (A) (A) (A) (A) (A) (A) (A) (A) (A) (A) (A)
                 (A) (A) (A) (A) (A) (A) (A) (A) (A) (A) (A) (A)
                 (A) (A) (A) (A) (A) (A) (A) (A) (A) (A) (A) (A)
                 (A) (A) (A) (A) (A) (A) (A) (A) (A) (A) (A) (A)
                 (A) (A) (A) (A) (A) (A) (A) (A) (A) (A) (A) (A)
                 (A) (A) (A) (A) (A) (A) (A) (A) (A) (A) (A) (A)
                 (A) (A) (A) (A) (A) (A) (A) (A) (A) (A) (A) (A)
                 (A) (A) (A) (A) (A) (A) (A) (A) (A) (A) (A) (A)
                 (A) (A) (A) (A) (A) (A) (A) (A) (A) (A) (A) (A)
                 (A) (A) (A) (A) (A) (A) (A) (A) (A) (A) (A) (A)
                 (A) (A) (A) (A) (A) (A) (A) (A) (A) (A) (A) (A)
                 (A) (A) (A) (A) (A) (A) (A) (A) (A) (A) (A) (A)
                 (A) (A) (A) (A) (A) (A) (A) (A) (A) (A) (A) (A)
                 (A) (A) (A) (A) (A) (A) (A) (A) (A) (A) (A) (A)
                 (A) (A) (A) (A) (A) (A) (A) (A) (A) (A) (A) (A)
                 (A) (A) (A) (A) (A) (A) (A) (A) (A) (A) (A) (A)
                 (A) (A) (A) (A) (A) (A) (A) (A) (A) (A) (A) (A)
                 (A) (A) (A) (A) (A) (A) (A) (A) (A) (A) (A) (A)
                 (A) (A) (A) (A) (A) (A) (A) (A) (A) (A) (A)
 The electronic state is 1-A.
 Alpha  occ. eigenvalues --  -88.31144 -88.22077 -10.07981 -10.07788 -10.04538
 Alpha  occ. eigenvalues --  -10.03689 -10.03591 -10.03451 -10.02456 -10.00340
 Alpha  occ. eigenvalues --   -9.99158  -9.98517  -9.97432  -9.93724  -7.90183
 Alpha  occ. eigenvalues --   -7.81312  -5.92147  -5.91983  -5.91285  -5.83500
 Alpha  occ. eigenvalues --   -5.83015  -5.82217  -0.96899  -0.92551  -0.88056
 Alpha  occ. eigenvalues --   -0.86831  -0.82740  -0.78737  -0.77663  -0.76042
 Alpha  occ. eigenvalues --   -0.70124  -0.68302  -0.65058  -0.63050  -0.60682
 Alpha  occ. eigenvalues --   -0.57723  -0.56930  -0.55101  -0.53384  -0.51647
 Alpha  occ. eigenvalues --   -0.51234  -0.49297  -0.49216  -0.47060  -0.46110
 Alpha  occ. eigenvalues --   -0.45857  -0.44714  -0.43361  -0.41921  -0.40414
 Alpha  occ. eigenvalues --   -0.37591  -0.37520  -0.36281  -0.32086  -0.29554
 Alpha  occ. eigenvalues --   -0.29481  -0.22627
 Alpha virt. eigenvalues --    0.00334   0.01625   0.03720   0.05045   0.07298
 Alpha virt. eigenvalues --    0.08484   0.09122   0.10160   0.11477   0.12481
 Alpha virt. eigenvalues --    0.13776   0.14298   0.16349   0.16605   0.16934
 Alpha virt. eigenvalues --    0.18459   0.18692   0.19773   0.20818   0.21303
 Alpha virt. eigenvalues --    0.23459   0.24022   0.24449   0.25463   0.26045
 Alpha virt. eigenvalues --    0.27036   0.27159   0.28346   0.28651   0.29340
 Alpha virt. eigenvalues --    0.29691   0.30101   0.31341   0.31834   0.32168
 Alpha virt. eigenvalues --    0.32799   0.33506   0.33714   0.34122   0.35048
 Alpha virt. eigenvalues --    0.35776   0.36193   0.37372   0.38142   0.39020
 Alpha virt. eigenvalues --    0.39818   0.40445   0.41063   0.41401   0.43067
 Alpha virt. eigenvalues --    0.43493   0.44115   0.44445   0.44837   0.44901
 Alpha virt. eigenvalues --    0.46091   0.46798   0.47527   0.48286   0.48676
 Alpha virt. eigenvalues --    0.48987   0.49858   0.50273   0.51310   0.51457
 Alpha virt. eigenvalues --    0.52525   0.52952   0.54256   0.54789   0.55693
 Alpha virt. eigenvalues --    0.55926   0.56434   0.58047   0.58587   0.59037
 Alpha virt. eigenvalues --    0.59603   0.60820   0.62345   0.62869   0.64385
 Alpha virt. eigenvalues --    0.65705   0.66031   0.68386   0.69856   0.71558
 Alpha virt. eigenvalues --    0.73439   0.74558   0.75153   0.76079   0.77219
 Alpha virt. eigenvalues --    0.77566   0.79299   0.79835   0.81212   0.82954
 Alpha virt. eigenvalues --    0.85642   0.89619   0.90873   0.91638   0.92081
 Alpha virt. eigenvalues --    0.94015   0.94947   0.97252   0.98499   0.99577
 Alpha virt. eigenvalues --    1.07587   1.10433   1.19592   1.22397   1.25509
 Alpha virt. eigenvalues --    1.27103   1.28173   1.29094   1.29109   1.30430
 Alpha virt. eigenvalues --    1.31103   1.32220   1.33024   1.33799   1.34171
 Alpha virt. eigenvalues --    1.35469   1.37680   1.37986   1.38252   1.38915
 Alpha virt. eigenvalues --    1.42307   1.43213   1.43464   1.44381   1.45915
 Alpha virt. eigenvalues --    1.46732   1.47223   1.47384   1.48394   1.50555
 Alpha virt. eigenvalues --    1.51114   1.51312   1.51813   1.52213   1.53073
 Alpha virt. eigenvalues --    1.53776   1.54763   1.55491   1.55942   1.56999
 Alpha virt. eigenvalues --    1.57710   1.58399   1.58662   1.58885   1.61139
 Alpha virt. eigenvalues --    1.62215   1.63980   1.64440   1.65326   1.67008
 Alpha virt. eigenvalues --    1.67964   1.68315   1.71675   1.72056   1.72618
 Alpha virt. eigenvalues --    1.75185   1.75928   1.78680   1.79739   1.80090
 Alpha virt. eigenvalues --    1.81956   1.82224   1.82676   1.84028   1.84355
 Alpha virt. eigenvalues --    1.85854   1.86709   1.89180   1.90125   1.90395
 Alpha virt. eigenvalues --    1.91488   1.92869   1.93369   1.93821   1.94385
 Alpha virt. eigenvalues --    1.95120   1.96790   1.97245   1.99122   2.00147
 Alpha virt. eigenvalues --    2.02147   2.02826   2.03960   2.04165   2.06685
 Alpha virt. eigenvalues --    2.07761   2.09934   2.11137   2.14632   2.16791
 Alpha virt. eigenvalues --    2.18698   2.22364   2.27258   2.27991   2.29995
 Alpha virt. eigenvalues --    2.31327   2.31701   2.32398   2.33231   2.35120
 Alpha virt. eigenvalues --    2.35980   2.36423   2.37928   2.38399   2.38758
 Alpha virt. eigenvalues --    2.40190   2.41623   2.44107   2.46255   2.48973
 Alpha virt. eigenvalues --    2.50257   2.51186   2.53468   2.53659   2.56408
 Alpha virt. eigenvalues --    2.57662   2.59426   2.59855   2.62748   2.64288
 Alpha virt. eigenvalues --    2.64857   2.66168   2.66396   2.67784   2.69541
 Alpha virt. eigenvalues --    2.71215   2.72089   2.73082   2.73809   2.75552
 Alpha virt. eigenvalues --    2.81231   2.83340   2.83821   2.87783   2.96256
 Alpha virt. eigenvalues --    2.99348   3.03378   3.07176   3.10680   3.12538
 Alpha virt. eigenvalues --    3.13144   3.13732   3.15318   3.17527   3.18772
 Alpha virt. eigenvalues --    3.20276   3.22909   3.29029   3.30306   3.36431
 Alpha virt. eigenvalues --    3.38355   3.40233   3.54867   3.57930   3.72473
 Alpha virt. eigenvalues --    3.73775  18.95881  19.06429  21.06060  21.34050
 Alpha virt. eigenvalues --   21.61262  21.69481  21.71406  21.74509  21.91179
 Alpha virt. eigenvalues --   21.92981  21.95454  22.00806  22.09539  22.13872
          Condensed to atoms (all electrons):
               1          2          3          4          5          6
     1  C    6.356881  -0.394963  -0.106856   0.352343  -0.006210  -0.028483
     2  C   -0.394963   6.458352   0.459432  -0.466240  -0.029639   0.030627
     3  S   -0.106856   0.459432  15.479888  -0.162013   0.011764  -0.056819
     4  C    0.352343  -0.466240  -0.162013   6.572540  -0.040839  -0.023065
     5  C   -0.006210  -0.029639   0.011764  -0.040839   7.092301  -0.053379
     6  C   -0.028483   0.030627  -0.056819  -0.023065  -0.053379   5.905427
     7  C   -0.405890   0.369771   0.059301  -0.346152   0.002797   0.006191
     8  C   -0.445325   0.130771   0.029611  -0.257467   0.020522   0.000862
     9  H   -0.003282   0.016392   0.005250  -0.025028  -0.063354   0.013226
    10  C   -0.005709   0.031777  -0.016625  -0.024692  -0.732200   0.176582
    11  C    0.001977   0.002861   0.019084  -0.004622   0.109227   0.364519
    12  C   -0.000781   0.001287  -0.010826  -0.002726  -0.448760   0.124552
    13  C    0.000422  -0.000660   0.016794   0.002211   0.246169  -0.114717
    14  H    0.000027   0.000337  -0.000686  -0.000391  -0.069255   0.003139
    15  H    0.000163  -0.000155  -0.000497   0.000159   0.038728  -0.084700
    16  H    0.000004  -0.000059  -0.000432   0.000042   0.004752   0.013559
    17  H    0.000000   0.000014   0.000193  -0.000002   0.025710  -0.000168
    18  C    0.357769  -0.346418  -0.011187   0.271650  -0.005310  -0.007556
    19  H    0.464560  -0.116031  -0.012789   0.035797   0.000100  -0.000680
    20  H   -0.051339  -0.006126   0.302580   0.006622   0.000530   0.004947
    21  H   -0.062486   0.024171  -0.000061  -0.004878   0.000008   0.000031
    22  H   -0.005916   0.035176   0.000059  -0.082753   0.002142   0.000525
    23  H    0.024498  -0.004833  -0.000051   0.028247  -0.000029  -0.000040
    24  S    0.029701  -0.213719  -0.008977   0.376024   0.244047  -0.100535
               7          8          9         10         11         12
     1  C   -0.405890  -0.445325  -0.003282  -0.005709   0.001977  -0.000781
     2  C    0.369771   0.130771   0.016392   0.031777   0.002861   0.001287
     3  S    0.059301   0.029611   0.005250  -0.016625   0.019084  -0.010826
     4  C   -0.346152  -0.257467  -0.025028  -0.024692  -0.004622  -0.002726
     5  C    0.002797   0.020522  -0.063354  -0.732200   0.109227  -0.448760
     6  C    0.006191   0.000862   0.013226   0.176582   0.364519   0.124552
     7  C    5.687838   0.314559   0.000983   0.000853  -0.000536   0.000110
     8  C    0.314559   5.915032  -0.013577  -0.006878  -0.002265  -0.000077
     9  H    0.000983  -0.013577   0.640994   0.045167  -0.001073   0.001263
    10  C    0.000853  -0.006878   0.045167   6.468228  -0.370478   0.359829
    11  C   -0.000536  -0.002265  -0.001073  -0.370478   5.325242   0.102146
    12  C    0.000110  -0.000077   0.001263   0.359829   0.102146   5.589189
    13  C   -0.000075   0.000417  -0.000054   0.066392   0.186992   0.163048
    14  H   -0.000004  -0.000169  -0.000690   0.374730  -0.000313   0.009570
    15  H   -0.000022  -0.000055  -0.000023  -0.008656   0.448120  -0.143698
    16  H    0.000000   0.000001  -0.000013   0.009449  -0.041349   0.393272
    17  H   -0.000000  -0.000001  -0.000030  -0.069879   0.012739  -0.056110
    18  C    0.098417   0.047329  -0.004270  -0.001118   0.000420  -0.000070
    19  H   -0.066336  -0.007280  -0.000040  -0.000081   0.000048  -0.000030
    20  H    0.006073   0.002461   0.000269   0.001074  -0.000530   0.000611
    21  H    0.426052   0.022921   0.000007   0.000002  -0.000001   0.000000
    22  H    0.015932   0.396697   0.000875   0.000315  -0.000035   0.000006
    23  H   -0.072613  -0.081253  -0.000019  -0.000003   0.000001  -0.000000
    24  S   -0.004665  -0.003060   0.275325  -0.319183   0.025288  -0.015231
              13         14         15         16         17         18
     1  C    0.000422   0.000027   0.000163   0.000004   0.000000   0.357769
     2  C   -0.000660   0.000337  -0.000155  -0.000059   0.000014  -0.346418
     3  S    0.016794  -0.000686  -0.000497  -0.000432   0.000193  -0.011187
     4  C    0.002211  -0.000391   0.000159   0.000042  -0.000002   0.271650
     5  C    0.246169  -0.069255   0.038728   0.004752   0.025710  -0.005310
     6  C   -0.114717   0.003139  -0.084700   0.013559  -0.000168  -0.007556
     7  C   -0.000075  -0.000004  -0.000022   0.000000  -0.000000   0.098417
     8  C    0.000417  -0.000169  -0.000055   0.000001  -0.000001   0.047329
     9  H   -0.000054  -0.000690  -0.000023  -0.000013  -0.000030  -0.004270
    10  C    0.066392   0.374730  -0.008656   0.009449  -0.069879  -0.001118
    11  C    0.186992  -0.000313   0.448120  -0.041349   0.012739   0.000420
    12  C    0.163048   0.009570  -0.143698   0.393272  -0.056110  -0.000070
    13  C    5.205783  -0.004705   0.022958  -0.059089   0.416439   0.000051
    14  H   -0.004705   0.594586   0.000145  -0.000209  -0.008229   0.000024
    15  H    0.022958   0.000145   0.642420  -0.006899  -0.000295   0.000017
    16  H   -0.059089  -0.000209  -0.006899   0.597884  -0.006957   0.000000
    17  H    0.416439  -0.008229  -0.000295  -0.006957   0.586295   0.000000
    18  C    0.000051   0.000024   0.000017   0.000000   0.000000   5.355226
    19  H    0.000014   0.000000   0.000007   0.000000  -0.000000   0.021476
    20  H   -0.000752  -0.000074  -0.000058  -0.000005   0.000002  -0.001913
    21  H   -0.000000  -0.000000  -0.000000  -0.000000  -0.000000  -0.069465
    22  H   -0.000002  -0.000005  -0.000001  -0.000000  -0.000000  -0.040635
    23  H    0.000000   0.000000   0.000000   0.000000   0.000000   0.441578
    24  S    0.040138  -0.003938  -0.000108   0.000151  -0.000242   0.009887
              19         20         21         22         23         24
     1  C    0.464560  -0.051339  -0.062486  -0.005916   0.024498   0.029701
     2  C   -0.116031  -0.006126   0.024171   0.035176  -0.004833  -0.213719
     3  S   -0.012789   0.302580  -0.000061   0.000059  -0.000051  -0.008977
     4  C    0.035797   0.006622  -0.004878  -0.082753   0.028247   0.376024
     5  C    0.000100   0.000530   0.000008   0.002142  -0.000029   0.244047
     6  C   -0.000680   0.004947   0.000031   0.000525  -0.000040  -0.100535
     7  C   -0.066336   0.006073   0.426052   0.015932  -0.072613  -0.004665
     8  C   -0.007280   0.002461   0.022921   0.396697  -0.081253  -0.003060
     9  H   -0.000040   0.000269   0.000007   0.000875  -0.000019   0.275325
    10  C   -0.000081   0.001074   0.000002   0.000315  -0.000003  -0.319183
    11  C    0.000048  -0.000530  -0.000001  -0.000035   0.000001   0.025288
    12  C   -0.000030   0.000611   0.000000   0.000006  -0.000000  -0.015231
    13  C    0.000014  -0.000752  -0.000000  -0.000002   0.000000   0.040138
    14  H    0.000000  -0.000074  -0.000000  -0.000005   0.000000  -0.003938
    15  H    0.000007  -0.000058  -0.000000  -0.000001   0.000000  -0.000108
    16  H    0.000000  -0.000005  -0.000000  -0.000000   0.000000   0.000151
    17  H   -0.000000   0.000002  -0.000000  -0.000000   0.000000  -0.000242
    18  C    0.021476  -0.001913  -0.069465  -0.040635   0.441578   0.009887
    19  H    0.554734  -0.004172  -0.008554  -0.000065  -0.000168   0.000095
    20  H   -0.004172   0.655153   0.000065   0.000021  -0.000010  -0.000755
    21  H   -0.008554   0.000065   0.557502  -0.000165  -0.008331   0.000035
    22  H   -0.000065   0.000021  -0.000165   0.533665  -0.007755   0.004103
    23  H   -0.000168  -0.000010  -0.008331  -0.007755   0.559644  -0.000626
    24  S    0.000095  -0.000755   0.000035   0.004103  -0.000626  15.329390
 Mulliken charges:
               1
     1  C   -0.071105
     2  C    0.017876
     3  S    0.003860
     4  C   -0.204769
     5  C   -0.349822
     6  C   -0.174046
     7  C   -0.092585
     8  C   -0.063777
     9  H    0.111701
    10  C    0.021104
    11  C   -0.177463
    12  C   -0.066577
    13  C   -0.187775
    14  H    0.106111
    15  H    0.092451
    16  H    0.095897
    17  H    0.100521
    18  C   -0.115903
    19  H    0.139395
    20  H    0.085325
    21  H    0.123147
    22  H    0.147815
    23  H    0.121763
    24  S    0.336855
 Sum of Mulliken charges =  -0.00000
 Mulliken charges with hydrogens summed into heavy atoms:
               1
     1  C    0.068290
     2  C    0.017876
     3  S    0.089185
     4  C   -0.204769
     5  C   -0.349822
     6  C   -0.174046
     7  C    0.030562
     8  C    0.084039
    10  C    0.127215
    11  C   -0.085012
    12  C    0.029321
    13  C   -0.087254
    18  C    0.005860
    24  S    0.448556
 Electronic spatial extent (au):  <R**2>=           3318.0506
 Charge=             -0.0000 electrons
 Dipole moment (field-independent basis, Debye):
    X=              4.6151    Y=             -0.9149    Z=             -4.4694  Tot=              6.4893
 Quadrupole moment (field-independent basis, Debye-Ang):
   XX=            -86.1924   YY=            -87.0747   ZZ=           -101.0253
   XY=             -1.1419   XZ=              5.4157   YZ=              2.5341
 Traceless Quadrupole moment (field-independent basis, Debye-Ang):
   XX=              5.2384   YY=              4.3561   ZZ=             -9.5945
   XY=             -1.1419   XZ=              5.4157   YZ=              2.5341
 Octapole moment (field-independent basis, Debye-Ang**2):
  XXX=             54.4410  YYY=              1.5197  ZZZ=            -25.1470  XYY=             21.6195
  XXY=             14.4916  XXZ=              0.7495  XZZ=             -1.9916  YZZ=              0.4287
  YYZ=            -14.5849  XYZ=            -10.1579
 Hexadecapole moment (field-independent basis, Debye-Ang**3):
 XXXX=          -3064.6448 YYYY=           -867.4283 ZZZZ=           -432.4242 XXXY=            -48.7490
 XXXZ=             91.4704 YYYX=              4.8031 YYYZ=            -13.6761 ZZZX=             16.1025
 ZZZY=             19.0358 XXYY=           -674.7096 XXZZ=           -646.5341 YYZZ=           -206.8883
 XXYZ=             10.2852 YYXZ=              5.0384 ZZXY=             -5.8569
 N-N= 1.040642068320D+03 E-N=-5.047240436827D+03  KE= 1.254790921769D+03
 No NMR shielding tensors so no spin-rotation constants.
 Leave Link  601 at Tue Jan 26 00:30:17 2021, MaxMem=  4026531840 cpu:               2.0 elap:               0.3
 (Enter /opt/ohpc/pub/libs/gaussian/g16-A.03/sandybridge/g16/l9999.exe)

 Test job not archived.
 1\1\GINC-CNODE146\SP\RLC-wHPBE\TZVP\C12H10S2\RDU230\26-Jan-2021\0\\#P 
 LC-wHPBE/TZVP iop(3/107=0219100000, 3/108=0219100000) scf=(conver=6,fe
 rmi,ndamp=35,noincfock,novaracc,vshift=500,xqc)\\H10 C12 S2\\0,1\C,0,-
 2.574063,-1.434391,-0.049117\C,0,-1.368901,-0.745264,-0.216328\S,0,0.0
 93606,-1.678504,-0.585022\C,0,-1.397687,0.626896,-0.046009\C,0,1.50039
 5,0.811934,0.077279\C,0,1.478004,0.220423,1.307027\C,0,-3.746915,-0.78
 3096,0.229547\C,0,-2.584351,1.293751,0.256604\H,0,-0.039943,1.860892,-
 1.547006\C,0,2.473105,0.786527,-0.925649\C,0,2.645316,-0.559969,1.4924
 38\C,0,3.655495,-0.649979,0.563531\C,0,3.583956,0.035098,-0.656753\H,0
 ,2.357645,1.302286,-1.874829\H,0,2.763398,-1.119309,2.419207\H,0,4.527
 775,-1.262476,0.773175\H,0,4.391412,-0.038194,-1.378729\C,0,-3.759914,
 0.597536,0.384558\H,0,-2.557315,-2.514169,-0.13851\H,0,-0.525974,-2.52
 8359,-1.4318\H,0,-4.665467,-1.345208,0.349638\H,0,-2.558102,2.368477,0
 .406674\H,0,-4.681894,1.115025,0.619767\S,0,0.004008,1.738768,-0.20875
 \\Version=EM64L-G16RevA.03\State=1-A\HF=-1258.9708264\RMSD=7.368e-07\D
 ipole=-1.8157147,0.3599537,-1.7583924\Quadrupole=3.8946224,3.2386573,-
 7.1332797,-0.8489793,-4.0264112,-1.8840115\PG=C01 [X(C12H10S2)]\\@


 A people that values its privileges above its principles soon loses both.
 -- Dwight D. Eisenhower
 Job cpu time:       0 days  0 hours 28 minutes  9.6 seconds.
 Elapsed time:       0 days  0 hours  3 minutes 31.7 seconds.
 File lengths (MBytes):  RWF=     92 Int=      0 D2E=      0 Chk=     12 Scr=      8
 Normal termination of Gaussian 16 at Tue Jan 26 00:30:17 2021.
