 Entering Gaussian System, Link 0=g16
 Input=mol_ta_NN_frag_tune_n4.gjf
 Output=mol_ta_NN_frag_tune_n4.log
 Initial command:
 /opt/ohpc/pub/libs/gaussian/g16-A.03/sandybridge/g16/l1.exe "/mnt/gpfs2_4m/scratch/rdu230/ondemand/projects/init_structures/gaussian/wtuning/mol_ta_NN_frag/tuning_mol_ta_NN_frag_ocycle0/Gau-23907.inp" -scrdir="/mnt/gpfs2_4m/scratch/rdu230/ondemand/projects/init_structures/gaussian/wtuning/mol_ta_NN_frag/tuning_mol_ta_NN_frag_ocycle0/"
 Entering Link 1 = /opt/ohpc/pub/libs/gaussian/g16-A.03/sandybridge/g16/l1.exe PID=     23908.
  
 Copyright (c) 1988,1990,1992,1993,1995,1998,2003,2009,2016,
            Gaussian, Inc.  All Rights Reserved.
  
 This is part of the Gaussian(R) 16 program.  It is based on
 the Gaussian(R) 09 system (copyright 2009, Gaussian, Inc.),
 the Gaussian(R) 03 system (copyright 2003, Gaussian, Inc.),
 the Gaussian(R) 98 system (copyright 1998, Gaussian, Inc.),
 the Gaussian(R) 94 system (copyright 1995, Gaussian, Inc.),
 the Gaussian 92(TM) system (copyright 1992, Gaussian, Inc.),
 the Gaussian 90(TM) system (copyright 1990, Gaussian, Inc.),
 the Gaussian 88(TM) system (copyright 1988, Gaussian, Inc.),
 the Gaussian 86(TM) system (copyright 1986, Carnegie Mellon
 University), and the Gaussian 82(TM) system (copyright 1983,
 Carnegie Mellon University). Gaussian is a federally registered
 trademark of Gaussian, Inc.
  
 This software contains proprietary and confidential information,
 including trade secrets, belonging to Gaussian, Inc.
  
 This software is provided under written license and may be
 used, copied, transmitted, or stored only in accord with that
 written license.
  
 The following legend is applicable only to US Government
 contracts under FAR:
  
                    RESTRICTED RIGHTS LEGEND
  
 Use, reproduction and disclosure by the US Government is
 subject to restrictions as set forth in subparagraphs (a)
 and (c) of the Commercial Computer Software - Restricted
 Rights clause in FAR 52.227-19.
  
 Gaussian, Inc.
 340 Quinnipiac St., Bldg. 40, Wallingford CT 06492
  
  
 ---------------------------------------------------------------
 Warning -- This program may not be used in any manner that
 competes with the business of Gaussian, Inc. or will provide
 assistance to any competitor of Gaussian, Inc.  The licensee
 of this program is prohibited from giving any competitor of
 Gaussian, Inc. access to this program.  By using this program,
 the user acknowledges that Gaussian, Inc. is engaged in the
 business of creating and licensing software in the field of
 computational chemistry and represents and warrants to the
 licensee that it is not a competitor of Gaussian, Inc. and that
 it will not use this program in any manner prohibited above.
 ---------------------------------------------------------------
  

 Cite this work as:
 Gaussian 16, Revision A.03,
 M. J. Frisch, G. W. Trucks, H. B. Schlegel, G. E. Scuseria, 
 M. A. Robb, J. R. Cheeseman, G. Scalmani, V. Barone, 
 G. A. Petersson, H. Nakatsuji, X. Li, M. Caricato, A. V. Marenich, 
 J. Bloino, B. G. Janesko, R. Gomperts, B. Mennucci, H. P. Hratchian, 
 J. V. Ortiz, A. F. Izmaylov, J. L. Sonnenberg, D. Williams-Young, 
 F. Ding, F. Lipparini, F. Egidi, J. Goings, B. Peng, A. Petrone, 
 T. Henderson, D. Ranasinghe, V. G. Zakrzewski, J. Gao, N. Rega, 
 G. Zheng, W. Liang, M. Hada, M. Ehara, K. Toyota, R. Fukuda, 
 J. Hasegawa, M. Ishida, T. Nakajima, Y. Honda, O. Kitao, H. Nakai, 
 T. Vreven, K. Throssell, J. A. Montgomery, Jr., J. E. Peralta, 
 F. Ogliaro, M. J. Bearpark, J. J. Heyd, E. N. Brothers, K. N. Kudin, 
 V. N. Staroverov, T. A. Keith, R. Kobayashi, J. Normand, 
 K. Raghavachari, A. P. Rendell, J. C. Burant, S. S. Iyengar, 
 J. Tomasi, M. Cossi, J. M. Millam, M. Klene, C. Adamo, R. Cammi, 
 J. W. Ochterski, R. L. Martin, K. Morokuma, O. Farkas, 
 J. B. Foresman, and D. J. Fox, Gaussian, Inc., Wallingford CT, 2016.
 
 ******************************************
 Gaussian 16:  EM64L-G16RevA.03 25-Dec-2016
                25-Jan-2021 
 ******************************************
 %mem=30GB
 %nproc=8
 Will use up to    8 processors via shared memory.
 ----------------------------------------------------------------------
 #P LC-wHPBE/TZVP iop(3/107=0209700000, 3/108=0209700000) scf=(conver=6
 ,fermi,ndamp=35,noincfock,novaracc,vshift=500,xqc)
 ----------------------------------------------------------------------
 1/38=1,172=1/1;
 2/12=2,17=6,18=5,40=1/2;
 3/5=19,7=101,11=2,25=1,30=1,74=-71,107=209700000,108=209700000/1,2,3;
 4//1;
 5/5=100002,6=6,8=3,10=500,13=1,18=-1,22=13,38=1,93=35/2,8;
 6/7=2,8=2,9=2,10=2,28=1/1;
 99/5=1,9=1/99;
 Leave Link    1 at Mon Jan 25 23:13:45 2021, MaxMem=  4026531840 cpu:               1.6 elap:               0.2
 (Enter /opt/ohpc/pub/libs/gaussian/g16-A.03/sandybridge/g16/l101.exe)
 ----------
 H10 C12 S2
 ----------
 Symbolic Z-matrix:
 Charge =  0 Multiplicity = 1
 C                    -2.57406  -1.43439  -0.04912 
 C                    -1.3689   -0.74526  -0.21633 
 S                     0.09361  -1.6785   -0.58502 
 C                    -1.39769   0.6269   -0.04601 
 C                     1.5004    0.81193   0.07728 
 C                     1.478     0.22042   1.30703 
 C                    -3.74692  -0.7831    0.22955 
 C                    -2.58435   1.29375   0.2566 
 H                    -0.03994   1.86089  -1.54701 
 C                     2.47311   0.78653  -0.92565 
 C                     2.64532  -0.55997   1.49244 
 C                     3.6555   -0.64998   0.56353 
 C                     3.58396   0.0351   -0.65675 
 H                     2.35765   1.30229  -1.87483 
 H                     2.7634   -1.11931   2.41921 
 H                     4.52778  -1.26248   0.77318 
 H                     4.39141  -0.03819  -1.37873 
 C                    -3.75991   0.59754   0.38456 
 H                    -2.55732  -2.51417  -0.13851 
 H                    -0.52597  -2.52836  -1.4318 
 H                    -4.66547  -1.34521   0.34964 
 H                    -2.5581    2.36848   0.40667 
 H                    -4.68189   1.11503   0.61977 
 S                     0.00401   1.73877  -0.20875 
 
 ITRead=  0  0  0  0  0  0  0  0  0  0  0  0  0  0  0  0  0  0  0  0
 ITRead=  0  0  0  0
 MicOpt= -1 -1 -1 -1 -1 -1 -1 -1 -1 -1 -1 -1 -1 -1 -1 -1 -1 -1 -1 -1
 MicOpt= -1 -1 -1 -1
 NAtoms=     24 NQM=       24 NQMF=       0 NMMI=      0 NMMIF=      0
                NMic=       0 NMicF=      0.
                    Isotopes and Nuclear Properties:
 (Nuclear quadrupole moments (NQMom) in fm**2, nuclear magnetic moments (NMagM)
  in nuclear magnetons)

  Atom         1           2           3           4           5           6           7           8           9          10
 IAtWgt=          12          12          32          12          12          12          12          12           1          12
 AtmWgt=  12.0000000  12.0000000  31.9720718  12.0000000  12.0000000  12.0000000  12.0000000  12.0000000   1.0078250  12.0000000
 NucSpn=           0           0           0           0           0           0           0           0           1           0
 AtZEff=  -0.0000000  -0.0000000  -0.0000000  -0.0000000  -0.0000000  -0.0000000  -0.0000000  -0.0000000  -0.0000000  -0.0000000
 NQMom=    0.0000000   0.0000000   0.0000000   0.0000000   0.0000000   0.0000000   0.0000000   0.0000000   0.0000000   0.0000000
 NMagM=    0.0000000   0.0000000   0.0000000   0.0000000   0.0000000   0.0000000   0.0000000   0.0000000   2.7928460   0.0000000
 AtZNuc=   6.0000000   6.0000000  16.0000000   6.0000000   6.0000000   6.0000000   6.0000000   6.0000000   1.0000000   6.0000000

  Atom        11          12          13          14          15          16          17          18          19          20
 IAtWgt=          12          12          12           1           1           1           1          12           1           1
 AtmWgt=  12.0000000  12.0000000  12.0000000   1.0078250   1.0078250   1.0078250   1.0078250  12.0000000   1.0078250   1.0078250
 NucSpn=           0           0           0           1           1           1           1           0           1           1
 AtZEff=  -0.0000000  -0.0000000  -0.0000000  -0.0000000  -0.0000000  -0.0000000  -0.0000000  -0.0000000  -0.0000000  -0.0000000
 NQMom=    0.0000000   0.0000000   0.0000000   0.0000000   0.0000000   0.0000000   0.0000000   0.0000000   0.0000000   0.0000000
 NMagM=    0.0000000   0.0000000   0.0000000   2.7928460   2.7928460   2.7928460   2.7928460   0.0000000   2.7928460   2.7928460
 AtZNuc=   6.0000000   6.0000000   6.0000000   1.0000000   1.0000000   1.0000000   1.0000000   6.0000000   1.0000000   1.0000000

  Atom        21          22          23          24
 IAtWgt=           1           1           1          32
 AtmWgt=   1.0078250   1.0078250   1.0078250  31.9720718
 NucSpn=           1           1           1           0
 AtZEff=  -0.0000000  -0.0000000  -0.0000000  -0.0000000
 NQMom=    0.0000000   0.0000000   0.0000000   0.0000000
 NMagM=    2.7928460   2.7928460   2.7928460   0.0000000
 AtZNuc=   1.0000000   1.0000000   1.0000000  16.0000000
 Leave Link  101 at Mon Jan 25 23:13:45 2021, MaxMem=  4026531840 cpu:               0.8 elap:               0.1
 (Enter /opt/ohpc/pub/libs/gaussian/g16-A.03/sandybridge/g16/l202.exe)
                          Input orientation:                          
 ---------------------------------------------------------------------
 Center     Atomic      Atomic             Coordinates (Angstroms)
 Number     Number       Type             X           Y           Z
 ---------------------------------------------------------------------
      1          6           0       -2.574063   -1.434391   -0.049117
      2          6           0       -1.368901   -0.745264   -0.216328
      3         16           0        0.093606   -1.678504   -0.585022
      4          6           0       -1.397687    0.626896   -0.046009
      5          6           0        1.500395    0.811934    0.077279
      6          6           0        1.478004    0.220423    1.307027
      7          6           0       -3.746915   -0.783096    0.229547
      8          6           0       -2.584351    1.293751    0.256604
      9          1           0       -0.039943    1.860892   -1.547006
     10          6           0        2.473105    0.786527   -0.925649
     11          6           0        2.645316   -0.559969    1.492438
     12          6           0        3.655495   -0.649979    0.563531
     13          6           0        3.583956    0.035098   -0.656753
     14          1           0        2.357645    1.302286   -1.874829
     15          1           0        2.763398   -1.119309    2.419207
     16          1           0        4.527775   -1.262476    0.773175
     17          1           0        4.391412   -0.038194   -1.378729
     18          6           0       -3.759914    0.597536    0.384558
     19          1           0       -2.557315   -2.514169   -0.138510
     20          1           0       -0.525974   -2.528359   -1.431800
     21          1           0       -4.665467   -1.345208    0.349638
     22          1           0       -2.558102    2.368477    0.406674
     23          1           0       -4.681894    1.115025    0.619767
     24         16           0        0.004008    1.738768   -0.208750
 ---------------------------------------------------------------------
                    Distance matrix (angstroms):
                    1          2          3          4          5
     1  C    0.000000
     2  C    1.398310   0.000000
     3  S    2.731894   1.773640   0.000000
     4  C    2.373347   1.382990   2.798099   0.000000
     5  C    4.654370   3.277793   2.935980   2.906599   0.000000
     6  C    4.582225   3.370168   3.017007   3.203986   1.364796
     7  C    1.370190   2.419749   4.026770   2.753703   5.486490
     8  C    2.745238   2.420447   4.088287   1.394432   4.116972
     9  H    4.418634   3.213858   3.670228   2.370487   2.472095
    10  C    5.583430   4.196490   3.443025   3.972692   1.397381
    11  C    5.512071   4.366710   3.475368   4.485682   2.279394
    12  C    6.308568   5.085451   3.881249   5.247532   2.649167
    13  C    6.360017   5.033263   3.888974   5.053712   2.341688
    14  H    5.928269   4.564015   3.959114   4.231224   2.187704
    15  H    5.889006   4.915470   4.057817   5.142096   3.287781
    16  H    7.151351   6.001451   4.656139   6.273108   3.735302
    17  H    7.227384   5.918812   4.668161   5.977638   3.346738
    18  C    2.392288   2.807333   4.579308   2.401326   5.273636
    19  H    1.083601   2.132465   2.815154   3.349565   5.251146
    20  H    2.702452   2.316749   1.350247   3.554706   4.188203
    21  H    2.130946   3.398176   4.861425   3.837202   6.537989
    22  H    3.830118   3.390828   4.938934   2.141165   4.359212
    23  H    3.374890   3.890457   5.662219   3.386376   6.213441
    24  S    4.091561   2.838195   3.439092   1.796522   1.783258
                    6          7          8          9         10
     6  C    0.000000
     7  C    5.428424   0.000000
     8  C    4.331068   2.380248   0.000000
     9  H    3.625025   4.887582   3.169964   0.000000
    10  C    2.509092   6.518193   5.218511   2.802812   0.000000
    11  C    1.416335   6.519609   5.684451   4.723283   2.773058
    12  C    2.460051   7.411136   6.542780   4.941164   2.383118
    13  C    2.885448   7.429444   6.361324   4.154361   1.367823
    14  H    3.473961   6.785490   5.382045   2.483533   1.086407
    15  H    2.164270   6.876905   6.252850   5.698348   3.860640
    16  H    3.432942   8.306373   7.575188   6.000226   3.362452
    17  H    3.970908   8.329093   7.287638   4.824080   2.136667
    18  C    5.331880   1.389368   1.372238   4.377807   6.372039
    19  H    5.084424   2.132423   3.828459   5.240437   6.067892
    20  H    4.367254   4.022496   4.657912   4.417581   4.498792
    21  H    6.411710   1.083573   3.362113   5.939007   7.558430
    22  H    4.659927   3.372990   1.085470   3.227326   5.439733
    23  H    6.262346   2.151586   2.136239   5.176768   7.327362
    24  S    2.603001   4.541071   2.667245   1.344535   2.741742
                   11         12         13         14         15
    11  C    0.000000
    12  C    1.375293   0.000000
    13  C    2.419540   1.401264   0.000000
    14  H    3.858657   3.382507   2.143202   0.000000
    15  H    1.088901   2.111786   3.386370   4.946464   0.000000
    16  H    2.134129   1.086267   2.149229   4.277779   2.417218
    17  H    3.400691   2.165232   1.085636   2.485802   4.271248
    18  C    6.602589   7.521743   7.438622   6.559423   7.045634
    19  H    5.791913   6.524345   6.669524   6.460415   6.066097
    20  H    4.741604   4.999434   4.905460   4.815119   5.256962
    21  H    7.441111   8.352694   8.424432   7.828255   7.715062
    22  H    6.068792   6.909737   6.655855   5.523277   6.673328
    23  H    7.566714   8.522350   8.433269   7.470822   7.978885
    24  S    3.892909   4.431240   3.989890   2.916495   4.763297
                   16         17         18         19         20
    16  H    0.000000
    17  H    2.479547   0.000000
    18  C    8.502732   8.364057   0.000000
    19  H    7.252338   7.480201   3.376767   0.000000
    20  H    5.657274   5.512207   4.850644   2.408142   0.000000
    21  H    9.203365   9.312497   2.143712   2.459484   4.659267
    22  H    7.970433   7.568056   2.140344   4.912989   5.611464
    23  H    9.512836   9.362093   1.083128   4.273157   5.895324
    24  S    5.516893   4.876039   3.977629   4.965157   4.470470
                   21         22         23         24
    21  H    0.000000
    22  H    4.270327   0.000000
    23  H    2.475073   2.475286   0.000000
    24  S    5.623762   2.709186   4.799289   0.000000
 Stoichiometry    C12H10S2
 Framework group  C1[X(C12H10S2)]
 Deg. of freedom    66
 Full point group                 C1      NOp   1
 Largest Abelian subgroup         C1      NOp   1
 Largest concise Abelian subgroup C1      NOp   1
                         Standard orientation:                         
 ---------------------------------------------------------------------
 Center     Atomic      Atomic             Coordinates (Angstroms)
 Number     Number       Type             X           Y           Z
 ---------------------------------------------------------------------
      1          6           0        2.574063    1.434391   -0.049117
      2          6           0        1.368901    0.745264   -0.216328
      3         16           0       -0.093606    1.678504   -0.585022
      4          6           0        1.397687   -0.626896   -0.046009
      5          6           0       -1.500395   -0.811934    0.077279
      6          6           0       -1.478004   -0.220423    1.307027
      7          6           0        3.746915    0.783096    0.229547
      8          6           0        2.584351   -1.293751    0.256604
      9          1           0        0.039943   -1.860892   -1.547006
     10          6           0       -2.473105   -0.786527   -0.925649
     11          6           0       -2.645316    0.559969    1.492438
     12          6           0       -3.655495    0.649979    0.563531
     13          6           0       -3.583956   -0.035098   -0.656753
     14          1           0       -2.357645   -1.302286   -1.874829
     15          1           0       -2.763398    1.119309    2.419207
     16          1           0       -4.527775    1.262476    0.773175
     17          1           0       -4.391412    0.038194   -1.378729
     18          6           0        3.759914   -0.597536    0.384558
     19          1           0        2.557315    2.514169   -0.138510
     20          1           0        0.525974    2.528359   -1.431800
     21          1           0        4.665467    1.345208    0.349638
     22          1           0        2.558102   -2.368477    0.406674
     23          1           0        4.681894   -1.115025    0.619767
     24         16           0       -0.004008   -1.738768   -0.208750
 ---------------------------------------------------------------------
 Rotational constants (GHZ):           1.2365549           0.3949099           0.3394237
 Leave Link  202 at Mon Jan 25 23:13:45 2021, MaxMem=  4026531840 cpu:               0.2 elap:               0.0
 (Enter /opt/ohpc/pub/libs/gaussian/g16-A.03/sandybridge/g16/l301.exe)
 Standard basis: TZVP (5D, 7F)
 Ernie: Thresh=  0.10000D-02 Tol=  0.10000D-05 Strict=F.
 There are   346 symmetry adapted cartesian basis functions of A   symmetry.
 There are   332 symmetry adapted basis functions of A   symmetry.
   332 basis functions,   594 primitive gaussians,   346 cartesian basis functions
    57 alpha electrons       57 beta electrons
       nuclear repulsion energy      1040.6420683200 Hartrees.
 IExCor=33909 DFT=T Ex+Corr=LC-wHPBE ExCW=0 ScaHFX=  1.000000
 ScaDFX=  1.000000  1.000000  1.000000  1.000000 ScalE2=  1.000000  1.000000
 IRadAn=      5 IRanWt=     -1 IRanGd=            0 ICorTp=0 IEmpDi=  4
 HFx  wShort=  0.000000 wLong=  0.209700 cFull=  0.000000 cShort=  0.000000 cLong=  1.000000
 DFx  wShort=  0.000000 wLong=  0.209700 cFull=  0.000000 cShort=  1.000000 cLong=  0.000000
 NAtoms=   24 NActive=   24 NUniq=   24 SFac= 1.00D+00 NAtFMM=   60 NAOKFM=F Big=F
 Integral buffers will be    131072 words long.
 Raffenetti 2 integral format.
 Two-electron integral symmetry is turned on.
 Leave Link  301 at Mon Jan 25 23:13:45 2021, MaxMem=  4026531840 cpu:               0.4 elap:               0.1
 (Enter /opt/ohpc/pub/libs/gaussian/g16-A.03/sandybridge/g16/l302.exe)
 NPDir=0 NMtPBC=     1 NCelOv=     1 NCel=       1 NClECP=     1 NCelD=      1
         NCelK=      1 NCelE2=     1 NClLst=     1 CellRange=     0.0.
 One-electron integrals computed using PRISM.
 One-electron integral symmetry used in STVInt
 NBasis=   332 RedAO= T EigKep=  8.19D-06  NBF=   332
 NBsUse=   332 1.00D-06 EigRej= -1.00D+00 NBFU=   332
 Precomputing XC quadrature grid using
 IXCGrd= 4 IRadAn=           5 IRanWt=          -1 IRanGd=           0 AccXCQ= 0.00D+00.
 Generated NRdTot=       0 NPtTot=           0 NUsed=           0 NTot=          32
 NSgBfM=   338   338   338   338   338 MxSgAt=    24 MxSgA2=    24.
 Leave Link  302 at Mon Jan 25 23:13:46 2021, MaxMem=  4026531840 cpu:               3.2 elap:               0.4
 (Enter /opt/ohpc/pub/libs/gaussian/g16-A.03/sandybridge/g16/l303.exe)
 DipDrv:  MaxL=1.
 Leave Link  303 at Mon Jan 25 23:13:46 2021, MaxMem=  4026531840 cpu:               0.4 elap:               0.1
 (Enter /opt/ohpc/pub/libs/gaussian/g16-A.03/sandybridge/g16/l401.exe)
 ExpMin= 9.52D-02 ExpMax= 6.07D+04 ExpMxC= 2.07D+03 IAcc=3 IRadAn=         5 AccDes= 0.00D+00
 Harris functional with IExCor=33909 and IRadAn=       5 diagonalized for initial guess.
 HarFok:  IExCor=33909 AccDes= 0.00D+00 IRadAn=         5 IDoV= 1 UseB2=F ITyADJ=14
 ICtDFT=  3500011 ScaDFX=  1.000000  1.000000  1.000000  1.000000
 FoFCou: FMM=F IPFlag=           0 FMFlag=      100000 FMFlg1=           0
         NFxFlg=           0 DoJE=T BraDBF=F KetDBF=T FulRan=T
         wScrn=  0.000000 ICntrl=       500 IOpCl=  0 I1Cent=   200000004 NGrid=           0
         NMat0=    1 NMatS0=      1 NMatT0=    0 NMatD0=    1 NMtDS0=    0 NMtDT0=    0
 Petite list used in FoFCou.
 Harris En= -1246.23539387605    
 JPrj=0 DoOrth=F DoCkMO=F.
 Leave Link  401 at Mon Jan 25 23:13:48 2021, MaxMem=  4026531840 cpu:              19.5 elap:               2.5
 (Enter /opt/ohpc/pub/libs/gaussian/g16-A.03/sandybridge/g16/l502.exe)
 Integral symmetry usage will be decided dynamically.
 Closed shell SCF:
 Using DIIS extrapolation, IDIIS=    10.
 NGot=  4026531840 LenX=  4026286196 LenY=  4026166039
 Requested convergence on RMS density matrix=1.00D-06 within  32 cycles.
 Requested convergence on MAX density matrix=1.00D-04.
 Requested convergence on             energy=1.00D-04.
 Virtual orbitals will be shifted by   0.500 hartree.
 No special actions if energy rises.
 Dynamic level shift is on during FON iterations.

 Cycle   1  Pass 1  IDiag  1:
 FoFJK:  IHMeth= 1 ICntrl=       0 DoSepK=T KAlg= 0 I1Cent=           0 FoldK=F
 IRaf=         1 NMat=       1 IRICut=       1 DoRegI=T DoRafI=F ISym2E= 0 IDoP0=0 IntGTp=1.
 FoFCou: FMM=F IPFlag=           0 FMFlag=      100000 FMFlg1=           0
         NFxFlg=           0 DoJE=T BraDBF=F KetDBF=F FulRan=T
         wScrn=  0.000000 ICntrl=       500 IOpCl=  0 I1Cent=           0 NGrid=           0
         NMat0=    1 NMatS0=      1 NMatT0=    0 NMatD0=    1 NMtDS0=    0 NMtDT0=    0
 Symmetry not used in FoFCou.
 E= -1258.55679479820    
 DIIS: error= 2.23D-02 at cycle   1 NSaved=   1.
 NSaved= 1 IEnMin= 1 EnMin= -1258.55679479820     IErMin= 1 ErrMin= 2.23D-02
 ErrMax= 2.23D-02  0.00D+00 EMaxC= 1.00D+00 BMatC= 3.81D-01 BMatP= 3.81D-01
 IDIUse=1 WtCom= 1.00D+00 WtEn= 0.00D+00
 Coeff-Com:  0.100D+01
 Coeff:      0.100D+01
 Gap=     0.457 Goal=   None    Shift=    0.500
 T= 1318. Gap= 0.484 NK=0 IS=   58 IE=  332 IFin=   57
          NO(<0.9)=   0  NV(>0.1)=   0     57.00e < EF      0.00e >EF  Err=0.0D+00
 GapD=    0.457 DampG=2.000 DampE=0.500 DampFc=1.0000 IDamp=-1.
 RMSDP=6.42D-03 MaxDP=4.21D-01              OVMax= 1.27D-01

 Cycle   2  Pass 1  IDiag  1:
 E= -1258.92433043761     Delta-E=       -0.367535639411 Rises=F Damp=F
 DIIS: error= 6.48D-03 at cycle   2 NSaved=   2.
 NSaved= 2 IEnMin= 2 EnMin= -1258.92433043761     IErMin= 2 ErrMin= 6.48D-03
 ErrMax= 6.48D-03  0.00D+00 EMaxC= 1.00D+00 BMatC= 4.84D-02 BMatP= 3.81D-01
 IDIUse=1 WtCom= 1.00D+00 WtEn= 0.00D+00
 Coeff-Com:  0.239D+00 0.761D+00
 Coeff:      0.239D+00 0.761D+00
 Gap=     0.235 Goal=   None    Shift=    0.500
 T= 1156. Gap= 0.700 NK=0 IS=   58 IE=  332 IFin=   57
          NO(<0.9)=   0  NV(>0.1)=   0     57.00e < EF      0.00e >EF  Err=0.0D+00
 GapD=    0.235 DampG=1.000 DampE=1.000 DampFc=1.0000 IDamp=-1.
 RMSDP=1.25D-03 MaxDP=5.98D-02 DE=-3.68D-01 OVMax= 1.75D-02

 Cycle   3  Pass 1  IDiag  1:
 E= -1258.95682363602     Delta-E=       -0.032493198414 Rises=F Damp=F
 DIIS: error= 2.29D-03 at cycle   3 NSaved=   3.
 NSaved= 3 IEnMin= 3 EnMin= -1258.95682363602     IErMin= 3 ErrMin= 2.29D-03
 ErrMax= 2.29D-03  0.00D+00 EMaxC= 1.00D+00 BMatC= 5.32D-03 BMatP= 4.84D-02
 IDIUse=1 WtCom= 1.00D+00 WtEn= 0.00D+00
 Coeff-Com:  0.749D-01-0.106D+00 0.103D+01
 Coeff:      0.749D-01-0.106D+00 0.103D+01
 Gap=     0.219 Goal=   None    Shift=    0.500
 T=  858. Gap= 0.719 NK=0 IS=   58 IE=  332 IFin=   57
          NO(<0.9)=   0  NV(>0.1)=   0     57.00e < EF      0.00e >EF  Err=0.0D+00
 GapD=    0.219 DampG=1.000 DampE=1.000 DampFc=1.0000 IDamp=-1.
 RMSDP=1.00D-03 MaxDP=6.92D-02 DE=-3.25D-02 OVMax= 9.86D-03

 Cycle   4  Pass 1  IDiag  1:
 E= -1258.96228815900     Delta-E=       -0.005464522976 Rises=F Damp=F
 DIIS: error= 1.30D-03 at cycle   4 NSaved=   4.
 NSaved= 4 IEnMin= 4 EnMin= -1258.96228815900     IErMin= 4 ErrMin= 1.30D-03
 ErrMax= 1.30D-03  0.00D+00 EMaxC= 1.00D+00 BMatC= 6.38D-04 BMatP= 5.32D-03
 IDIUse=1 WtCom= 1.00D+00 WtEn= 0.00D+00
 Coeff-Com:  0.362D-02-0.258D-01-0.302D+00 0.132D+01
 Coeff:      0.362D-02-0.258D-01-0.302D+00 0.132D+01
 Gap=     0.223 Goal=   None    Shift=    0.500
 T=  182. Gap= 0.723 NK=0 IS=   58 IE=  332 IFin=   57
          NO(<0.9)=   0  NV(>0.1)=   0     57.00e < EF      0.00e >EF  Err=0.0D+00
 GapD=    0.223 DampG=1.000 DampE=1.000 DampFc=1.0000 IDamp=-1.
 RMSDP=6.25D-04 MaxDP=4.83D-02 DE=-5.46D-03 OVMax= 7.08D-03

 Cycle   5  Pass 1  IDiag  1:
 E= -1258.96330293015     Delta-E=       -0.001014771149 Rises=F Damp=F
 DIIS: error= 1.01D-03 at cycle   5 NSaved=   5.
 NSaved= 5 IEnMin= 5 EnMin= -1258.96330293015     IErMin= 5 ErrMin= 1.01D-03
 ErrMax= 1.01D-03  0.00D+00 EMaxC= 1.00D+00 BMatC= 1.13D-04 BMatP= 6.38D-04
 IDIUse=1 WtCom= 1.00D+00 WtEn= 0.00D+00
 Coeff-Com: -0.724D-02 0.107D-01-0.144D+00-0.239D+00 0.138D+01
 Coeff:     -0.724D-02 0.107D-01-0.144D+00-0.239D+00 0.138D+01
 Gap=     0.224 Goal=   None    Shift=    0.500
 GapD=    0.224 DampG=1.000 DampE=1.000 DampFc=1.0000 IDamp=-1.
 RMSDP=3.38D-04 MaxDP=2.60D-02 DE=-1.01D-03 OVMax= 6.10D-03

 Cycle   6  Pass 1  IDiag  1:
 E= -1258.96362122245     Delta-E=       -0.000318292306 Rises=F Damp=F
 DIIS: error= 7.63D-04 at cycle   6 NSaved=   6.
 NSaved= 6 IEnMin= 6 EnMin= -1258.96362122245     IErMin= 6 ErrMin= 7.63D-04
 ErrMax= 7.63D-04  0.00D+00 EMaxC= 1.00D+00 BMatC= 3.53D-05 BMatP= 1.13D-04
 IDIUse=1 WtCom= 1.00D+00 WtEn= 0.00D+00
 Coeff-Com: -0.536D-02 0.556D-02 0.759D-01-0.566D+00-0.137D-01 0.150D+01
 Coeff:     -0.536D-02 0.556D-02 0.759D-01-0.566D+00-0.137D-01 0.150D+01
 Gap=     0.224 Goal=   None    Shift=    0.500
 RMSDP=2.06D-04 MaxDP=1.54D-02 DE=-3.18D-04 OVMax= 4.49D-03

 Cycle   7  Pass 1  IDiag  1:
 E= -1258.96376331917     Delta-E=       -0.000142096717 Rises=F Damp=F
 DIIS: error= 5.44D-04 at cycle   7 NSaved=   7.
 NSaved= 7 IEnMin= 7 EnMin= -1258.96376331917     IErMin= 7 ErrMin= 5.44D-04
 ErrMax= 5.44D-04  0.00D+00 EMaxC= 1.00D+00 BMatC= 1.22D-05 BMatP= 3.53D-05
 IDIUse=1 WtCom= 1.00D+00 WtEn= 0.00D+00
 Coeff-Com: -0.219D-03-0.383D-02 0.489D-01 0.289D-01-0.511D+00-0.412D+00
 Coeff-Com:  0.185D+01
 Coeff:     -0.219D-03-0.383D-02 0.489D-01 0.289D-01-0.511D+00-0.412D+00
 Coeff:      0.185D+01
 Gap=     0.224 Goal=   None    Shift=    0.500
 RMSDP=1.14D-04 MaxDP=7.24D-03 DE=-1.42D-04 OVMax= 3.38D-03

 Cycle   8  Pass 1  IDiag  1:
 E= -1258.96382611815     Delta-E=       -0.000062798980 Rises=F Damp=F
 DIIS: error= 3.73D-04 at cycle   8 NSaved=   8.
 NSaved= 8 IEnMin= 8 EnMin= -1258.96382611815     IErMin= 8 ErrMin= 3.73D-04
 ErrMax= 3.73D-04  0.00D+00 EMaxC= 1.00D+00 BMatC= 5.17D-06 BMatP= 1.22D-05
 IDIUse=1 WtCom= 1.00D+00 WtEn= 0.00D+00
 Coeff-Com:  0.542D-03-0.279D-02-0.213D-01 0.227D+00-0.238D+00-0.561D+00
 Coeff-Com: -0.292D+00 0.189D+01
 Coeff:      0.542D-03-0.279D-02-0.213D-01 0.227D+00-0.238D+00-0.561D+00
 Coeff:     -0.292D+00 0.189D+01
 Gap=     0.225 Goal=   None    Shift=    0.500
 RMSDP=6.37D-05 MaxDP=2.95D-03 DE=-6.28D-05 OVMax= 2.39D-03

 Cycle   9  Pass 1  IDiag  1:
 E= -1258.96385442205     Delta-E=       -0.000028303896 Rises=F Damp=F
 DIIS: error= 2.57D-04 at cycle   9 NSaved=   9.
 NSaved= 9 IEnMin= 9 EnMin= -1258.96385442205     IErMin= 9 ErrMin= 2.57D-04
 ErrMax= 2.57D-04  0.00D+00 EMaxC= 1.00D+00 BMatC= 2.24D-06 BMatP= 5.17D-06
 IDIUse=1 WtCom= 1.00D+00 WtEn= 0.00D+00
 Coeff-Com: -0.125D-03-0.389D-03-0.173D-01 0.446D-01 0.842D-01 0.951D-01
 Coeff-Com: -0.113D+01 0.618D-01 0.186D+01
 Coeff:     -0.125D-03-0.389D-03-0.173D-01 0.446D-01 0.842D-01 0.951D-01
 Coeff:     -0.113D+01 0.618D-01 0.186D+01
 Gap=     0.225 Goal=   None    Shift=    0.500
 RMSDP=3.89D-05 MaxDP=1.34D-03 DE=-2.83D-05 OVMax= 1.67D-03

 Cycle  10  Pass 1  IDiag  1:
 E= -1258.96386696921     Delta-E=       -0.000012547162 Rises=F Damp=F
 DIIS: error= 1.65D-04 at cycle  10 NSaved=  10.
 NSaved=10 IEnMin=10 EnMin= -1258.96386696921     IErMin=10 ErrMin= 1.65D-04
 ErrMax= 1.65D-04  0.00D+00 EMaxC= 1.00D+00 BMatC= 9.58D-07 BMatP= 2.24D-06
 IDIUse=1 WtCom= 1.00D+00 WtEn= 0.00D+00
 Coeff-Com: -0.322D-03 0.324D-03 0.209D-02-0.458D-01 0.946D-01 0.243D+00
 Coeff-Com: -0.536D+00-0.498D+00 0.148D-01 0.173D+01
 Coeff:     -0.322D-03 0.324D-03 0.209D-02-0.458D-01 0.946D-01 0.243D+00
 Coeff:     -0.536D+00-0.498D+00 0.148D-01 0.173D+01
 Gap=     0.225 Goal=   None    Shift=    0.500
 RMSDP=2.42D-05 MaxDP=9.12D-04 DE=-1.25D-05 OVMax= 1.10D-03

 Cycle  11  Pass 1  IDiag  1:
 E= -1258.96387228482     Delta-E=       -0.000005315611 Rises=F Damp=F
 DIIS: error= 1.11D-04 at cycle  11 NSaved=  11.
 NSaved=11 IEnMin=11 EnMin= -1258.96387228482     IErMin=11 ErrMin= 1.11D-04
 ErrMax= 1.11D-04  0.00D+00 EMaxC= 1.00D+00 BMatC= 4.26D-07 BMatP= 9.58D-07
 IDIUse=1 WtCom= 1.00D+00 WtEn= 0.00D+00
 Coeff-Com: -0.180D-03 0.328D-03 0.546D-02-0.138D-01-0.201D-01 0.217D-01
 Coeff-Com:  0.276D+00-0.115D+00-0.112D+01-0.146D+00 0.211D+01
 Coeff:     -0.180D-03 0.328D-03 0.546D-02-0.138D-01-0.201D-01 0.217D-01
 Coeff:      0.276D+00-0.115D+00-0.112D+01-0.146D+00 0.211D+01
 Gap=     0.225 Goal=   None    Shift=    0.500
 RMSDP=1.54D-05 MaxDP=5.84D-04 DE=-5.32D-06 OVMax= 7.29D-04

 Cycle  12  Pass 1  IDiag  1:
 E= -1258.96387457879     Delta-E=       -0.000002293966 Rises=F Damp=F
 DIIS: error= 6.91D-05 at cycle  12 NSaved=  12.
 NSaved=12 IEnMin=12 EnMin= -1258.96387457879     IErMin=12 ErrMin= 6.91D-05
 ErrMax= 6.91D-05  0.00D+00 EMaxC= 1.00D+00 BMatC= 1.94D-07 BMatP= 4.26D-07
 IDIUse=1 WtCom= 1.00D+00 WtEn= 0.00D+00
 Coeff-Com: -0.440D-04 0.533D-04 0.180D-02 0.823D-02-0.380D-01-0.423D-01
 Coeff-Com:  0.250D+00 0.124D+00-0.623D+00-0.578D+00 0.107D+00 0.179D+01
 Coeff:     -0.440D-04 0.533D-04 0.180D-02 0.823D-02-0.380D-01-0.423D-01
 Coeff:      0.250D+00 0.124D+00-0.623D+00-0.578D+00 0.107D+00 0.179D+01
 Gap=     0.225 Goal=   None    Shift=    0.500
 RMSDP=1.03D-05 MaxDP=3.85D-04 DE=-2.29D-06 OVMax= 4.71D-04

 Cycle  13  Pass 1  IDiag  1:
 E= -1258.96387556749     Delta-E=       -0.000000988709 Rises=F Damp=F
 DIIS: error= 4.37D-05 at cycle  13 NSaved=  13.
 NSaved=13 IEnMin=13 EnMin= -1258.96387556749     IErMin=13 ErrMin= 4.37D-05
 ErrMax= 4.37D-05  0.00D+00 EMaxC= 1.00D+00 BMatC= 8.24D-08 BMatP= 1.94D-07
 IDIUse=1 WtCom= 1.00D+00 WtEn= 0.00D+00
 Coeff-Com:  0.722D-05-0.222D-03-0.152D-02 0.743D-02-0.359D-02-0.555D-02
 Coeff-Com: -0.779D-01 0.122D+00 0.290D+00-0.164D+00-0.115D+01-0.347D+00
 Coeff-Com:  0.233D+01
 Coeff:      0.722D-05-0.222D-03-0.152D-02 0.743D-02-0.359D-02-0.555D-02
 Coeff:     -0.779D-01 0.122D+00 0.290D+00-0.164D+00-0.115D+01-0.347D+00
 Coeff:      0.233D+01
 Gap=     0.225 Goal=   None    Shift=    0.500
 RMSDP=6.70D-06 MaxDP=2.33D-04 DE=-9.89D-07 OVMax= 3.59D-04

 Cycle  14  Pass 1  IDiag  1:
 E= -1258.96387599496     Delta-E=       -0.000000427469 Rises=F Damp=F
 DIIS: error= 2.70D-05 at cycle  14 NSaved=  14.
 NSaved=14 IEnMin=14 EnMin= -1258.96387599496     IErMin=14 ErrMin= 2.70D-05
 ErrMax= 2.70D-05  0.00D+00 EMaxC= 1.00D+00 BMatC= 3.88D-08 BMatP= 8.24D-08
 IDIUse=1 WtCom= 1.00D+00 WtEn= 0.00D+00
 Coeff-Com: -0.579D-05-0.115D-03-0.777D-03-0.683D-04 0.967D-02 0.119D-01
 Coeff-Com: -0.855D-01-0.531D-02 0.250D+00 0.146D+00-0.408D+00-0.100D+01
 Coeff-Com: -0.242D-01 0.211D+01
 Coeff:     -0.579D-05-0.115D-03-0.777D-03-0.683D-04 0.967D-02 0.119D-01
 Coeff:     -0.855D-01-0.531D-02 0.250D+00 0.146D+00-0.408D+00-0.100D+01
 Coeff:     -0.242D-01 0.211D+01
 Gap=     0.225 Goal=   None    Shift=    0.500
 RMSDP=4.75D-06 MaxDP=1.53D-04 DE=-4.27D-07 OVMax= 2.73D-04

 Cycle  15  Pass 1  IDiag  1:
 E= -1258.96387618972     Delta-E=       -0.000000194759 Rises=F Damp=F
 DIIS: error= 1.60D-05 at cycle  15 NSaved=  15.
 NSaved=15 IEnMin=15 EnMin= -1258.96387618972     IErMin=15 ErrMin= 1.60D-05
 ErrMax= 1.60D-05  0.00D+00 EMaxC= 1.00D+00 BMatC= 1.74D-08 BMatP= 3.88D-08
 IDIUse=1 WtCom= 1.00D+00 WtEn= 0.00D+00
 Coeff-Com: -0.225D-04 0.283D-04 0.435D-03-0.309D-02 0.516D-02 0.106D-01
 Coeff-Com: -0.508D-02-0.628D-01-0.176D-01 0.181D+00 0.324D+00-0.512D+00
 Coeff-Com: -0.106D+01 0.459D-01 0.210D+01
 Coeff:     -0.225D-04 0.283D-04 0.435D-03-0.309D-02 0.516D-02 0.106D-01
 Coeff:     -0.508D-02-0.628D-01-0.176D-01 0.181D+00 0.324D+00-0.512D+00
 Coeff:     -0.106D+01 0.459D-01 0.210D+01
 Gap=     0.225 Goal=   None    Shift=    0.500
 RMSDP=3.37D-06 MaxDP=1.05D-04 DE=-1.95D-07 OVMax= 2.04D-04

 Cycle  16  Pass 1  IDiag  1:
 E= -1258.96387627897     Delta-E=       -0.000000089246 Rises=F Damp=F
 DIIS: error= 9.96D-06 at cycle  16 NSaved=  16.
 NSaved=16 IEnMin=16 EnMin= -1258.96387627897     IErMin=16 ErrMin= 9.96D-06
 ErrMax= 9.96D-06  0.00D+00 EMaxC= 1.00D+00 BMatC= 8.39D-09 BMatP= 1.74D-08
 IDIUse=1 WtCom= 1.00D+00 WtEn= 0.00D+00
 Coeff-Com: -0.582D-05 0.374D-04 0.565D-03-0.157D-02-0.191D-02 0.329D-02
 Coeff-Com:  0.248D-01-0.198D-01-0.790D-01 0.200D-01 0.210D+00 0.212D+00
 Coeff-Com: -0.404D+00-0.121D+01-0.330D-01 0.227D+01
 Coeff:     -0.582D-05 0.374D-04 0.565D-03-0.157D-02-0.191D-02 0.329D-02
 Coeff:      0.248D-01-0.198D-01-0.790D-01 0.200D-01 0.210D+00 0.212D+00
 Coeff:     -0.404D+00-0.121D+01-0.330D-01 0.227D+01
 Gap=     0.225 Goal=   None    Shift=    0.500
 RMSDP=2.49D-06 MaxDP=8.23D-05 DE=-8.92D-08 OVMax= 1.59D-04

 Cycle  17  Pass 1  IDiag  1:
 E= -1258.96387632318     Delta-E=       -0.000000044211 Rises=F Damp=F
 DIIS: error= 6.73D-06 at cycle  17 NSaved=  17.
 NSaved=17 IEnMin=17 EnMin= -1258.96387632318     IErMin=17 ErrMin= 6.73D-06
 ErrMax= 6.73D-06  0.00D+00 EMaxC= 1.00D+00 BMatC= 3.78D-09 BMatP= 8.39D-09
 IDIUse=1 WtCom= 1.00D+00 WtEn= 0.00D+00
 Coeff-Com:  0.336D-05-0.757D-05 0.114D-05 0.928D-03-0.327D-02-0.270D-02
 Coeff-Com:  0.990D-02 0.225D-01-0.216D-01-0.706D-01-0.446D-01 0.303D+00
 Coeff-Com:  0.264D+00-0.634D+00-0.999D+00-0.151D+00 0.233D+01
 Coeff:      0.336D-05-0.757D-05 0.114D-05 0.928D-03-0.327D-02-0.270D-02
 Coeff:      0.990D-02 0.225D-01-0.216D-01-0.706D-01-0.446D-01 0.303D+00
 Coeff:      0.264D+00-0.634D+00-0.999D+00-0.151D+00 0.233D+01
 Gap=     0.225 Goal=   None    Shift=    0.500
 RMSDP=1.72D-06 MaxDP=5.77D-05 DE=-4.42D-08 OVMax= 1.18D-04

 Cycle  18  Pass 1  IDiag  1:
 E= -1258.96387634423     Delta-E=       -0.000000021050 Rises=F Damp=F
 DIIS: error= 4.80D-06 at cycle  18 NSaved=  18.
 NSaved=18 IEnMin=18 EnMin= -1258.96387634423     IErMin=18 ErrMin= 4.80D-06
 ErrMax= 4.80D-06  0.00D+00 EMaxC= 1.00D+00 BMatC= 1.75D-09 BMatP= 3.78D-09
 IDIUse=1 WtCom= 1.00D+00 WtEn= 0.00D+00
 Coeff-Com:  0.217D-05-0.204D-04-0.218D-03 0.118D-02-0.103D-02-0.277D-02
 Coeff-Com: -0.425D-02 0.213D-01 0.165D-01-0.467D-01-0.922D-01 0.888D-01
 Coeff-Com:  0.294D+00 0.309D-01-0.636D+00-0.102D+01 0.730D+00 0.162D+01
 Coeff:      0.217D-05-0.204D-04-0.218D-03 0.118D-02-0.103D-02-0.277D-02
 Coeff:     -0.425D-02 0.213D-01 0.165D-01-0.467D-01-0.922D-01 0.888D-01
 Coeff:      0.294D+00 0.309D-01-0.636D+00-0.102D+01 0.730D+00 0.162D+01
 Gap=     0.225 Goal=   None    Shift=    0.500
 RMSDP=1.18D-06 MaxDP=3.91D-05 DE=-2.10D-08 OVMax= 8.22D-05

 Cycle  19  Pass 1  IDiag  1:
 E= -1258.96387635396     Delta-E=       -0.000000009729 Rises=F Damp=F
 DIIS: error= 3.41D-06 at cycle  19 NSaved=  19.
 NSaved=19 IEnMin=19 EnMin= -1258.96387635396     IErMin=19 ErrMin= 3.41D-06
 ErrMax= 3.41D-06  0.00D+00 EMaxC= 1.00D+00 BMatC= 8.23D-10 BMatP= 1.75D-09
 IDIUse=1 WtCom= 1.00D+00 WtEn= 0.00D+00
 Coeff-Com: -0.240D-05-0.814D-05-0.116D-03 0.210D-03 0.102D-02-0.338D-03
 Coeff-Com: -0.659D-02 0.878D-03 0.172D-01 0.109D-01-0.170D-01-0.973D-01
 Coeff-Com:  0.297D-01 0.285D+00 0.685D-01-0.489D+00-0.795D+00-0.199D+00
 Coeff-Com:  0.219D+01
 Coeff:     -0.240D-05-0.814D-05-0.116D-03 0.210D-03 0.102D-02-0.338D-03
 Coeff:     -0.659D-02 0.878D-03 0.172D-01 0.109D-01-0.170D-01-0.973D-01
 Coeff:      0.297D-01 0.285D+00 0.685D-01-0.489D+00-0.795D+00-0.199D+00
 Coeff:      0.219D+01
 Gap=     0.225 Goal=   None    Shift=    0.500
 RMSDP=8.23D-07 MaxDP=2.81D-05 DE=-9.73D-09 OVMax= 5.87D-05

 SCF Done:  E(RLC-wHPBE) =  -1258.96387635     A.U. after   19 cycles
            NFock= 19  Conv=0.82D-06     -V/T= 2.0033
 KE= 1.254809135258D+03 PE=-5.047255476296D+03 EE= 1.492840396364D+03
 Leave Link  502 at Mon Jan 25 23:17:16 2021, MaxMem=  4026531840 cpu:            1658.9 elap:             207.6
 (Enter /opt/ohpc/pub/libs/gaussian/g16-A.03/sandybridge/g16/l508.exe)
 QCSCF skips out because SCF is already converged.
 Leave Link  508 at Mon Jan 25 23:17:16 2021, MaxMem=  4026531840 cpu:               0.2 elap:               0.0
 (Enter /opt/ohpc/pub/libs/gaussian/g16-A.03/sandybridge/g16/l601.exe)
 Copying SCF densities to generalized density rwf, IOpCl= 0 IROHF=0.

 **********************************************************************

            Population analysis using the SCF density.

 **********************************************************************

 Orbital symmetries:
       Occupied  (A) (A) (A) (A) (A) (A) (A) (A) (A) (A) (A) (A)
                 (A) (A) (A) (A) (A) (A) (A) (A) (A) (A) (A) (A)
                 (A) (A) (A) (A) (A) (A) (A) (A) (A) (A) (A) (A)
                 (A) (A) (A) (A) (A) (A) (A) (A) (A) (A) (A) (A)
                 (A) (A) (A) (A) (A) (A) (A) (A) (A)
       Virtual   (A) (A) (A) (A) (A) (A) (A) (A) (A) (A) (A) (A)
                 (A) (A) (A) (A) (A) (A) (A) (A) (A) (A) (A) (A)
                 (A) (A) (A) (A) (A) (A) (A) (A) (A) (A) (A) (A)
                 (A) (A) (A) (A) (A) (A) (A) (A) (A) (A) (A) (A)
                 (A) (A) (A) (A) (A) (A) (A) (A) (A) (A) (A) (A)
                 (A) (A) (A) (A) (A) (A) (A) (A) (A) (A) (A) (A)
                 (A) (A) (A) (A) (A) (A) (A) (A) (A) (A) (A) (A)
                 (A) (A) (A) (A) (A) (A) (A) (A) (A) (A) (A) (A)
                 (A) (A) (A) (A) (A) (A) (A) (A) (A) (A) (A) (A)
                 (A) (A) (A) (A) (A) (A) (A) (A) (A) (A) (A) (A)
                 (A) (A) (A) (A) (A) (A) (A) (A) (A) (A) (A) (A)
                 (A) (A) (A) (A) (A) (A) (A) (A) (A) (A) (A) (A)
                 (A) (A) (A) (A) (A) (A) (A) (A) (A) (A) (A) (A)
                 (A) (A) (A) (A) (A) (A) (A) (A) (A) (A) (A) (A)
                 (A) (A) (A) (A) (A) (A) (A) (A) (A) (A) (A) (A)
                 (A) (A) (A) (A) (A) (A) (A) (A) (A) (A) (A) (A)
                 (A) (A) (A) (A) (A) (A) (A) (A) (A) (A) (A) (A)
                 (A) (A) (A) (A) (A) (A) (A) (A) (A) (A) (A) (A)
                 (A) (A) (A) (A) (A) (A) (A) (A) (A) (A) (A) (A)
                 (A) (A) (A) (A) (A) (A) (A) (A) (A) (A) (A) (A)
                 (A) (A) (A) (A) (A) (A) (A) (A) (A) (A) (A) (A)
                 (A) (A) (A) (A) (A) (A) (A) (A) (A) (A) (A) (A)
                 (A) (A) (A) (A) (A) (A) (A) (A) (A) (A) (A)
 The electronic state is 1-A.
 Alpha  occ. eigenvalues --  -88.30588 -88.21569 -10.07426 -10.07237 -10.03990
 Alpha  occ. eigenvalues --  -10.03144 -10.03052 -10.02908 -10.01937  -9.99819
 Alpha  occ. eigenvalues --   -9.98652  -9.98007  -9.96937  -9.93245  -7.89616
 Alpha  occ. eigenvalues --   -7.80793  -5.91593  -5.91431  -5.90735  -5.82993
 Alpha  occ. eigenvalues --   -5.82510  -5.81715  -0.96316  -0.91985  -0.87512
 Alpha  occ. eigenvalues --   -0.86282  -0.82204  -0.78220  -0.77157  -0.75541
 Alpha  occ. eigenvalues --   -0.69637  -0.67830  -0.64602  -0.62606  -0.60243
 Alpha  occ. eigenvalues --   -0.57300  -0.56510  -0.54691  -0.52980  -0.51263
 Alpha  occ. eigenvalues --   -0.50843  -0.48911  -0.48803  -0.46684  -0.45741
 Alpha  occ. eigenvalues --   -0.45489  -0.44348  -0.43004  -0.41577  -0.40072
 Alpha  occ. eigenvalues --   -0.37274  -0.37206  -0.35997  -0.31817  -0.29300
 Alpha  occ. eigenvalues --   -0.29256  -0.22345
 Alpha virt. eigenvalues --    0.00150   0.01431   0.03500   0.04832   0.07070
 Alpha virt. eigenvalues --    0.08252   0.08882   0.09924   0.11270   0.12235
 Alpha virt. eigenvalues --    0.13579   0.14089   0.16138   0.16401   0.16734
 Alpha virt. eigenvalues --    0.18185   0.18490   0.19566   0.20591   0.21074
 Alpha virt. eigenvalues --    0.23235   0.23759   0.24219   0.25211   0.25808
 Alpha virt. eigenvalues --    0.26814   0.26931   0.28120   0.28410   0.29113
 Alpha virt. eigenvalues --    0.29453   0.29861   0.31088   0.31601   0.31925
 Alpha virt. eigenvalues --    0.32551   0.33266   0.33468   0.33858   0.34782
 Alpha virt. eigenvalues --    0.35515   0.35931   0.37111   0.37873   0.38754
 Alpha virt. eigenvalues --    0.39546   0.40163   0.40797   0.41138   0.42792
 Alpha virt. eigenvalues --    0.43227   0.43857   0.44163   0.44553   0.44636
 Alpha virt. eigenvalues --    0.45808   0.46522   0.47238   0.48010   0.48416
 Alpha virt. eigenvalues --    0.48707   0.49593   0.49988   0.51039   0.51176
 Alpha virt. eigenvalues --    0.52229   0.52673   0.53969   0.54502   0.55386
 Alpha virt. eigenvalues --    0.55633   0.56141   0.57733   0.58282   0.58713
 Alpha virt. eigenvalues --    0.59292   0.60520   0.62021   0.62554   0.64077
 Alpha virt. eigenvalues --    0.65371   0.65697   0.68053   0.69530   0.71226
 Alpha virt. eigenvalues --    0.73082   0.74236   0.74834   0.75760   0.76843
 Alpha virt. eigenvalues --    0.77194   0.78958   0.79492   0.80907   0.82620
 Alpha virt. eigenvalues --    0.85325   0.89272   0.90527   0.91270   0.91721
 Alpha virt. eigenvalues --    0.93671   0.94572   0.96875   0.98134   0.99167
 Alpha virt. eigenvalues --    1.07204   1.10053   1.19231   1.22008   1.25128
 Alpha virt. eigenvalues --    1.26696   1.27776   1.28700   1.28719   1.30032
 Alpha virt. eigenvalues --    1.30700   1.31811   1.32598   1.33388   1.33776
 Alpha virt. eigenvalues --    1.35068   1.37283   1.37557   1.37859   1.38511
 Alpha virt. eigenvalues --    1.41903   1.42810   1.43078   1.43957   1.45509
 Alpha virt. eigenvalues --    1.46308   1.46816   1.46978   1.47984   1.50131
 Alpha virt. eigenvalues --    1.50708   1.50882   1.51396   1.51785   1.52660
 Alpha virt. eigenvalues --    1.53353   1.54344   1.55076   1.55533   1.56585
 Alpha virt. eigenvalues --    1.57286   1.57982   1.58246   1.58466   1.60721
 Alpha virt. eigenvalues --    1.61804   1.63559   1.64032   1.64903   1.66591
 Alpha virt. eigenvalues --    1.67526   1.67906   1.71242   1.71627   1.72186
 Alpha virt. eigenvalues --    1.74769   1.75514   1.78268   1.79317   1.79666
 Alpha virt. eigenvalues --    1.81531   1.81811   1.82243   1.83607   1.83911
 Alpha virt. eigenvalues --    1.85427   1.86265   1.88744   1.89706   1.89960
 Alpha virt. eigenvalues --    1.91062   1.92429   1.92944   1.93396   1.93946
 Alpha virt. eigenvalues --    1.94675   1.96338   1.96821   1.98694   1.99719
 Alpha virt. eigenvalues --    2.01716   2.02394   2.03512   2.03717   2.06243
 Alpha virt. eigenvalues --    2.07304   2.09496   2.10693   2.14185   2.16340
 Alpha virt. eigenvalues --    2.18256   2.21937   2.26816   2.27545   2.29542
 Alpha virt. eigenvalues --    2.30871   2.31253   2.31941   2.32787   2.34662
 Alpha virt. eigenvalues --    2.35530   2.35981   2.37477   2.37936   2.38288
 Alpha virt. eigenvalues --    2.39741   2.41157   2.43643   2.45814   2.48494
 Alpha virt. eigenvalues --    2.49801   2.50728   2.53032   2.53214   2.55961
 Alpha virt. eigenvalues --    2.57201   2.58959   2.59413   2.62300   2.63853
 Alpha virt. eigenvalues --    2.64380   2.65723   2.65949   2.67339   2.69089
 Alpha virt. eigenvalues --    2.70776   2.71612   2.72623   2.73344   2.75106
 Alpha virt. eigenvalues --    2.80794   2.82898   2.83351   2.87314   2.95800
 Alpha virt. eigenvalues --    2.98932   3.02948   3.06719   3.10249   3.12091
 Alpha virt. eigenvalues --    3.12685   3.13296   3.14847   3.17076   3.18317
 Alpha virt. eigenvalues --    3.19833   3.22436   3.28578   3.29829   3.35949
 Alpha virt. eigenvalues --    3.37896   3.39803   3.54420   3.57443   3.72005
 Alpha virt. eigenvalues --    3.73276  18.95355  19.05947  21.05553  21.33505
 Alpha virt. eigenvalues --   21.60753  21.68966  21.70864  21.73961  21.90670
 Alpha virt. eigenvalues --   21.92461  21.94915  22.00262  22.09028  22.13327
          Condensed to atoms (all electrons):
               1          2          3          4          5          6
     1  C    6.360964  -0.401464  -0.106679   0.357431  -0.006324  -0.028345
     2  C   -0.401464   6.479593   0.458161  -0.479953  -0.030745   0.031460
     3  S   -0.106679   0.458161  15.482719  -0.163023   0.011473  -0.055483
     4  C    0.357431  -0.479953  -0.163023   6.590443  -0.039659  -0.024170
     5  C   -0.006324  -0.030745   0.011473  -0.039659   7.089303  -0.045879
     6  C   -0.028345   0.031460  -0.055483  -0.024170  -0.045879   5.894158
     7  C   -0.408977   0.371879   0.059479  -0.349408   0.002829   0.006178
     8  C   -0.446529   0.132244   0.029905  -0.265435   0.020356   0.001001
     9  H   -0.003370   0.016732   0.005352  -0.025597  -0.064019   0.013458
    10  C   -0.005741   0.032362  -0.016294  -0.025675  -0.730906   0.171072
    11  C    0.001915   0.002752   0.018800  -0.004529   0.106280   0.369494
    12  C   -0.000774   0.001397  -0.010651  -0.002833  -0.446329   0.121759
    13  C    0.000415  -0.000737   0.016709   0.002311   0.243563  -0.113739
    14  H    0.000031   0.000334  -0.000684  -0.000389  -0.069513   0.003267
    15  H    0.000164  -0.000164  -0.000516   0.000166   0.038840  -0.084952
    16  H    0.000004  -0.000060  -0.000435   0.000043   0.004928   0.013955
    17  H    0.000000   0.000014   0.000191  -0.000001   0.026001  -0.000177
    18  C    0.359180  -0.349948  -0.011169   0.275840  -0.005366  -0.007563
    19  H    0.464608  -0.117355  -0.012660   0.036194   0.000108  -0.000679
    20  H   -0.051539  -0.005859   0.301175   0.006440   0.000533   0.004953
    21  H   -0.063297   0.024586  -0.000075  -0.004950   0.000008   0.000031
    22  H   -0.006075   0.035864   0.000057  -0.084613   0.002155   0.000536
    23  H    0.024849  -0.004894  -0.000050   0.028664  -0.000030  -0.000041
    24  S    0.029744  -0.214801  -0.009226   0.376527   0.241340  -0.098318
               7          8          9         10         11         12
     1  C   -0.408977  -0.446529  -0.003370  -0.005741   0.001915  -0.000774
     2  C    0.371879   0.132244   0.016732   0.032362   0.002752   0.001397
     3  S    0.059479   0.029905   0.005352  -0.016294   0.018800  -0.010651
     4  C   -0.349408  -0.265435  -0.025597  -0.025675  -0.004529  -0.002833
     5  C    0.002829   0.020356  -0.064019  -0.730906   0.106280  -0.446329
     6  C    0.006178   0.001001   0.013458   0.171072   0.369494   0.121759
     7  C    5.692811   0.316141   0.001002   0.000858  -0.000529   0.000110
     8  C    0.316141   5.923438  -0.013621  -0.006889  -0.002265  -0.000077
     9  H    0.001002  -0.013621   0.644062   0.046370  -0.001080   0.001288
    10  C    0.000858  -0.006889   0.046370   6.471905  -0.368751   0.356813
    11  C   -0.000529  -0.002265  -0.001080  -0.368751   5.322568   0.103737
    12  C    0.000110  -0.000077   0.001288   0.356813   0.103737   5.588763
    13  C   -0.000074   0.000418  -0.000055   0.068488   0.185871   0.165910
    14  H   -0.000004  -0.000169  -0.000793   0.373972  -0.000313   0.009749
    15  H   -0.000022  -0.000056  -0.000024  -0.008458   0.447205  -0.144393
    16  H    0.000000   0.000001  -0.000013   0.009519  -0.041947   0.392602
    17  H   -0.000000  -0.000001  -0.000030  -0.070699   0.012979  -0.056897
    18  C    0.095450   0.043227  -0.004346  -0.001129   0.000415  -0.000070
    19  H   -0.066748  -0.007266  -0.000041  -0.000081   0.000047  -0.000030
    20  H    0.006154   0.002513   0.000281   0.001105  -0.000527   0.000617
    21  H    0.426353   0.023310   0.000007   0.000002  -0.000001   0.000000
    22  H    0.016383   0.397583   0.000878   0.000320  -0.000034   0.000006
    23  H   -0.073700  -0.082527  -0.000020  -0.000003   0.000001  -0.000000
    24  S   -0.004552  -0.002484   0.272645  -0.320175   0.024953  -0.014992
              13         14         15         16         17         18
     1  C    0.000415   0.000031   0.000164   0.000004   0.000000   0.359180
     2  C   -0.000737   0.000334  -0.000164  -0.000060   0.000014  -0.349948
     3  S    0.016709  -0.000684  -0.000516  -0.000435   0.000191  -0.011169
     4  C    0.002311  -0.000389   0.000166   0.000043  -0.000001   0.275840
     5  C    0.243563  -0.069513   0.038840   0.004928   0.026001  -0.005366
     6  C   -0.113739   0.003267  -0.084952   0.013955  -0.000177  -0.007563
     7  C   -0.000074  -0.000004  -0.000022   0.000000  -0.000000   0.095450
     8  C    0.000418  -0.000169  -0.000056   0.000001  -0.000001   0.043227
     9  H   -0.000055  -0.000793  -0.000024  -0.000013  -0.000030  -0.004346
    10  C    0.068488   0.373972  -0.008458   0.009519  -0.070699  -0.001129
    11  C    0.185871  -0.000313   0.447205  -0.041947   0.012979   0.000415
    12  C    0.165910   0.009749  -0.144393   0.392602  -0.056897  -0.000070
    13  C    5.204109  -0.005717   0.022930  -0.059894   0.416527   0.000051
    14  H   -0.005717   0.597451   0.000152  -0.000209  -0.008418   0.000025
    15  H    0.022930   0.000152   0.644778  -0.006936  -0.000307   0.000017
    16  H   -0.059894  -0.000209  -0.006936   0.600612  -0.007104   0.000000
    17  H    0.416527  -0.008418  -0.000307  -0.007104   0.588626   0.000000
    18  C    0.000051   0.000025   0.000017   0.000000   0.000000   5.360758
    19  H    0.000013   0.000000   0.000007   0.000000  -0.000000   0.021738
    20  H   -0.000754  -0.000078  -0.000059  -0.000006   0.000003  -0.001948
    21  H   -0.000000  -0.000000  -0.000000  -0.000000  -0.000000  -0.070618
    22  H   -0.000002  -0.000005  -0.000001  -0.000000  -0.000000  -0.041940
    23  H    0.000000   0.000000   0.000000   0.000000   0.000000   0.442315
    24  S    0.039947  -0.003655  -0.000126   0.000158  -0.000257   0.009631
              19         20         21         22         23         24
     1  C    0.464608  -0.051539  -0.063297  -0.006075   0.024849   0.029744
     2  C   -0.117355  -0.005859   0.024586   0.035864  -0.004894  -0.214801
     3  S   -0.012660   0.301175  -0.000075   0.000057  -0.000050  -0.009226
     4  C    0.036194   0.006440  -0.004950  -0.084613   0.028664   0.376527
     5  C    0.000108   0.000533   0.000008   0.002155  -0.000030   0.241340
     6  C   -0.000679   0.004953   0.000031   0.000536  -0.000041  -0.098318
     7  C   -0.066748   0.006154   0.426353   0.016383  -0.073700  -0.004552
     8  C   -0.007266   0.002513   0.023310   0.397583  -0.082527  -0.002484
     9  H   -0.000041   0.000281   0.000007   0.000878  -0.000020   0.272645
    10  C   -0.000081   0.001105   0.000002   0.000320  -0.000003  -0.320175
    11  C    0.000047  -0.000527  -0.000001  -0.000034   0.000001   0.024953
    12  C   -0.000030   0.000617   0.000000   0.000006  -0.000000  -0.014992
    13  C    0.000013  -0.000754  -0.000000  -0.000002   0.000000   0.039947
    14  H    0.000000  -0.000078  -0.000000  -0.000005   0.000000  -0.003655
    15  H    0.000007  -0.000059  -0.000000  -0.000001   0.000000  -0.000126
    16  H    0.000000  -0.000006  -0.000000  -0.000000   0.000000   0.000158
    17  H   -0.000000   0.000003  -0.000000  -0.000000   0.000000  -0.000257
    18  C    0.021738  -0.001948  -0.070618  -0.041940   0.442315   0.009631
    19  H    0.557022  -0.004156  -0.008736  -0.000065  -0.000176   0.000087
    20  H   -0.004156   0.656684   0.000065   0.000022  -0.000010  -0.000768
    21  H   -0.008736   0.000065   0.559991  -0.000170  -0.008506   0.000037
    22  H   -0.000065   0.000022  -0.000170   0.536260  -0.007959   0.004311
    23  H   -0.000176  -0.000010  -0.008506  -0.007959   0.562128  -0.000643
    24  S    0.000087  -0.000768   0.000037   0.004311  -0.000643  15.335577
 Mulliken charges:
               1
     1  C   -0.070190
     2  C    0.018602
     3  S    0.002925
     4  C   -0.203825
     5  C   -0.348948
     6  C   -0.171977
     7  C   -0.091613
     8  C   -0.062816
     9  H    0.110936
    10  C    0.022017
    11  C   -0.177039
    12  C   -0.065708
    13  C   -0.186290
    14  H    0.104967
    15  H    0.091755
    16  H    0.094782
    17  H    0.099550
    18  C   -0.114550
    19  H    0.138171
    20  H    0.085158
    21  H    0.121962
    22  H    0.146490
    23  H    0.120603
    24  S    0.335039
 Sum of Mulliken charges =  -0.00000
 Mulliken charges with hydrogens summed into heavy atoms:
               1
     1  C    0.067981
     2  C    0.018602
     3  S    0.088084
     4  C   -0.203825
     5  C   -0.348948
     6  C   -0.171977
     7  C    0.030349
     8  C    0.083674
    10  C    0.126984
    11  C   -0.085285
    12  C    0.029074
    13  C   -0.086740
    18  C    0.006052
    24  S    0.445975
 Electronic spatial extent (au):  <R**2>=           3318.1356
 Charge=             -0.0000 electrons
 Dipole moment (field-independent basis, Debye):
    X=              4.5865    Y=             -0.9039    Z=             -4.4494  Tot=              6.4536
 Quadrupole moment (field-independent basis, Debye-Ang):
   XX=            -86.2307   YY=            -87.1371   ZZ=           -101.0388
   XY=             -1.1397   XZ=              5.4001   YZ=              2.5146
 Traceless Quadrupole moment (field-independent basis, Debye-Ang):
   XX=              5.2382   YY=              4.3318   ZZ=             -9.5700
   XY=             -1.1397   XZ=              5.4001   YZ=              2.5146
 Octapole moment (field-independent basis, Debye-Ang**2):
  XXX=             54.1469  YYY=              1.5583  ZZZ=            -25.0428  XYY=             21.5393
  XXY=             14.4403  XXZ=              0.7392  XZZ=             -2.0213  YZZ=              0.4502
  YYZ=            -14.5251  XYZ=            -10.1260
 Hexadecapole moment (field-independent basis, Debye-Ang**3):
 XXXX=          -3066.5184 YYYY=           -868.0713 ZZZZ=           -432.6061 XXXY=            -48.6159
 XXXZ=             91.3118 YYYX=              4.7809 YYYZ=            -13.7127 ZZZX=             16.0533
 ZZZY=             18.9066 XXYY=           -675.1076 XXZZ=           -646.7135 YYZZ=           -207.0828
 XXYZ=             10.2341 YYXZ=              5.0332 ZZXY=             -5.8444
 N-N= 1.040642068320D+03 E-N=-5.047255497916D+03  KE= 1.254809135258D+03
 No NMR shielding tensors so no spin-rotation constants.
 Leave Link  601 at Mon Jan 25 23:17:16 2021, MaxMem=  4026531840 cpu:               1.7 elap:               0.2
 (Enter /opt/ohpc/pub/libs/gaussian/g16-A.03/sandybridge/g16/l9999.exe)

 Test job not archived.
 1\1\GINC-CNODE146\SP\RLC-wHPBE\TZVP\C12H10S2\RDU230\25-Jan-2021\0\\#P 
 LC-wHPBE/TZVP iop(3/107=0209700000, 3/108=0209700000) scf=(conver=6,fe
 rmi,ndamp=35,noincfock,novaracc,vshift=500,xqc)\\H10 C12 S2\\0,1\C,0,-
 2.574063,-1.434391,-0.049117\C,0,-1.368901,-0.745264,-0.216328\S,0,0.0
 93606,-1.678504,-0.585022\C,0,-1.397687,0.626896,-0.046009\C,0,1.50039
 5,0.811934,0.077279\C,0,1.478004,0.220423,1.307027\C,0,-3.746915,-0.78
 3096,0.229547\C,0,-2.584351,1.293751,0.256604\H,0,-0.039943,1.860892,-
 1.547006\C,0,2.473105,0.786527,-0.925649\C,0,2.645316,-0.559969,1.4924
 38\C,0,3.655495,-0.649979,0.563531\C,0,3.583956,0.035098,-0.656753\H,0
 ,2.357645,1.302286,-1.874829\H,0,2.763398,-1.119309,2.419207\H,0,4.527
 775,-1.262476,0.773175\H,0,4.391412,-0.038194,-1.378729\C,0,-3.759914,
 0.597536,0.384558\H,0,-2.557315,-2.514169,-0.13851\H,0,-0.525974,-2.52
 8359,-1.4318\H,0,-4.665467,-1.345208,0.349638\H,0,-2.558102,2.368477,0
 .406674\H,0,-4.681894,1.115025,0.619767\S,0,0.004008,1.738768,-0.20875
 \\Version=EM64L-G16RevA.03\State=1-A\HF=-1258.9638764\RMSD=8.226e-07\D
 ipole=-1.8044526,0.3556281,-1.7505108\Quadrupole=3.8944622,3.2205715,-
 7.1150337,-0.8473686,-4.0148171,-1.869559\PG=C01 [X(C12H10S2)]\\@


 You can't act like a skunk without someone's getting wind of it.
 -- Lorene Workman
 Job cpu time:       0 days  0 hours 28 minutes  7.5 seconds.
 Elapsed time:       0 days  0 hours  3 minutes 31.4 seconds.
 File lengths (MBytes):  RWF=     92 Int=      0 D2E=      0 Chk=     12 Scr=      8
 Normal termination of Gaussian 16 at Mon Jan 25 23:17:16 2021.
