 Entering Gaussian System, Link 0=g16
 Input=mol_ta_NN_frag_tune_c4.gjf
 Output=mol_ta_NN_frag_tune_c4.log
 Initial command:
 /opt/ohpc/pub/libs/gaussian/g16-A.03/sandybridge/g16/l1.exe "/mnt/gpfs2_4m/scratch/rdu230/ondemand/projects/init_structures/gaussian/wtuning/mol_ta_NN_frag/tuning_mol_ta_NN_frag_ocycle0/Gau-24181.inp" -scrdir="/mnt/gpfs2_4m/scratch/rdu230/ondemand/projects/init_structures/gaussian/wtuning/mol_ta_NN_frag/tuning_mol_ta_NN_frag_ocycle0/"
 Entering Link 1 = /opt/ohpc/pub/libs/gaussian/g16-A.03/sandybridge/g16/l1.exe PID=     24182.
  
 Copyright (c) 1988,1990,1992,1993,1995,1998,2003,2009,2016,
            Gaussian, Inc.  All Rights Reserved.
  
 This is part of the Gaussian(R) 16 program.  It is based on
 the Gaussian(R) 09 system (copyright 2009, Gaussian, Inc.),
 the Gaussian(R) 03 system (copyright 2003, Gaussian, Inc.),
 the Gaussian(R) 98 system (copyright 1998, Gaussian, Inc.),
 the Gaussian(R) 94 system (copyright 1995, Gaussian, Inc.),
 the Gaussian 92(TM) system (copyright 1992, Gaussian, Inc.),
 the Gaussian 90(TM) system (copyright 1990, Gaussian, Inc.),
 the Gaussian 88(TM) system (copyright 1988, Gaussian, Inc.),
 the Gaussian 86(TM) system (copyright 1986, Carnegie Mellon
 University), and the Gaussian 82(TM) system (copyright 1983,
 Carnegie Mellon University). Gaussian is a federally registered
 trademark of Gaussian, Inc.
  
 This software contains proprietary and confidential information,
 including trade secrets, belonging to Gaussian, Inc.
  
 This software is provided under written license and may be
 used, copied, transmitted, or stored only in accord with that
 written license.
  
 The following legend is applicable only to US Government
 contracts under FAR:
  
                    RESTRICTED RIGHTS LEGEND
  
 Use, reproduction and disclosure by the US Government is
 subject to restrictions as set forth in subparagraphs (a)
 and (c) of the Commercial Computer Software - Restricted
 Rights clause in FAR 52.227-19.
  
 Gaussian, Inc.
 340 Quinnipiac St., Bldg. 40, Wallingford CT 06492
  
  
 ---------------------------------------------------------------
 Warning -- This program may not be used in any manner that
 competes with the business of Gaussian, Inc. or will provide
 assistance to any competitor of Gaussian, Inc.  The licensee
 of this program is prohibited from giving any competitor of
 Gaussian, Inc. access to this program.  By using this program,
 the user acknowledges that Gaussian, Inc. is engaged in the
 business of creating and licensing software in the field of
 computational chemistry and represents and warrants to the
 licensee that it is not a competitor of Gaussian, Inc. and that
 it will not use this program in any manner prohibited above.
 ---------------------------------------------------------------
  

 Cite this work as:
 Gaussian 16, Revision A.03,
 M. J. Frisch, G. W. Trucks, H. B. Schlegel, G. E. Scuseria, 
 M. A. Robb, J. R. Cheeseman, G. Scalmani, V. Barone, 
 G. A. Petersson, H. Nakatsuji, X. Li, M. Caricato, A. V. Marenich, 
 J. Bloino, B. G. Janesko, R. Gomperts, B. Mennucci, H. P. Hratchian, 
 J. V. Ortiz, A. F. Izmaylov, J. L. Sonnenberg, D. Williams-Young, 
 F. Ding, F. Lipparini, F. Egidi, J. Goings, B. Peng, A. Petrone, 
 T. Henderson, D. Ranasinghe, V. G. Zakrzewski, J. Gao, N. Rega, 
 G. Zheng, W. Liang, M. Hada, M. Ehara, K. Toyota, R. Fukuda, 
 J. Hasegawa, M. Ishida, T. Nakajima, Y. Honda, O. Kitao, H. Nakai, 
 T. Vreven, K. Throssell, J. A. Montgomery, Jr., J. E. Peralta, 
 F. Ogliaro, M. J. Bearpark, J. J. Heyd, E. N. Brothers, K. N. Kudin, 
 V. N. Staroverov, T. A. Keith, R. Kobayashi, J. Normand, 
 K. Raghavachari, A. P. Rendell, J. C. Burant, S. S. Iyengar, 
 J. Tomasi, M. Cossi, J. M. Millam, M. Klene, C. Adamo, R. Cammi, 
 J. W. Ochterski, R. L. Martin, K. Morokuma, O. Farkas, 
 J. B. Foresman, and D. J. Fox, Gaussian, Inc., Wallingford CT, 2016.
 
 ******************************************
 Gaussian 16:  EM64L-G16RevA.03 25-Dec-2016
                25-Jan-2021 
 ******************************************
 %mem=30GB
 %nproc=8
 Will use up to    8 processors via shared memory.
 ----------------------------------------------------------------------
 #P LC-wHPBE/TZVP iop(3/107=0209700000, 3/108=0209700000) scf=(conver=6
 ,fermi,ndamp=35,noincfock,novaracc,vshift=500,xqc)
 ----------------------------------------------------------------------
 1/38=1,172=1/1;
 2/12=2,17=6,18=5,40=1/2;
 3/5=19,7=101,11=2,25=1,30=1,74=-71,107=209700000,108=209700000/1,2,3;
 4//1;
 5/5=100002,6=6,8=3,10=500,13=1,18=-1,22=13,38=1,93=35/2,8;
 6/7=2,8=2,9=2,10=2,28=1/1;
 99/5=1,9=1/99;
 Leave Link    1 at Mon Jan 25 23:17:17 2021, MaxMem=  4026531840 cpu:               1.7 elap:               0.2
 (Enter /opt/ohpc/pub/libs/gaussian/g16-A.03/sandybridge/g16/l101.exe)
 ----------
 H10 C12 S2
 ----------
 Symbolic Z-matrix:
 Charge =  1 Multiplicity = 2
 C                    -2.57406  -1.43439  -0.04912 
 C                    -1.3689   -0.74526  -0.21633 
 S                     0.09361  -1.6785   -0.58502 
 C                    -1.39769   0.6269   -0.04601 
 C                     1.5004    0.81193   0.07728 
 C                     1.478     0.22042   1.30703 
 C                    -3.74692  -0.7831    0.22955 
 C                    -2.58435   1.29375   0.2566 
 H                    -0.03994   1.86089  -1.54701 
 C                     2.47311   0.78653  -0.92565 
 C                     2.64532  -0.55997   1.49244 
 C                     3.6555   -0.64998   0.56353 
 C                     3.58396   0.0351   -0.65675 
 H                     2.35765   1.30229  -1.87483 
 H                     2.7634   -1.11931   2.41921 
 H                     4.52778  -1.26248   0.77318 
 H                     4.39141  -0.03819  -1.37873 
 C                    -3.75991   0.59754   0.38456 
 H                    -2.55732  -2.51417  -0.13851 
 H                    -0.52597  -2.52836  -1.4318 
 H                    -4.66547  -1.34521   0.34964 
 H                    -2.5581    2.36848   0.40667 
 H                    -4.68189   1.11503   0.61977 
 S                     0.00401   1.73877  -0.20875 
 
 ITRead=  0  0  0  0  0  0  0  0  0  0  0  0  0  0  0  0  0  0  0  0
 ITRead=  0  0  0  0
 MicOpt= -1 -1 -1 -1 -1 -1 -1 -1 -1 -1 -1 -1 -1 -1 -1 -1 -1 -1 -1 -1
 MicOpt= -1 -1 -1 -1
 NAtoms=     24 NQM=       24 NQMF=       0 NMMI=      0 NMMIF=      0
                NMic=       0 NMicF=      0.
                    Isotopes and Nuclear Properties:
 (Nuclear quadrupole moments (NQMom) in fm**2, nuclear magnetic moments (NMagM)
  in nuclear magnetons)

  Atom         1           2           3           4           5           6           7           8           9          10
 IAtWgt=          12          12          32          12          12          12          12          12           1          12
 AtmWgt=  12.0000000  12.0000000  31.9720718  12.0000000  12.0000000  12.0000000  12.0000000  12.0000000   1.0078250  12.0000000
 NucSpn=           0           0           0           0           0           0           0           0           1           0
 AtZEff=  -0.0000000  -0.0000000  -0.0000000  -0.0000000  -0.0000000  -0.0000000  -0.0000000  -0.0000000  -0.0000000  -0.0000000
 NQMom=    0.0000000   0.0000000   0.0000000   0.0000000   0.0000000   0.0000000   0.0000000   0.0000000   0.0000000   0.0000000
 NMagM=    0.0000000   0.0000000   0.0000000   0.0000000   0.0000000   0.0000000   0.0000000   0.0000000   2.7928460   0.0000000
 AtZNuc=   6.0000000   6.0000000  16.0000000   6.0000000   6.0000000   6.0000000   6.0000000   6.0000000   1.0000000   6.0000000

  Atom        11          12          13          14          15          16          17          18          19          20
 IAtWgt=          12          12          12           1           1           1           1          12           1           1
 AtmWgt=  12.0000000  12.0000000  12.0000000   1.0078250   1.0078250   1.0078250   1.0078250  12.0000000   1.0078250   1.0078250
 NucSpn=           0           0           0           1           1           1           1           0           1           1
 AtZEff=  -0.0000000  -0.0000000  -0.0000000  -0.0000000  -0.0000000  -0.0000000  -0.0000000  -0.0000000  -0.0000000  -0.0000000
 NQMom=    0.0000000   0.0000000   0.0000000   0.0000000   0.0000000   0.0000000   0.0000000   0.0000000   0.0000000   0.0000000
 NMagM=    0.0000000   0.0000000   0.0000000   2.7928460   2.7928460   2.7928460   2.7928460   0.0000000   2.7928460   2.7928460
 AtZNuc=   6.0000000   6.0000000   6.0000000   1.0000000   1.0000000   1.0000000   1.0000000   6.0000000   1.0000000   1.0000000

  Atom        21          22          23          24
 IAtWgt=           1           1           1          32
 AtmWgt=   1.0078250   1.0078250   1.0078250  31.9720718
 NucSpn=           1           1           1           0
 AtZEff=  -0.0000000  -0.0000000  -0.0000000  -0.0000000
 NQMom=    0.0000000   0.0000000   0.0000000   0.0000000
 NMagM=    2.7928460   2.7928460   2.7928460   0.0000000
 AtZNuc=   1.0000000   1.0000000   1.0000000  16.0000000
 Leave Link  101 at Mon Jan 25 23:17:17 2021, MaxMem=  4026531840 cpu:               0.7 elap:               0.1
 (Enter /opt/ohpc/pub/libs/gaussian/g16-A.03/sandybridge/g16/l202.exe)
                          Input orientation:                          
 ---------------------------------------------------------------------
 Center     Atomic      Atomic             Coordinates (Angstroms)
 Number     Number       Type             X           Y           Z
 ---------------------------------------------------------------------
      1          6           0       -2.574063   -1.434391   -0.049117
      2          6           0       -1.368901   -0.745264   -0.216328
      3         16           0        0.093606   -1.678504   -0.585022
      4          6           0       -1.397687    0.626896   -0.046009
      5          6           0        1.500395    0.811934    0.077279
      6          6           0        1.478004    0.220423    1.307027
      7          6           0       -3.746915   -0.783096    0.229547
      8          6           0       -2.584351    1.293751    0.256604
      9          1           0       -0.039943    1.860892   -1.547006
     10          6           0        2.473105    0.786527   -0.925649
     11          6           0        2.645316   -0.559969    1.492438
     12          6           0        3.655495   -0.649979    0.563531
     13          6           0        3.583956    0.035098   -0.656753
     14          1           0        2.357645    1.302286   -1.874829
     15          1           0        2.763398   -1.119309    2.419207
     16          1           0        4.527775   -1.262476    0.773175
     17          1           0        4.391412   -0.038194   -1.378729
     18          6           0       -3.759914    0.597536    0.384558
     19          1           0       -2.557315   -2.514169   -0.138510
     20          1           0       -0.525974   -2.528359   -1.431800
     21          1           0       -4.665467   -1.345208    0.349638
     22          1           0       -2.558102    2.368477    0.406674
     23          1           0       -4.681894    1.115025    0.619767
     24         16           0        0.004008    1.738768   -0.208750
 ---------------------------------------------------------------------
                    Distance matrix (angstroms):
                    1          2          3          4          5
     1  C    0.000000
     2  C    1.398310   0.000000
     3  S    2.731894   1.773640   0.000000
     4  C    2.373347   1.382990   2.798099   0.000000
     5  C    4.654370   3.277793   2.935980   2.906599   0.000000
     6  C    4.582225   3.370168   3.017007   3.203986   1.364796
     7  C    1.370190   2.419749   4.026770   2.753703   5.486490
     8  C    2.745238   2.420447   4.088287   1.394432   4.116972
     9  H    4.418634   3.213858   3.670228   2.370487   2.472095
    10  C    5.583430   4.196490   3.443025   3.972692   1.397381
    11  C    5.512071   4.366710   3.475368   4.485682   2.279394
    12  C    6.308568   5.085451   3.881249   5.247532   2.649167
    13  C    6.360017   5.033263   3.888974   5.053712   2.341688
    14  H    5.928269   4.564015   3.959114   4.231224   2.187704
    15  H    5.889006   4.915470   4.057817   5.142096   3.287781
    16  H    7.151351   6.001451   4.656139   6.273108   3.735302
    17  H    7.227384   5.918812   4.668161   5.977638   3.346738
    18  C    2.392288   2.807333   4.579308   2.401326   5.273636
    19  H    1.083601   2.132465   2.815154   3.349565   5.251146
    20  H    2.702452   2.316749   1.350247   3.554706   4.188203
    21  H    2.130946   3.398176   4.861425   3.837202   6.537989
    22  H    3.830118   3.390828   4.938934   2.141165   4.359212
    23  H    3.374890   3.890457   5.662219   3.386376   6.213441
    24  S    4.091561   2.838195   3.439092   1.796522   1.783258
                    6          7          8          9         10
     6  C    0.000000
     7  C    5.428424   0.000000
     8  C    4.331068   2.380248   0.000000
     9  H    3.625025   4.887582   3.169964   0.000000
    10  C    2.509092   6.518193   5.218511   2.802812   0.000000
    11  C    1.416335   6.519609   5.684451   4.723283   2.773058
    12  C    2.460051   7.411136   6.542780   4.941164   2.383118
    13  C    2.885448   7.429444   6.361324   4.154361   1.367823
    14  H    3.473961   6.785490   5.382045   2.483533   1.086407
    15  H    2.164270   6.876905   6.252850   5.698348   3.860640
    16  H    3.432942   8.306373   7.575188   6.000226   3.362452
    17  H    3.970908   8.329093   7.287638   4.824080   2.136667
    18  C    5.331880   1.389368   1.372238   4.377807   6.372039
    19  H    5.084424   2.132423   3.828459   5.240437   6.067892
    20  H    4.367254   4.022496   4.657912   4.417581   4.498792
    21  H    6.411710   1.083573   3.362113   5.939007   7.558430
    22  H    4.659927   3.372990   1.085470   3.227326   5.439733
    23  H    6.262346   2.151586   2.136239   5.176768   7.327362
    24  S    2.603001   4.541071   2.667245   1.344535   2.741742
                   11         12         13         14         15
    11  C    0.000000
    12  C    1.375293   0.000000
    13  C    2.419540   1.401264   0.000000
    14  H    3.858657   3.382507   2.143202   0.000000
    15  H    1.088901   2.111786   3.386370   4.946464   0.000000
    16  H    2.134129   1.086267   2.149229   4.277779   2.417218
    17  H    3.400691   2.165232   1.085636   2.485802   4.271248
    18  C    6.602589   7.521743   7.438622   6.559423   7.045634
    19  H    5.791913   6.524345   6.669524   6.460415   6.066097
    20  H    4.741604   4.999434   4.905460   4.815119   5.256962
    21  H    7.441111   8.352694   8.424432   7.828255   7.715062
    22  H    6.068792   6.909737   6.655855   5.523277   6.673328
    23  H    7.566714   8.522350   8.433269   7.470822   7.978885
    24  S    3.892909   4.431240   3.989890   2.916495   4.763297
                   16         17         18         19         20
    16  H    0.000000
    17  H    2.479547   0.000000
    18  C    8.502732   8.364057   0.000000
    19  H    7.252338   7.480201   3.376767   0.000000
    20  H    5.657274   5.512207   4.850644   2.408142   0.000000
    21  H    9.203365   9.312497   2.143712   2.459484   4.659267
    22  H    7.970433   7.568056   2.140344   4.912989   5.611464
    23  H    9.512836   9.362093   1.083128   4.273157   5.895324
    24  S    5.516893   4.876039   3.977629   4.965157   4.470470
                   21         22         23         24
    21  H    0.000000
    22  H    4.270327   0.000000
    23  H    2.475073   2.475286   0.000000
    24  S    5.623762   2.709186   4.799289   0.000000
 Stoichiometry    C12H10S2(1+,2)
 Framework group  C1[X(C12H10S2)]
 Deg. of freedom    66
 Full point group                 C1      NOp   1
 Largest Abelian subgroup         C1      NOp   1
 Largest concise Abelian subgroup C1      NOp   1
                         Standard orientation:                         
 ---------------------------------------------------------------------
 Center     Atomic      Atomic             Coordinates (Angstroms)
 Number     Number       Type             X           Y           Z
 ---------------------------------------------------------------------
      1          6           0        2.574063    1.434391   -0.049117
      2          6           0        1.368901    0.745264   -0.216328
      3         16           0       -0.093606    1.678504   -0.585022
      4          6           0        1.397687   -0.626896   -0.046009
      5          6           0       -1.500395   -0.811934    0.077279
      6          6           0       -1.478004   -0.220423    1.307027
      7          6           0        3.746915    0.783096    0.229547
      8          6           0        2.584351   -1.293751    0.256604
      9          1           0        0.039943   -1.860892   -1.547006
     10          6           0       -2.473105   -0.786527   -0.925649
     11          6           0       -2.645316    0.559969    1.492438
     12          6           0       -3.655495    0.649979    0.563531
     13          6           0       -3.583956   -0.035098   -0.656753
     14          1           0       -2.357645   -1.302286   -1.874829
     15          1           0       -2.763398    1.119309    2.419207
     16          1           0       -4.527775    1.262476    0.773175
     17          1           0       -4.391412    0.038194   -1.378729
     18          6           0        3.759914   -0.597536    0.384558
     19          1           0        2.557315    2.514169   -0.138510
     20          1           0        0.525974    2.528359   -1.431800
     21          1           0        4.665467    1.345208    0.349638
     22          1           0        2.558102   -2.368477    0.406674
     23          1           0        4.681894   -1.115025    0.619767
     24         16           0       -0.004008   -1.738768   -0.208750
 ---------------------------------------------------------------------
 Rotational constants (GHZ):           1.2365549           0.3949099           0.3394237
 Leave Link  202 at Mon Jan 25 23:17:17 2021, MaxMem=  4026531840 cpu:               0.3 elap:               0.1
 (Enter /opt/ohpc/pub/libs/gaussian/g16-A.03/sandybridge/g16/l301.exe)
 Standard basis: TZVP (5D, 7F)
 Ernie: Thresh=  0.10000D-02 Tol=  0.10000D-05 Strict=F.
 There are   346 symmetry adapted cartesian basis functions of A   symmetry.
 There are   332 symmetry adapted basis functions of A   symmetry.
   332 basis functions,   594 primitive gaussians,   346 cartesian basis functions
    57 alpha electrons       56 beta electrons
       nuclear repulsion energy      1040.6420683200 Hartrees.
 IExCor=33909 DFT=T Ex+Corr=LC-wHPBE ExCW=0 ScaHFX=  1.000000
 ScaDFX=  1.000000  1.000000  1.000000  1.000000 ScalE2=  1.000000  1.000000
 IRadAn=      5 IRanWt=     -1 IRanGd=            0 ICorTp=0 IEmpDi=  4
 HFx  wShort=  0.000000 wLong=  0.209700 cFull=  0.000000 cShort=  0.000000 cLong=  1.000000
 DFx  wShort=  0.000000 wLong=  0.209700 cFull=  0.000000 cShort=  1.000000 cLong=  0.000000
 NAtoms=   24 NActive=   24 NUniq=   24 SFac= 1.00D+00 NAtFMM=   60 NAOKFM=F Big=F
 Integral buffers will be    131072 words long.
 Raffenetti 2 integral format.
 Two-electron integral symmetry is turned on.
 Leave Link  301 at Mon Jan 25 23:17:17 2021, MaxMem=  4026531840 cpu:               0.4 elap:               0.1
 (Enter /opt/ohpc/pub/libs/gaussian/g16-A.03/sandybridge/g16/l302.exe)
 NPDir=0 NMtPBC=     1 NCelOv=     1 NCel=       1 NClECP=     1 NCelD=      1
         NCelK=      1 NCelE2=     1 NClLst=     1 CellRange=     0.0.
 One-electron integrals computed using PRISM.
 One-electron integral symmetry used in STVInt
 NBasis=   332 RedAO= T EigKep=  8.19D-06  NBF=   332
 NBsUse=   332 1.00D-06 EigRej= -1.00D+00 NBFU=   332
 Precomputing XC quadrature grid using
 IXCGrd= 4 IRadAn=           5 IRanWt=          -1 IRanGd=           0 AccXCQ= 0.00D+00.
 Generated NRdTot=       0 NPtTot=           0 NUsed=           0 NTot=          32
 NSgBfM=   338   338   338   338   338 MxSgAt=    24 MxSgA2=    24.
 Leave Link  302 at Mon Jan 25 23:17:17 2021, MaxMem=  4026531840 cpu:               3.1 elap:               0.4
 (Enter /opt/ohpc/pub/libs/gaussian/g16-A.03/sandybridge/g16/l303.exe)
 DipDrv:  MaxL=1.
 Leave Link  303 at Mon Jan 25 23:17:18 2021, MaxMem=  4026531840 cpu:               0.6 elap:               0.1
 (Enter /opt/ohpc/pub/libs/gaussian/g16-A.03/sandybridge/g16/l401.exe)
 ExpMin= 9.52D-02 ExpMax= 6.07D+04 ExpMxC= 2.07D+03 IAcc=3 IRadAn=         5 AccDes= 0.00D+00
 Harris functional with IExCor=33909 and IRadAn=       5 diagonalized for initial guess.
 HarFok:  IExCor=33909 AccDes= 0.00D+00 IRadAn=         5 IDoV= 1 UseB2=F ITyADJ=14
 ICtDFT=  3500011 ScaDFX=  1.000000  1.000000  1.000000  1.000000
 FoFCou: FMM=F IPFlag=           0 FMFlag=      100000 FMFlg1=           0
         NFxFlg=           0 DoJE=T BraDBF=F KetDBF=T FulRan=T
         wScrn=  0.000000 ICntrl=       500 IOpCl=  0 I1Cent=   200000004 NGrid=           0
         NMat0=    1 NMatS0=      1 NMatT0=    0 NMatD0=    1 NMtDS0=    0 NMtDT0=    0
 Petite list used in FoFCou.
 Harris En= -1246.07885969066    
 JPrj=0 DoOrth=F DoCkMO=F.
 Initial guess <Sx>= 0.0000 <Sy>= 0.0000 <Sz>= 0.5000 <S**2>= 0.7500 S= 0.5000
 Leave Link  401 at Mon Jan 25 23:17:20 2021, MaxMem=  4026531840 cpu:              19.6 elap:               2.5
 (Enter /opt/ohpc/pub/libs/gaussian/g16-A.03/sandybridge/g16/l502.exe)
 Integral symmetry usage will be decided dynamically.
 UHF open shell SCF:
 Using DIIS extrapolation, IDIIS=    10.
 NGot=  4026531840 LenX=  4026286196 LenY=  4026166039
 Requested convergence on RMS density matrix=1.00D-06 within  32 cycles.
 Requested convergence on MAX density matrix=1.00D-04.
 Requested convergence on             energy=1.00D-04.
 Virtual orbitals will be shifted by   0.500 hartree.
 No special actions if energy rises.
 Dynamic level shift is on during FON iterations.

 Cycle   1  Pass 1  IDiag  1:
 FoFJK:  IHMeth= 1 ICntrl=       0 DoSepK=T KAlg= 0 I1Cent=           0 FoldK=F
 IRaf=         1 NMat=       1 IRICut=       1 DoRegI=T DoRafI=F ISym2E= 0 IDoP0=0 IntGTp=1.
 FoFCou: FMM=F IPFlag=           0 FMFlag=      100000 FMFlg1=           0
         NFxFlg=           0 DoJE=T BraDBF=F KetDBF=F FulRan=T
         wScrn=  0.000000 ICntrl=       500 IOpCl=  0 I1Cent=           0 NGrid=           0
         NMat0=    1 NMatS0=      1 NMatT0=    0 NMatD0=    1 NMtDS0=    0 NMtDT0=    0
 Symmetry not used in FoFCou.
 E= -1258.18535143872    
 DIIS: error= 2.91D-02 at cycle   1 NSaved=   1.
 NSaved= 1 IEnMin= 1 EnMin= -1258.18535143872     IErMin= 1 ErrMin= 2.91D-02
 ErrMax= 2.91D-02  0.00D+00 EMaxC= 1.00D+00 BMatC= 1.67D+00 BMatP= 1.67D+00
 IDIUse=1 WtCom= 1.00D+00 WtEn= 0.00D+00
 Coeff-Com:  0.100D+01
 Coeff:      0.100D+01
 Gap=     0.642 Goal=   None    Shift=    0.500
 T= 1477. Gap= 0.465 NK=0 IS=   58 IE=  332 IFin=   57
          NO(<0.9)=   0  NV(>0.1)=   0     57.00e < EF      0.00e >EF  Err=0.0D+00
 Gap=    -0.199 Goal=   None    Shift=    0.500
 T= 1477. Gap= 0.252 NK=0 IS=   57 IE=  332 IFin=   56
          NO(<0.9)=   0  NV(>0.1)=   0     56.00e < EF      0.00e >EF  Err=0.0D+00
 GapD=   -0.199 DampG=0.250 DampE=0.500 DampFc=0.1250 IDamp=-1.
 Damping current iteration by 1.25D-01
 RMSDP=9.57D-03 MaxDP=6.39D-01              OVMax= 1.49D-01

 Cycle   2  Pass 1  IDiag  1:
 E= -1258.27443676180     Delta-E=       -0.089085323080 Rises=F Damp=T
 DIIS: error= 2.56D-02 at cycle   2 NSaved=   2.
 NSaved= 2 IEnMin= 2 EnMin= -1258.27443676180     IErMin= 2 ErrMin= 2.56D-02
 ErrMax= 2.56D-02  0.00D+00 EMaxC= 1.00D+00 BMatC= 1.18D+00 BMatP= 1.67D+00
 IDIUse=1 WtCom= 1.00D+00 WtEn= 0.00D+00
 Coeff-Com: -0.501D+01 0.601D+01
 Coeff:     -0.501D+01 0.601D+01
 Gap=     0.198 Goal=   None    Shift=    0.500
 T= 1453. Gap= 0.667 NK=0 IS=   58 IE=  332 IFin=   57
          NO(<0.9)=   0  NV(>0.1)=   0     57.00e < EF      0.00e >EF  Err=0.0D+00
 Gap=     0.006 Goal=   None    Shift=    0.500
 T= 1453. Gap= 0.501 NK=0 IS=   57 IE=  332 IFin=   56
          NO(<0.9)=   0  NV(>0.1)=   0     56.00e < EF      0.00e >EF  Err=0.0D+00
 GapD=    0.006 DampG=0.250 DampE=0.500 DampFc=0.1250 IDamp=-1.
 Damping current iteration by 1.25D-01
 RMSDP=8.52D-03 MaxDP=5.46D-01 DE=-8.91D-02 OVMax= 4.37D-02

 Cycle   3  Pass 1  IDiag  1:
 E= -1258.34312409152     Delta-E=       -0.068687329722 Rises=F Damp=T
 DIIS: error= 2.23D-02 at cycle   3 NSaved=   3.
 NSaved= 3 IEnMin= 3 EnMin= -1258.34312409152     IErMin= 3 ErrMin= 2.23D-02
 ErrMax= 2.23D-02  0.00D+00 EMaxC= 1.00D+00 BMatC= 8.69D-01 BMatP= 1.18D+00
 IDIUse=1 WtCom= 1.00D+00 WtEn= 0.00D+00
 Coeff-Com:  0.768D+00-0.781D+01 0.804D+01
 Coeff:      0.768D+00-0.781D+01 0.804D+01
 Gap=     0.200 Goal=   None    Shift=    0.500
 T= 1402. Gap= 0.699 NK=0 IS=   58 IE=  332 IFin=   57
          NO(<0.9)=   0  NV(>0.1)=   0     57.00e < EF      0.00e >EF  Err=0.0D+00
 Gap=     0.045 Goal=   None    Shift=    0.500
 T= 1402. Gap= 0.547 NK=0 IS=   57 IE=  332 IFin=   56
          NO(<0.9)=   0  NV(>0.1)=   0     56.00e < EF      0.00e >EF  Err=0.0D+00
 GapD=    0.045 DampG=0.250 DampE=0.500 DampFc=0.1250 IDamp=-1.
 Damping current iteration by 1.25D-01
 RMSDP=6.76D-03 MaxDP=4.10D-01 DE=-6.87D-02 OVMax= 3.75D-02

 Cycle   4  Pass 1  IDiag  1:
 E= -1258.39682332717     Delta-E=       -0.053699235650 Rises=F Damp=T
 DIIS: error= 1.93D-02 at cycle   4 NSaved=   4.
 NSaved= 4 IEnMin= 4 EnMin= -1258.39682332717     IErMin= 4 ErrMin= 1.93D-02
 ErrMax= 1.93D-02  0.00D+00 EMaxC= 1.00D+00 BMatC= 6.56D-01 BMatP= 8.69D-01
 IDIUse=1 WtCom= 1.00D+00 WtEn= 0.00D+00
 Large coefficients: NSaved=  4 BigCof=   13.01 CofMax=   10.00 Det=-1.31D-05
 Inversion failed.  Reducing to  3 matrices.
 Large coefficients: NSaved=  3 BigCof=   13.02 CofMax=   10.00 Det=-1.68D-05
 Inversion failed.  Reducing to  2 matrices.
 Coeff-Com: -0.651D+01 0.751D+01
 Coeff:     -0.651D+01 0.751D+01
 Gap=     0.206 Goal=   None    Shift=    0.500
 T= 1321. Gap= 0.707 NK=0 IS=   58 IE=  332 IFin=   57
          NO(<0.9)=   0  NV(>0.1)=   0     57.00e < EF      0.00e >EF  Err=0.0D+00
 Gap=     0.054 Goal=   None    Shift=    0.500
 T= 1321. Gap= 0.556 NK=0 IS=   57 IE=  332 IFin=   56
          NO(<0.9)=   0  NV(>0.1)=   0     56.00e < EF      0.00e >EF  Err=0.0D+00
 GapD=    0.054 DampG=0.500 DampE=0.500 DampFc=0.2500 IDamp=-1.
 Damping current iteration by 2.50D-01
 RMSDP=5.45D-03 MaxDP=3.30D-01 DE=-5.37D-02 OVMax= 3.98D-02

 Cycle   5  Pass 1  IDiag  1:
 E= -1258.48101748344     Delta-E=       -0.084194156267 Rises=F Damp=T
 DIIS: error= 1.52D-02 at cycle   5 NSaved=   3.
 NSaved= 3 IEnMin= 3 EnMin= -1258.48101748344     IErMin= 3 ErrMin= 1.52D-02
 ErrMax= 1.52D-02  0.00D+00 EMaxC= 1.00D+00 BMatC= 3.63D-01 BMatP= 6.56D-01
 IDIUse=1 WtCom= 1.00D+00 WtEn= 0.00D+00
 Large coefficients: NSaved=  3 BigCof=   17.80 CofMax=   10.00 Det=-7.82D-06
 Inversion failed.  Reducing to  2 matrices.
 Coeff-Com: -0.285D+01 0.385D+01
 Coeff:     -0.285D+01 0.385D+01
 Gap=     0.215 Goal=   None    Shift=    0.500
 T= 1220. Gap= 0.715 NK=0 IS=   58 IE=  332 IFin=   57
          NO(<0.9)=   0  NV(>0.1)=   0     57.00e < EF      0.00e >EF  Err=0.0D+00
 Gap=     0.065 Goal=   None    Shift=    0.500
 T= 1220. Gap= 0.567 NK=0 IS=   57 IE=  332 IFin=   56
          NO(<0.9)=   0  NV(>0.1)=   0     56.00e < EF      0.00e >EF  Err=0.0D+00
 GapD=    0.065 DampG=0.500 DampE=0.500 DampFc=0.2500 IDamp=-1.
 Damping current iteration by 2.50D-01
 RMSDP=3.77D-03 MaxDP=2.34D-01 DE=-8.42D-02 OVMax= 4.24D-02

 Cycle   6  Pass 1  IDiag  1:
 E= -1258.53705465937     Delta-E=       -0.056037175930 Rises=F Damp=T
 DIIS: error= 1.23D-02 at cycle   6 NSaved=   3.
 NSaved= 3 IEnMin= 3 EnMin= -1258.53705465937     IErMin= 3 ErrMin= 1.23D-02
 ErrMax= 1.23D-02  0.00D+00 EMaxC= 1.00D+00 BMatC= 2.01D-01 BMatP= 3.63D-01
 IDIUse=1 WtCom= 1.00D+00 WtEn= 0.00D+00
 Large coefficients: NSaved=  3 BigCof=   15.13 CofMax=   10.00 Det=-1.08D-05
 Inversion failed.  Reducing to  2 matrices.
 Coeff-Com: -0.286D+01 0.386D+01
 Coeff:     -0.286D+01 0.386D+01
 Gap=     0.223 Goal=   None    Shift=    0.500
 T= 1104. Gap= 0.723 NK=0 IS=   58 IE=  332 IFin=   57
          NO(<0.9)=   0  NV(>0.1)=   0     57.00e < EF      0.00e >EF  Err=0.0D+00
 Gap=     0.074 Goal=   None    Shift=    0.500
 T= 1104. Gap= 0.576 NK=0 IS=   57 IE=  332 IFin=   56
          NO(<0.9)=   0  NV(>0.1)=   0     56.00e < EF      0.00e >EF  Err=0.0D+00
 GapD=    0.074 DampG=0.500 DampE=0.500 DampFc=0.2500 IDamp=-1.
 Damping current iteration by 2.50D-01
 RMSDP=2.60D-03 MaxDP=1.60D-01 DE=-5.60D-02 OVMax= 4.51D-02

 Cycle   7  Pass 1  IDiag  1:
 E= -1258.57559628270     Delta-E=       -0.038541623332 Rises=F Damp=T
 DIIS: error= 9.91D-03 at cycle   7 NSaved=   3.
 NSaved= 3 IEnMin= 3 EnMin= -1258.57559628270     IErMin= 3 ErrMin= 9.91D-03
 ErrMax= 9.91D-03  0.00D+00 EMaxC= 1.00D+00 BMatC= 1.12D-01 BMatP= 2.01D-01
 IDIUse=1 WtCom= 1.00D+00 WtEn= 0.00D+00
 Large coefficients: NSaved=  3 BigCof=   16.09 CofMax=   10.00 Det=-4.41D-06
 Inversion failed.  Reducing to  2 matrices.
 Coeff-Com: -0.284D+01 0.384D+01
 Coeff:     -0.284D+01 0.384D+01
 Gap=     0.230 Goal=   None    Shift=    0.500
 T=  970. Gap= 0.730 NK=0 IS=   58 IE=  332 IFin=   57
          NO(<0.9)=   0  NV(>0.1)=   0     57.00e < EF      0.00e >EF  Err=0.0D+00
 Gap=     0.082 Goal=   None    Shift=    0.500
 T=  970. Gap= 0.585 NK=0 IS=   57 IE=  332 IFin=   56
          NO(<0.9)=   0  NV(>0.1)=   0     56.00e < EF      0.00e >EF  Err=0.0D+00
 GapD=    0.082 DampG=0.500 DampE=1.000 DampFc=0.5000 IDamp=-1.
 Damping current iteration by 5.00D-01
 RMSDP=1.82D-03 MaxDP=1.03D-01 DE=-3.85D-02 OVMax= 4.73D-02

 Cycle   8  Pass 1  IDiag  1:
 E= -1258.62847987915     Delta-E=       -0.052883596445 Rises=F Damp=T
 DIIS: error= 9.46D-03 at cycle   8 NSaved=   3.
 NSaved= 3 IEnMin= 3 EnMin= -1258.62847987915     IErMin= 3 ErrMin= 9.46D-03
 ErrMax= 9.46D-03  0.00D+00 EMaxC= 1.00D+00 BMatC= 2.76D-02 BMatP= 1.12D-01
 IDIUse=1 WtCom= 1.00D+00 WtEn= 0.00D+00
 Coeff-Com:  0.542D+01-0.992D+01 0.551D+01
 Coeff:      0.542D+01-0.992D+01 0.551D+01
 Gap=     0.253 Goal=   None    Shift=    0.500
 T=  870. Gap= 0.752 NK=4 IS=   58 IE=   67 IFin=   57
          NO(<0.9)=   0  NV(>0.1)=   0     57.00e < EF      0.00e >EF  Err=0.0D+00
 Gap=     0.096 Goal=   None    Shift=    0.500
 T=  870. Gap= 0.602 NK=4 IS=   57 IE=   66 IFin=   56
          NO(<0.9)=   0  NV(>0.1)=   0     56.00e < EF      0.00e >EF  Err=0.0D+00
 GapD=    0.096 DampG=0.500 DampE=1.000 DampFc=0.5000 IDamp=-1.
 Damping current iteration by 5.00D-01
 RMSDP=1.11D-03 MaxDP=6.30D-02 DE=-5.29D-02 OVMax= 6.58D-02

 Cycle   9  Pass 1  IDiag  1:
 E= -1258.65423352858     Delta-E=       -0.025753649435 Rises=F Damp=T
 DIIS: error= 9.93D-03 at cycle   9 NSaved=   4.
 NSaved= 4 IEnMin= 4 EnMin= -1258.65423352858     IErMin= 3 ErrMin= 9.46D-03
 ErrMax= 9.93D-03  0.00D+00 EMaxC= 1.00D+00 BMatC= 8.25D-03 BMatP= 2.76D-02
 IDIUse=1 WtCom= 1.00D+00 WtEn= 0.00D+00
 Coeff-Com:  0.467D+01-0.789D+01 0.258D+01 0.164D+01
 Coeff:      0.467D+01-0.789D+01 0.258D+01 0.164D+01
 Gap=     0.257 Goal=   None    Shift=    0.500
 T=  823. Gap= 0.757 NK=4 IS=   58 IE=   67 IFin=   57
          NO(<0.9)=   0  NV(>0.1)=   0     57.00e < EF      0.00e >EF  Err=0.0D+00
 Gap=     0.107 Goal=   None    Shift=    0.500
 T=  823. Gap= 0.612 NK=4 IS=   57 IE=   66 IFin=   56
          NO(<0.9)=   0  NV(>0.1)=   0     56.00e < EF      0.00e >EF  Err=0.0D+00
 GapD=    0.107 DampG=1.000 DampE=1.000 DampFc=1.0000 IDamp=-1.
 RMSDP=1.02D-03 MaxDP=6.63D-02 DE=-2.58D-02 OVMax= 6.48D-02

 Cycle  10  Pass 1  IDiag  1:
 E= -1258.68442893203     Delta-E=       -0.030195403446 Rises=F Damp=F
 DIIS: error= 1.01D-02 at cycle  10 NSaved=   5.
 NSaved= 5 IEnMin= 5 EnMin= -1258.68442893203     IErMin= 3 ErrMin= 9.46D-03
 ErrMax= 1.01D-02  0.00D+00 EMaxC= 1.00D+00 BMatC= 2.71D-03 BMatP= 8.25D-03
 IDIUse=1 WtCom= 1.00D+00 WtEn= 0.00D+00
 Coeff-Com:  0.376D+01-0.615D+01 0.183D+01 0.996D+00 0.560D+00
 Coeff:      0.376D+01-0.615D+01 0.183D+01 0.996D+00 0.560D+00
 Gap=     0.264 Goal=   None    Shift=    0.500
 T=  823. Gap= 0.764 NK=4 IS=   58 IE=   67 IFin=   57
          NO(<0.9)=   0  NV(>0.1)=   0     57.00e < EF      0.00e >EF  Err=0.0D+00
 Gap=     0.118 Goal=   None    Shift=    0.500
 T=  823. Gap= 0.622 NK=4 IS=   57 IE=   66 IFin=   56
          NO(<0.9)=   0  NV(>0.1)=   0     56.00e < EF      0.00e >EF  Err=0.0D+00
 GapD=    0.118 DampG=1.000 DampE=0.500 DampFc=0.5000 IDamp=-1.
 Damping current iteration by 5.00D-01
 RMSDP=4.71D-04 MaxDP=2.93D-02 DE=-3.02D-02 OVMax= 5.97D-02

 Cycle  11  Pass 1  IDiag  1:
 E= -1258.68658241855     Delta-E=       -0.002153486525 Rises=F Damp=T
 DIIS: error= 1.00D-02 at cycle  11 NSaved=   6.
 NSaved= 6 IEnMin= 6 EnMin= -1258.68658241855     IErMin= 3 ErrMin= 9.46D-03
 ErrMax= 1.00D-02  0.00D+00 EMaxC= 1.00D+00 BMatC= 2.77D-03 BMatP= 2.71D-03
 IDIUse=1 WtCom= 1.00D+00 WtEn= 0.00D+00
 Large coefficients: NSaved=  6 BigCof=   11.84 CofMax=   10.00 Det=-9.95D-07
 Inversion failed.  Reducing to  5 matrices.
 Coeff-Com:  0.368D+00 0.181D+01-0.508D+01 0.997D+01-0.606D+01
 Coeff:      0.368D+00 0.181D+01-0.508D+01 0.997D+01-0.606D+01
 Gap=     0.263 Goal=   None    Shift=    0.500
 T=  823. Gap= 0.763 NK=4 IS=   58 IE=   67 IFin=   57
          NO(<0.9)=   0  NV(>0.1)=   0     57.00e < EF      0.00e >EF  Err=0.0D+00
 Gap=     0.129 Goal=   None    Shift=    0.500
 T=  823. Gap= 0.632 NK=4 IS=   57 IE=   66 IFin=   56
          NO(<0.9)=   0  NV(>0.1)=   0     56.00e < EF      0.00e >EF  Err=0.0D+00
 GapD=    0.129 DampG=1.000 DampE=1.000 DampFc=1.0000 IDamp=-1.
 RMSDP=5.07D-04 MaxDP=3.05D-02 DE=-2.15D-03 OVMax= 4.83D-02

 Cycle  12  Pass 1  IDiag  1:
 E= -1258.69245212695     Delta-E=       -0.005869708403 Rises=F Damp=F
 DIIS: error= 9.20D-03 at cycle  12 NSaved=   6.
 NSaved= 6 IEnMin= 6 EnMin= -1258.69245212695     IErMin= 6 ErrMin= 9.20D-03
 ErrMax= 9.20D-03  0.00D+00 EMaxC= 1.00D+00 BMatC= 3.60D-03 BMatP= 2.71D-03
 IDIUse=1 WtCom= 1.00D+00 WtEn= 0.00D+00
 Large coefficients: NSaved=  6 BigCof=   34.91 CofMax=   10.00 Det=-4.35D-07
 Inversion failed.  Reducing to  5 matrices.
 Large coefficients: NSaved=  5 BigCof=   29.15 CofMax=   10.00 Det=-4.83D-07
 Inversion failed.  Reducing to  4 matrices.
 Large coefficients: NSaved=  4 BigCof=   11.11 CofMax=   10.00 Det=-7.57D-07
 Inversion failed.  Reducing to  3 matrices.
 Large coefficients: NSaved=  3 BigCof=   11.34 CofMax=   10.00 Det=-7.57D-07
 Inversion failed.  Reducing to  2 matrices.
 Coeff-Com:  0.130D+01-0.304D+00
 Coeff:      0.130D+01-0.304D+00
 Gap=     0.262 Goal=   None    Shift=    0.500
 T=  822. Gap= 0.762 NK=4 IS=   58 IE=   67 IFin=   57
          NO(<0.9)=   0  NV(>0.1)=   0     57.00e < EF      0.00e >EF  Err=0.0D+00
 Gap=     0.126 Goal=   None    Shift=    0.500
 T=  822. Gap= 0.627 NK=4 IS=   57 IE=   66 IFin=   56
          NO(<0.9)=   0  NV(>0.1)=   0     56.00e < EF      0.00e >EF  Err=0.0D+00
 GapD=    0.126 DampG=1.000 DampE=1.000 DampFc=1.0000 IDamp=-1.
 RMSDP=1.91D-04 MaxDP=1.75D-02 DE=-5.87D-03 OVMax= 3.34D-02

 Cycle  13  Pass 1  IDiag  1:
 E= -1258.69443669336     Delta-E=       -0.001984566406 Rises=F Damp=F
 DIIS: error= 8.43D-03 at cycle  13 NSaved=   3.
 NSaved= 3 IEnMin= 3 EnMin= -1258.69443669336     IErMin= 3 ErrMin= 8.43D-03
 ErrMax= 8.43D-03  0.00D+00 EMaxC= 1.00D+00 BMatC= 4.76D-03 BMatP= 2.77D-03
 IDIUse=1 WtCom= 1.00D+00 WtEn= 0.00D+00
 Coeff-Com:  0.176D+01-0.141D+01 0.655D+00
 Coeff:      0.176D+01-0.141D+01 0.655D+00
 Gap=     0.260 Goal=   None    Shift=    0.500
 T=  787. Gap= 0.760 NK=4 IS=   58 IE=   67 IFin=   57
          NO(<0.9)=   0  NV(>0.1)=   0     57.00e < EF      0.00e >EF  Err=0.0D+00
 Gap=     0.127 Goal=   None    Shift=    0.500
 T=  787. Gap= 0.628 NK=4 IS=   57 IE=   66 IFin=   56
          NO(<0.9)=   0  NV(>0.1)=   0     56.00e < EF      0.00e >EF  Err=0.0D+00
 GapD=    0.127 DampG=1.000 DampE=1.000 DampFc=1.0000 IDamp=-1.
 RMSDP=1.56D-04 MaxDP=1.18D-02 DE=-1.98D-03 OVMax= 2.37D-02

 Cycle  14  Pass 1  IDiag  1:
 E= -1258.69548481695     Delta-E=       -0.001048123586 Rises=F Damp=F
 DIIS: error= 7.65D-03 at cycle  14 NSaved=   4.
 NSaved= 4 IEnMin= 4 EnMin= -1258.69548481695     IErMin= 4 ErrMin= 7.65D-03
 ErrMax= 7.65D-03  0.00D+00 EMaxC= 1.00D+00 BMatC= 6.45D-03 BMatP= 2.77D-03
 IDIUse=1 WtCom= 1.00D+00 WtEn= 0.00D+00
 Coeff-Com:  0.137D+01-0.116D+01 0.149D+01-0.702D+00
 Coeff:      0.137D+01-0.116D+01 0.149D+01-0.702D+00
 Gap=     0.263 Goal=   None    Shift=    0.500
 T=  734. Gap= 0.763 NK=4 IS=   58 IE=   67 IFin=   57
          NO(<0.9)=   0  NV(>0.1)=   0     57.00e < EF      0.00e >EF  Err=0.0D+00
 Gap=     0.130 Goal=   None    Shift=    0.500
 T=  734. Gap= 0.631 NK=4 IS=   57 IE=   66 IFin=   56
          NO(<0.9)=   0  NV(>0.1)=   0     56.00e < EF      0.00e >EF  Err=0.0D+00
 GapD=    0.130 DampG=1.000 DampE=1.000 DampFc=1.0000 IDamp=-1.
 RMSDP=1.42D-04 MaxDP=1.09D-02 DE=-1.05D-03 OVMax= 2.24D-02

 Cycle  15  Pass 1  IDiag  1:
 E= -1258.69675866935     Delta-E=       -0.001273852406 Rises=F Damp=F
 DIIS: error= 7.21D-03 at cycle  15 NSaved=   5.
 NSaved= 5 IEnMin= 5 EnMin= -1258.69675866935     IErMin= 5 ErrMin= 7.21D-03
 ErrMax= 7.21D-03  0.00D+00 EMaxC= 1.00D+00 BMatC= 7.41D-03 BMatP= 2.77D-03
 IDIUse=1 WtCom= 1.00D+00 WtEn= 0.00D+00
 Coeff-Com:  0.124D+01-0.126D+01 0.412D+01-0.725D+01 0.415D+01
 Coeff:      0.124D+01-0.126D+01 0.412D+01-0.725D+01 0.415D+01
 Gap=     0.273 Goal=   None    Shift=    0.500
 T=  685. Gap= 0.773 NK=4 IS=   58 IE=   67 IFin=   57
          NO(<0.9)=   0  NV(>0.1)=   0     57.00e < EF      0.00e >EF  Err=0.0D+00
 Gap=     0.132 Goal=   None    Shift=    0.500
 T=  685. Gap= 0.633 NK=4 IS=   57 IE=   66 IFin=   56
          NO(<0.9)=   0  NV(>0.1)=   0     56.00e < EF      0.00e >EF  Err=0.0D+00
 GapD=    0.132 DampG=1.000 DampE=1.000 DampFc=1.0000 IDamp=-1.
 RMSDP=3.31D-04 MaxDP=2.54D-02 DE=-1.27D-03 OVMax= 2.83D-02

 Cycle  16  Pass 1  IDiag  1:
 E= -1258.69914406679     Delta-E=       -0.002385397441 Rises=F Damp=F
 DIIS: error= 7.32D-03 at cycle  16 NSaved=   6.
 NSaved= 6 IEnMin= 6 EnMin= -1258.69914406679     IErMin= 5 ErrMin= 7.21D-03
 ErrMax= 7.32D-03  0.00D+00 EMaxC= 1.00D+00 BMatC= 6.63D-03 BMatP= 2.77D-03
 IDIUse=1 WtCom= 1.00D+00 WtEn= 0.00D+00
 Coeff-Com:  0.242D+01-0.321D+01 0.406D+01-0.973D+01 0.280D+01 0.467D+01
 Coeff:      0.242D+01-0.321D+01 0.406D+01-0.973D+01 0.280D+01 0.467D+01
 Gap=     0.302 Goal=   None    Shift=    0.500
 T=  656. Gap= 0.801 NK=4 IS=   58 IE=   66 IFin=   57
          NO(<0.9)=   0  NV(>0.1)=   0     57.00e < EF      0.00e >EF  Err=0.0D+00
 Gap=     0.131 Goal=   None    Shift=    0.500
 T=  656. Gap= 0.635 NK=4 IS=   57 IE=   66 IFin=   56
          NO(<0.9)=   0  NV(>0.1)=   0     56.00e < EF      0.00e >EF  Err=0.0D+00
 GapD=    0.131 DampG=1.000 DampE=1.000 DampFc=1.0000 IDamp=-1.
 RMSDP=8.37D-04 MaxDP=6.42D-02 DE=-2.39D-03 OVMax= 5.51D-02

 Cycle  17  Pass 1  IDiag  1:
 E= -1258.70443500683     Delta-E=       -0.005290940037 Rises=F Damp=F
 DIIS: error= 8.34D-03 at cycle  17 NSaved=   7.
 NSaved= 7 IEnMin= 7 EnMin= -1258.70443500683     IErMin= 5 ErrMin= 7.21D-03
 ErrMax= 8.34D-03  0.00D+00 EMaxC= 1.00D+00 BMatC= 3.64D-03 BMatP= 2.77D-03
 IDIUse=1 WtCom= 1.00D+00 WtEn= 0.00D+00
 Coeff-Com:  0.178D+01-0.251D+01 0.715D+00-0.299D+01 0.425D+00 0.204D+01
 Coeff-Com:  0.154D+01
 Coeff:      0.178D+01-0.251D+01 0.715D+00-0.299D+01 0.425D+00 0.204D+01
 Coeff:      0.154D+01
 Gap=     0.317 Goal=   None    Shift=    0.500
 T=  600. Gap= 0.815 NK=4 IS=   58 IE=   66 IFin=   57
          NO(<0.9)=   0  NV(>0.1)=   0     57.00e < EF      0.00e >EF  Err=0.0D+00
 Gap=     0.144 Goal=   None    Shift=    0.500
 T=  600. Gap= 0.649 NK=4 IS=   57 IE=   66 IFin=   56
          NO(<0.9)=   0  NV(>0.1)=   0     56.00e < EF      0.00e >EF  Err=0.0D+00
 GapD=    0.144 DampG=1.000 DampE=1.000 DampFc=1.0000 IDamp=-1.
 RMSDP=6.86D-04 MaxDP=4.59D-02 DE=-5.29D-03 OVMax= 6.14D-02

 Cycle  18  Pass 1  IDiag  1:
 E= -1258.70949036271     Delta-E=       -0.005055355882 Rises=F Damp=F
 DIIS: error= 8.95D-03 at cycle  18 NSaved=   8.
 NSaved= 8 IEnMin= 8 EnMin= -1258.70949036271     IErMin= 5 ErrMin= 7.21D-03
 ErrMax= 8.95D-03  0.00D+00 EMaxC= 1.00D+00 BMatC= 2.45D-03 BMatP= 2.77D-03
 IDIUse=1 WtCom= 1.00D+00 WtEn= 0.00D+00
 Coeff-Com:  0.901D+00-0.156D+01-0.472D+01 0.288D+01 0.330D+01-0.485D+00
 Coeff-Com: -0.617D+01 0.686D+01
 Coeff:      0.901D+00-0.156D+01-0.472D+01 0.288D+01 0.330D+01-0.485D+00
 Coeff:     -0.617D+01 0.686D+01
 Gap=     0.340 Goal=   None    Shift=    0.500
 T=  450. Gap= 0.789 NK=4 IS=   58 IE=   66 IFin=   57
          NO(<0.9)=   0  NV(>0.1)=   0     57.00e < EF      0.00e >EF  Err=0.0D+00
 Gap=     0.170 Goal=   None    Shift=    0.500
 T=  450. Gap= 0.693 NK=4 IS=   57 IE=   65 IFin=   56
          NO(<0.9)=   0  NV(>0.1)=   0     56.00e < EF      0.00e >EF  Err=0.0D+00
 GapD=    0.170 DampG=1.000 DampE=1.000 DampFc=1.0000 IDamp=-1.
 RMSDP=1.63D-03 MaxDP=9.62D-02 DE=-5.06D-03 OVMax= 1.27D-01

 Cycle  19  Pass 1  IDiag  1:
 E= -1258.71765449994     Delta-E=       -0.008164137227 Rises=F Damp=F
 DIIS: error= 1.14D-02 at cycle  19 NSaved=   9.
 NSaved= 9 IEnMin= 9 EnMin= -1258.71765449994     IErMin= 5 ErrMin= 7.21D-03
 ErrMax= 1.14D-02  0.00D+00 EMaxC= 1.00D+00 BMatC= 7.90D-03 BMatP= 2.45D-03
 IDIUse=1 WtCom= 1.00D+00 WtEn= 0.00D+00
 Large coefficients: NSaved=  9 BigCof=   11.28 CofMax=   10.00 Det=-5.08D-07
 Inversion failed.  Reducing to  8 matrices.
 Large coefficients: NSaved=  8 BigCof=   10.68 CofMax=   10.00 Det=-5.18D-07
 Inversion failed.  Reducing to  7 matrices.
 Large coefficients: NSaved=  7 BigCof=   10.11 CofMax=   10.00 Det=-5.55D-07
 Inversion failed.  Reducing to  6 matrices.
 Large coefficients: NSaved=  6 BigCof=   12.81 CofMax=   10.00 Det=-4.73D-06
 Inversion failed.  Reducing to  5 matrices.
 Coeff-Com:  0.227D+01 0.264D+00-0.497D+01 0.286D+01 0.576D+00
 Coeff:      0.227D+01 0.264D+00-0.497D+01 0.286D+01 0.576D+00
 Gap=     0.339 Goal=   None    Shift=    0.500
 T=  300. Gap= 0.815 NK=4 IS=   58 IE=   66 IFin=   57
          NO(<0.9)=   0  NV(>0.1)=   0     57.00e < EF      0.00e >EF  Err=0.0D+00
 Gap=     0.164 Goal=   None    Shift=    0.500
 T=  300. Gap= 0.663 NK=4 IS=   57 IE=   66 IFin=   56
          NO(<0.9)=   0  NV(>0.1)=   0     56.00e < EF      0.00e >EF  Err=0.0D+00
 GapD=    0.164 DampG=1.000 DampE=0.500 DampFc=0.5000 IDamp=-1.
 Damping current iteration by 5.00D-01
 RMSDP=7.64D-04 MaxDP=4.30D-02 DE=-8.16D-03 OVMax= 2.41D-02

 Cycle  20  Pass 1  IDiag  1:
 E= -1258.71914978703     Delta-E=       -0.001495287087 Rises=F Damp=T
 DIIS: error= 9.80D-03 at cycle  20 NSaved=   6.
 NSaved= 6 IEnMin= 6 EnMin= -1258.71914978703     IErMin= 1 ErrMin= 7.21D-03
 ErrMax= 9.80D-03  0.00D+00 EMaxC= 1.00D+00 BMatC= 2.91D-03 BMatP= 2.45D-03
 IDIUse=1 WtCom= 1.00D+00 WtEn= 0.00D+00
 Coeff-Com: -0.830D+00 0.230D+01-0.247D+01 0.196D+00-0.125D+01 0.305D+01
 Coeff:     -0.830D+00 0.230D+01-0.247D+01 0.196D+00-0.125D+01 0.305D+01
 Gap=     0.329 Goal=   None    Shift=    0.500
 T=  150. Gap= 0.806 NK=4 IS=   58 IE=   66 IFin=   57
          NO(<0.9)=   0  NV(>0.1)=   0     57.00e < EF      0.00e >EF  Err=0.0D+00
 Gap=     0.184 Goal=   None    Shift=    0.500
 T=  150. Gap= 0.689 NK=4 IS=   57 IE=   65 IFin=   56
          NO(<0.9)=   0  NV(>0.1)=   0     56.00e < EF      0.00e >EF  Err=0.0D+00
 GapD=    0.184 DampG=1.000 DampE=1.000 DampFc=1.0000 IDamp=-1.
 RMSDP=3.89D-04 MaxDP=2.44D-02 DE=-1.50D-03 OVMax= 6.51D-02

 Cycle  21  Pass 1  IDiag  1:
 E= -1258.72413370613     Delta-E=       -0.004983919108 Rises=F Damp=F
 DIIS: error= 7.96D-03 at cycle  21 NSaved=   7.
 NSaved= 7 IEnMin= 7 EnMin= -1258.72413370613     IErMin= 1 ErrMin= 7.21D-03
 ErrMax= 7.96D-03  0.00D+00 EMaxC= 1.00D+00 BMatC= 1.44D-03 BMatP= 2.45D-03
 IDIUse=1 WtCom= 1.00D+00 WtEn= 0.00D+00
 Coeff-Com: -0.576D+01 0.528D+01 0.395D+01-0.575D+01-0.959D+00 0.138D+01
 Coeff-Com:  0.286D+01
 Coeff:     -0.576D+01 0.528D+01 0.395D+01-0.575D+01-0.959D+00 0.138D+01
 Coeff:      0.286D+01
 Gap=     0.285 Goal=   None    Shift=    0.500
 Gap=     0.219 Goal=   None    Shift=    0.500
 GapD=    0.219 DampG=1.000 DampE=1.000 DampFc=1.0000 IDamp=-1.
 RMSDP=1.21D-03 MaxDP=4.42D-02 DE=-4.98D-03 OVMax= 1.06D-01

 Cycle  22  Pass 1  IDiag  1:
 E= -1258.72788489328     Delta-E=       -0.003751187147 Rises=F Damp=F
 DIIS: error= 8.63D-03 at cycle  22 NSaved=   8.
 NSaved= 8 IEnMin= 8 EnMin= -1258.72788489328     IErMin= 1 ErrMin= 7.21D-03
 ErrMax= 8.63D-03  0.00D+00 EMaxC= 1.00D+00 BMatC= 8.57D-03 BMatP= 1.44D-03
 IDIUse=1 WtCom= 1.00D+00 WtEn= 0.00D+00
 Coeff-Com: -0.488D+01 0.372D+01 0.540D+01-0.537D+01-0.207D+01 0.172D+01
 Coeff-Com:  0.131D+01 0.116D+01
 Coeff:     -0.488D+01 0.372D+01 0.540D+01-0.537D+01-0.207D+01 0.172D+01
 Coeff:      0.131D+01 0.116D+01
 Gap=     0.286 Goal=   None    Shift=    0.500
 Gap=     0.227 Goal=   None    Shift=    0.500
 GapD=    0.227 DampG=1.000 DampE=1.000 DampFc=1.0000 IDamp=-1.
 RMSDP=4.15D-04 MaxDP=2.23D-02 DE=-3.75D-03 OVMax= 6.55D-02

 Cycle  23  Pass 1  IDiag  1:
 E= -1258.73064562118     Delta-E=       -0.002760727902 Rises=F Damp=F
 DIIS: error= 7.02D-03 at cycle  23 NSaved=   9.
 NSaved= 9 IEnMin= 9 EnMin= -1258.73064562118     IErMin= 9 ErrMin= 7.02D-03
 ErrMax= 7.02D-03  0.00D+00 EMaxC= 1.00D+00 BMatC= 7.29D-03 BMatP= 1.44D-03
 IDIUse=1 WtCom= 1.00D+00 WtEn= 0.00D+00
 Coeff-Com: -0.366D+01 0.177D+01 0.569D+01-0.387D+01-0.131D+01 0.319D+00
 Coeff-Com:  0.991D+00-0.411D+00 0.148D+01
 Coeff:     -0.366D+01 0.177D+01 0.569D+01-0.387D+01-0.131D+01 0.319D+00
 Coeff:      0.991D+00-0.411D+00 0.148D+01
 Gap=     0.295 Goal=   None    Shift=    0.500
 Gap=     0.218 Goal=   None    Shift=    0.500
 GapD=    0.218 DampG=1.000 DampE=1.000 DampFc=1.0000 IDamp=-1.
 RMSDP=3.68D-04 MaxDP=1.85D-02 DE=-2.76D-03 OVMax= 4.01D-02

 Cycle  24  Pass 1  IDiag  1:
 E= -1258.73316485565     Delta-E=       -0.002519234467 Rises=F Damp=F
 DIIS: error= 5.47D-03 at cycle  24 NSaved=  10.
 NSaved=10 IEnMin=10 EnMin= -1258.73316485565     IErMin=10 ErrMin= 5.47D-03
 ErrMax= 5.47D-03  0.00D+00 EMaxC= 1.00D+00 BMatC= 2.97D-03 BMatP= 1.44D-03
 IDIUse=1 WtCom= 1.00D+00 WtEn= 0.00D+00
 Coeff-Com: -0.764D+00-0.373D+00 0.296D+01-0.119D+01 0.145D+01-0.280D+01
 Coeff-Com:  0.666D+00-0.941D+00-0.968D+00 0.297D+01
 Coeff:     -0.764D+00-0.373D+00 0.296D+01-0.119D+01 0.145D+01-0.280D+01
 Coeff:      0.666D+00-0.941D+00-0.968D+00 0.297D+01
 Gap=     0.300 Goal=   None    Shift=    0.500
 Gap=     0.196 Goal=   None    Shift=    0.500
 GapD=    0.196 DampG=1.000 DampE=1.000 DampFc=1.0000 IDamp=-1.
 RMSDP=4.36D-04 MaxDP=2.31D-02 DE=-2.52D-03 OVMax= 4.19D-02

 Cycle  25  Pass 1  IDiag  1:
 E= -1258.73507185042     Delta-E=       -0.001906994768 Rises=F Damp=F
 DIIS: error= 3.94D-03 at cycle  25 NSaved=  11.
 NSaved=11 IEnMin=11 EnMin= -1258.73507185042     IErMin=11 ErrMin= 3.94D-03
 ErrMax= 3.94D-03  0.00D+00 EMaxC= 1.00D+00 BMatC= 5.01D-04 BMatP= 1.44D-03
 IDIUse=1 WtCom= 1.00D+00 WtEn= 0.00D+00
 Coeff-Com:  0.418D+00-0.540D+00 0.415D+00 0.140D+00 0.132D+01-0.203D+01
 Coeff-Com: -0.149D+00-0.266D+00-0.609D+00 0.527D+00 0.177D+01
 Coeff:      0.418D+00-0.540D+00 0.415D+00 0.140D+00 0.132D+01-0.203D+01
 Coeff:     -0.149D+00-0.266D+00-0.609D+00 0.527D+00 0.177D+01
 Gap=     0.297 Goal=   None    Shift=    0.500
 Gap=     0.204 Goal=   None    Shift=    0.500
 GapD=    0.204 DampG=1.000 DampE=1.000 DampFc=1.0000 IDamp=-1.
 RMSDP=2.98D-04 MaxDP=1.81D-02 DE=-1.91D-03 OVMax= 4.31D-02

 Cycle  26  Pass 1  IDiag  1:
 E= -1258.73608488371     Delta-E=       -0.001013033292 Rises=F Damp=F
 DIIS: error= 2.92D-03 at cycle  26 NSaved=  12.
 NSaved=12 IEnMin=12 EnMin= -1258.73608488371     IErMin=12 ErrMin= 2.92D-03
 ErrMax= 2.92D-03  0.00D+00 EMaxC= 1.00D+00 BMatC= 2.31D-04 BMatP= 5.01D-04
 IDIUse=1 WtCom= 1.00D+00 WtEn= 0.00D+00
 Coeff-Com: -0.383D+00 0.196D+00-0.192D+00 0.398D+00-0.417D+00 0.416D+00
 Coeff-Com: -0.626D-01-0.251D+00 0.186D+00 0.352D+00-0.196D+01 0.272D+01
 Coeff:     -0.383D+00 0.196D+00-0.192D+00 0.398D+00-0.417D+00 0.416D+00
 Coeff:     -0.626D-01-0.251D+00 0.186D+00 0.352D+00-0.196D+01 0.272D+01
 Gap=     0.292 Goal=   None    Shift=    0.500
 Gap=     0.225 Goal=   None    Shift=    0.500
 GapD=    0.225 DampG=1.000 DampE=1.000 DampFc=1.0000 IDamp=-1.
 RMSDP=2.65D-04 MaxDP=8.18D-03 DE=-1.01D-03 OVMax= 3.19D-02

 Cycle  27  Pass 1  IDiag  1:
 E= -1258.73647931511     Delta-E=       -0.000394431403 Rises=F Damp=F
 DIIS: error= 2.32D-03 at cycle  27 NSaved=  13.
 NSaved=13 IEnMin=13 EnMin= -1258.73647931511     IErMin=13 ErrMin= 2.32D-03
 ErrMax= 2.32D-03  0.00D+00 EMaxC= 1.00D+00 BMatC= 6.42D-04 BMatP= 2.31D-04
 IDIUse=1 WtCom= 1.00D+00 WtEn= 0.00D+00
 Coeff-Com: -0.591D+00 0.445D+00 0.370D-01-0.841D-01-0.509D+00 0.713D+00
 Coeff-Com:  0.350D+00-0.201D+00-0.606D+00 0.972D+00-0.172D+01 0.531D+00
 Coeff-Com:  0.167D+01
 Coeff:     -0.591D+00 0.445D+00 0.370D-01-0.841D-01-0.509D+00 0.713D+00
 Coeff:      0.350D+00-0.201D+00-0.606D+00 0.972D+00-0.172D+01 0.531D+00
 Coeff:      0.167D+01
 Gap=     0.294 Goal=   None    Shift=    0.500
 Gap=     0.221 Goal=   None    Shift=    0.500
 GapD=    0.221 DampG=1.000 DampE=1.000 DampFc=1.0000 IDamp=-1.
 RMSDP=1.18D-04 MaxDP=4.89D-03 DE=-3.94D-04 OVMax= 1.84D-02

 Cycle  28  Pass 1  IDiag  1:
 E= -1258.73675100758     Delta-E=       -0.000271692472 Rises=F Damp=F
 DIIS: error= 1.84D-03 at cycle  28 NSaved=  14.
 NSaved=14 IEnMin=14 EnMin= -1258.73675100758     IErMin=14 ErrMin= 1.84D-03
 ErrMax= 1.84D-03  0.00D+00 EMaxC= 1.00D+00 BMatC= 5.08D-04 BMatP= 2.31D-04
 IDIUse=1 WtCom= 1.00D+00 WtEn= 0.00D+00
 Coeff-Com: -0.612D+00 0.447D+00 0.688D+00-0.697D+00-0.990D-01 0.157D+00
 Coeff-Com:  0.264D+00 0.182D+00-0.641D+00 0.122D+00 0.390D-01-0.474D+00
 Coeff-Com: -0.221D+00 0.184D+01
 Coeff:     -0.612D+00 0.447D+00 0.688D+00-0.697D+00-0.990D-01 0.157D+00
 Coeff:      0.264D+00 0.182D+00-0.641D+00 0.122D+00 0.390D-01-0.474D+00
 Coeff:     -0.221D+00 0.184D+01
 Gap=     0.295 Goal=   None    Shift=    0.500
 Gap=     0.215 Goal=   None    Shift=    0.500
 GapD=    0.215 DampG=1.000 DampE=1.000 DampFc=1.0000 IDamp=-1.
 RMSDP=1.13D-04 MaxDP=4.10D-03 DE=-2.72D-04 OVMax= 1.53D-02

 Cycle  29  Pass 1  IDiag  1:
 E= -1258.73700532851     Delta-E=       -0.000254320931 Rises=F Damp=F
 DIIS: error= 1.42D-03 at cycle  29 NSaved=  15.
 NSaved=15 IEnMin=15 EnMin= -1258.73700532851     IErMin=15 ErrMin= 1.42D-03
 ErrMax= 1.42D-03  0.00D+00 EMaxC= 1.00D+00 BMatC= 2.19D-04 BMatP= 2.31D-04
 IDIUse=1 WtCom= 1.00D+00 WtEn= 0.00D+00
 Coeff-Com: -0.553D+00 0.263D+00 0.100D+01-0.773D+00-0.541D-01-0.385D-01
 Coeff-Com:  0.924D-01 0.224D+00 0.233D-02-0.447D+00 0.265D+00-0.152D+00
 Coeff-Com: -0.886D+00 0.462D-01 0.201D+01
 Coeff:     -0.553D+00 0.263D+00 0.100D+01-0.773D+00-0.541D-01-0.385D-01
 Coeff:      0.924D-01 0.224D+00 0.233D-02-0.447D+00 0.265D+00-0.152D+00
 Coeff:     -0.886D+00 0.462D-01 0.201D+01
 Gap=     0.296 Goal=   None    Shift=    0.500
 Gap=     0.214 Goal=   None    Shift=    0.500
 GapD=    0.214 DampG=1.000 DampE=1.000 DampFc=1.0000 IDamp=-1.
 RMSDP=9.36D-05 MaxDP=3.84D-03 DE=-2.54D-04 OVMax= 1.48D-02

 Cycle  30  Pass 1  IDiag  1:
 E= -1258.73716521044     Delta-E=       -0.000159881921 Rises=F Damp=F
 DIIS: error= 1.05D-03 at cycle  30 NSaved=  16.
 NSaved=16 IEnMin=16 EnMin= -1258.73716521044     IErMin=16 ErrMin= 1.05D-03
 ErrMax= 1.05D-03  0.00D+00 EMaxC= 1.00D+00 BMatC= 1.05D-04 BMatP= 2.19D-04
 IDIUse=1 WtCom= 1.00D+00 WtEn= 0.00D+00
 Coeff-Com: -0.359D+00 0.117D+00 0.655D+00-0.418D+00-0.137D-01-0.113D+00
 Coeff-Com:  0.144D+00-0.454D-01 0.769D-01 0.173D+00-0.351D+00 0.111D+00
 Coeff-Com: -0.108D+00-0.751D+00-0.481D+00 0.236D+01
 Coeff:     -0.359D+00 0.117D+00 0.655D+00-0.418D+00-0.137D-01-0.113D+00
 Coeff:      0.144D+00-0.454D-01 0.769D-01 0.173D+00-0.351D+00 0.111D+00
 Coeff:     -0.108D+00-0.751D+00-0.481D+00 0.236D+01
 Gap=     0.296 Goal=   None    Shift=    0.500
 Gap=     0.214 Goal=   None    Shift=    0.500
 GapD=    0.214 DampG=1.000 DampE=1.000 DampFc=1.0000 IDamp=-1.
 RMSDP=6.76D-05 MaxDP=2.89D-03 DE=-1.60D-04 OVMax= 1.16D-02

 Cycle  31  Pass 1  IDiag  1:
 E= -1258.73725487658     Delta-E=       -0.000089666142 Rises=F Damp=F
 DIIS: error= 7.71D-04 at cycle  31 NSaved=  17.
 NSaved=17 IEnMin=17 EnMin= -1258.73725487658     IErMin=17 ErrMin= 7.71D-04
 ErrMax= 7.71D-04  0.00D+00 EMaxC= 1.00D+00 BMatC= 5.41D-05 BMatP= 1.05D-04
 IDIUse=1 WtCom= 1.00D+00 WtEn= 0.00D+00
 Coeff-Com: -0.141D+00 0.714D-01 0.123D+00-0.455D-01 0.322D-01-0.819D-01
 Coeff-Com:  0.110D+00-0.132D+00-0.870D-01 0.410D+00-0.333D+00 0.169D-01
 Coeff-Com:  0.318D+00-0.152D+00-0.124D+01-0.262D+00 0.239D+01
 Coeff:     -0.141D+00 0.714D-01 0.123D+00-0.455D-01 0.322D-01-0.819D-01
 Coeff:      0.110D+00-0.132D+00-0.870D-01 0.410D+00-0.333D+00 0.169D-01
 Coeff:      0.318D+00-0.152D+00-0.124D+01-0.262D+00 0.239D+01
 Gap=     0.296 Goal=   None    Shift=    0.500
 Gap=     0.213 Goal=   None    Shift=    0.500
 RMSDP=5.01D-05 MaxDP=2.11D-03 DE=-8.97D-05 OVMax= 8.48D-03

 Cycle  32  Pass 1  IDiag  1:
 E= -1258.73730582521     Delta-E=       -0.000050948636 Rises=F Damp=F
 DIIS: error= 5.67D-04 at cycle  32 NSaved=  18.
 NSaved=18 IEnMin=18 EnMin= -1258.73730582521     IErMin=18 ErrMin= 5.67D-04
 ErrMax= 5.67D-04  0.00D+00 EMaxC= 1.00D+00 BMatC= 2.30D-05 BMatP= 5.41D-05
 IDIUse=1 WtCom= 1.00D+00 WtEn= 0.00D+00
 Coeff-Com: -0.108D+00 0.111D+00 0.721D-02-0.242D-01 0.117D-02 0.490D-02
 Coeff-Com:  0.181D-01-0.103D-01-0.885D-01 0.963D-01-0.242D-01-0.482D-01
 Coeff-Com:  0.118D+00 0.331D+00-0.198D+00-0.140D+01-0.373D-01 0.225D+01
 Coeff:     -0.108D+00 0.111D+00 0.721D-02-0.242D-01 0.117D-02 0.490D-02
 Coeff:      0.181D-01-0.103D-01-0.885D-01 0.963D-01-0.242D-01-0.482D-01
 Coeff:      0.118D+00 0.331D+00-0.198D+00-0.140D+01-0.373D-01 0.225D+01
 Gap=     0.296 Goal=   None    Shift=    0.500
 Gap=     0.213 Goal=   None    Shift=    0.500
 RMSDP=3.38D-05 MaxDP=1.51D-03 DE=-5.09D-05 OVMax= 6.60D-03

 >>>>>>>>>> Convergence criterion not met.
 SCF Done:  E(ULC-wHPBE) =  -1258.73730583     A.U. after   33 cycles
            NFock= 32  Conv=0.34D-04     -V/T= 2.0034
 <Sx>= 0.0000 <Sy>= 0.0000 <Sz>= 0.5000 <S**2>= 0.7620 S= 0.5060
 <L.S>= 0.000000000000E+00
 KE= 1.254516183872D+03 PE=-5.029245990115D+03 EE= 1.475350432098D+03
 Annihilation of the first spin contaminant:
 S**2 before annihilation     0.7620,   after     0.7501
 Leave Link  502 at Mon Jan 25 23:24:38 2021, MaxMem=  4026531840 cpu:            3499.3 elap:             438.0
 (Enter /opt/ohpc/pub/libs/gaussian/g16-A.03/sandybridge/g16/l508.exe)
 Integral symmetry usage will be decided dynamically.
 Tight linear equation convergence will be used.
 ULC-wHPBE wavefunction.
 Quadratic Convergence SCF Method.
 Line search only if initial step raises energy.
 FoFJK:  IHMeth= 1 ICntrl=       0 DoSepK=T KAlg= 0 I1Cent=           0 FoldK=F
 IRaf=         1 NMat=       1 IRICut=       1 DoRegI=T DoRafI=F ISym2E= 1 IDoP0=0 IntGTp=1.
 FoFCou: FMM=F IPFlag=           0 FMFlag=      100000 FMFlg1=           0
         NFxFlg=           0 DoJE=T BraDBF=F KetDBF=F FulRan=T
         wScrn=  0.000000 ICntrl=       500 IOpCl=  0 I1Cent=           0 NGrid=           0
         NMat0=    1 NMatS0=      1 NMatT0=    0 NMatD0=    1 NMtDS0=    0 NMtDT0=    0
 Petite list used in FoFCou.
 Iteration   1 EE= -1258.73733143204                                    Grad=2.833D-03 Max rot=    0.0741 deg.
 QCNR:  CnvC1=2.83D-08 CnvC2=2.83D-07
 LinEq1:  Iter=  0 NonCon=     1 RMS=4.20D-05 Max=6.07D-03 NDo=     1
 AX will form     1 AO Fock derivatives at one time.
 LinEq1:  Iter=  1 NonCon=     1 RMS=2.98D-05 Max=2.28D-03 NDo=     1
 LinEq1:  Iter=  2 NonCon=     1 RMS=1.20D-05 Max=4.38D-04 NDo=     1
 LinEq1:  Iter=  3 NonCon=     1 RMS=6.60D-06 Max=3.01D-04 NDo=     1
 LinEq1:  Iter=  4 NonCon=     1 RMS=3.60D-06 Max=1.43D-04 NDo=     1
 LinEq1:  Iter=  5 NonCon=     1 RMS=2.39D-06 Max=1.19D-04 NDo=     1
 LinEq1:  Iter=  6 NonCon=     1 RMS=1.29D-06 Max=5.05D-05 NDo=     1
 LinEq1:  Iter=  7 NonCon=     1 RMS=7.31D-07 Max=3.22D-05 NDo=     1
 LinEq1:  Iter=  8 NonCon=     1 RMS=3.85D-07 Max=2.35D-05 NDo=     1
 LinEq1:  Iter=  9 NonCon=     1 RMS=1.93D-07 Max=1.28D-05 NDo=     1
 LinEq1:  Iter= 10 NonCon=     1 RMS=1.03D-07 Max=5.40D-06 NDo=     1
 LinEq1:  Iter= 11 NonCon=     1 RMS=5.10D-08 Max=2.79D-06 NDo=     1
 LinEq1:  Iter= 12 NonCon=     1 RMS=2.76D-08 Max=1.04D-06 NDo=     1
 LinEq1:  Iter= 13 NonCon=     1 RMS=1.68D-08 Max=4.50D-07 NDo=     1
 LinEq1:  Iter= 14 NonCon=     1 RMS=7.60D-09 Max=3.43D-07 NDo=     1
 LinEq1:  Iter= 15 NonCon=     0 RMS=3.75D-09 Max=1.75D-07 NDo=     1
 Linear equations converged to 2.833D-08 2.833D-07 after    15 iterations.
 Angle between quadratic step and gradient=  54.77 degrees.
     ILin= 1 X=0.000D+00 Y=-1.258737331432D+03 DE= 0.00D+00 F= -6.38D-05
     ILin= 2 X=1.000D+00 Y=-1.258737363796D+03 DE=-3.24D-05
 Iteration   2 EE= -1258.73736379568     Delta-E=       -0.000032363637 Grad=1.250D-04 Max rot=    0.0014 deg.
 Rotation gradient small -- convergence achieved.
 SCF Done:  E(ULC-wHPBE) =  -1258.73736380     a.u. after    2 cycles
            Convg  =    0.1250D-03                    17 Fock formations.
              S**2 =  0.7607                  -V/T =  2.0034
 <Sx>= 0.0000 <Sy>= 0.0000 <Sz>= 0.5000 <S**2>= 0.7607 S= 0.5053
 <L.S>= 0.000000000000E+00
 Annihilation of the first spin contaminant:
 S**2 before annihilation     0.7607,   after     0.7500
 Leave Link  508 at Mon Jan 25 23:28:25 2021, MaxMem=  4026531840 cpu:            1809.4 elap:             226.8
 (Enter /opt/ohpc/pub/libs/gaussian/g16-A.03/sandybridge/g16/l601.exe)
 Copying SCF densities to generalized density rwf, IOpCl= 1 IROHF=0.

 **********************************************************************

            Population analysis using the SCF density.

 **********************************************************************

 Orbital symmetries:
 Alpha Orbitals:
       Occupied  (A) (A) (A) (A) (A) (A) (A) (A) (A) (A) (A) (A)
                 (A) (A) (A) (A) (A) (A) (A) (A) (A) (A) (A) (A)
                 (A) (A) (A) (A) (A) (A) (A) (A) (A) (A) (A) (A)
                 (A) (A) (A) (A) (A) (A) (A) (A) (A) (A) (A) (A)
                 (A) (A) (A) (A) (A) (A) (A) (A) (A)
       Virtual   (A) (A) (A) (A) (A) (A) (A) (A) (A) (A) (A) (A)
                 (A) (A) (A) (A) (A) (A) (A) (A) (A) (A) (A) (A)
                 (A) (A) (A) (A) (A) (A) (A) (A) (A) (A) (A) (A)
                 (A) (A) (A) (A) (A) (A) (A) (A) (A) (A) (A) (A)
                 (A) (A) (A) (A) (A) (A) (A) (A) (A) (A) (A) (A)
                 (A) (A) (A) (A) (A) (A) (A) (A) (A) (A) (A) (A)
                 (A) (A) (A) (A) (A) (A) (A) (A) (A) (A) (A) (A)
                 (A) (A) (A) (A) (A) (A) (A) (A) (A) (A) (A) (A)
                 (A) (A) (A) (A) (A) (A) (A) (A) (A) (A) (A) (A)
                 (A) (A) (A) (A) (A) (A) (A) (A) (A) (A) (A) (A)
                 (A) (A) (A) (A) (A) (A) (A) (A) (A) (A) (A) (A)
                 (A) (A) (A) (A) (A) (A) (A) (A) (A) (A) (A) (A)
                 (A) (A) (A) (A) (A) (A) (A) (A) (A) (A) (A) (A)
                 (A) (A) (A) (A) (A) (A) (A) (A) (A) (A) (A) (A)
                 (A) (A) (A) (A) (A) (A) (A) (A) (A) (A) (A) (A)
                 (A) (A) (A) (A) (A) (A) (A) (A) (A) (A) (A) (A)
                 (A) (A) (A) (A) (A) (A) (A) (A) (A) (A) (A) (A)
                 (A) (A) (A) (A) (A) (A) (A) (A) (A) (A) (A) (A)
                 (A) (A) (A) (A) (A) (A) (A) (A) (A) (A) (A) (A)
                 (A) (A) (A) (A) (A) (A) (A) (A) (A) (A) (A) (A)
                 (A) (A) (A) (A) (A) (A) (A) (A) (A) (A) (A) (A)
                 (A) (A) (A) (A) (A) (A) (A) (A) (A) (A) (A) (A)
                 (A) (A) (A) (A) (A) (A) (A) (A) (A) (A) (A)
 Beta  Orbitals:
       Occupied  (A) (A) (A) (A) (A) (A) (A) (A) (A) (A) (A) (A)
                 (A) (A) (A) (A) (A) (A) (A) (A) (A) (A) (A) (A)
                 (A) (A) (A) (A) (A) (A) (A) (A) (A) (A) (A) (A)
                 (A) (A) (A) (A) (A) (A) (A) (A) (A) (A) (A) (A)
                 (A) (A) (A) (A) (A) (A) (A) (A)
       Virtual   (A) (A) (A) (A) (A) (A) (A) (A) (A) (A) (A) (A)
                 (A) (A) (A) (A) (A) (A) (A) (A) (A) (A) (A) (A)
                 (A) (A) (A) (A) (A) (A) (A) (A) (A) (A) (A) (A)
                 (A) (A) (A) (A) (A) (A) (A) (A) (A) (A) (A) (A)
                 (A) (A) (A) (A) (A) (A) (A) (A) (A) (A) (A) (A)
                 (A) (A) (A) (A) (A) (A) (A) (A) (A) (A) (A) (A)
                 (A) (A) (A) (A) (A) (A) (A) (A) (A) (A) (A) (A)
                 (A) (A) (A) (A) (A) (A) (A) (A) (A) (A) (A) (A)
                 (A) (A) (A) (A) (A) (A) (A) (A) (A) (A) (A) (A)
                 (A) (A) (A) (A) (A) (A) (A) (A) (A) (A) (A) (A)
                 (A) (A) (A) (A) (A) (A) (A) (A) (A) (A) (A) (A)
                 (A) (A) (A) (A) (A) (A) (A) (A) (A) (A) (A) (A)
                 (A) (A) (A) (A) (A) (A) (A) (A) (A) (A) (A) (A)
                 (A) (A) (A) (A) (A) (A) (A) (A) (A) (A) (A) (A)
                 (A) (A) (A) (A) (A) (A) (A) (A) (A) (A) (A) (A)
                 (A) (A) (A) (A) (A) (A) (A) (A) (A) (A) (A) (A)
                 (A) (A) (A) (A) (A) (A) (A) (A) (A) (A) (A) (A)
                 (A) (A) (A) (A) (A) (A) (A) (A) (A) (A) (A) (A)
                 (A) (A) (A) (A) (A) (A) (A) (A) (A) (A) (A) (A)
                 (A) (A) (A) (A) (A) (A) (A) (A) (A) (A) (A) (A)
                 (A) (A) (A) (A) (A) (A) (A) (A) (A) (A) (A) (A)
                 (A) (A) (A) (A) (A) (A) (A) (A) (A) (A) (A) (A)
                 (A) (A) (A) (A) (A) (A) (A) (A) (A) (A) (A) (A)
 The electronic state is 2-A.
 Alpha  occ. eigenvalues --  -88.47060 -88.34880 -10.22274 -10.21316 -10.21072
 Alpha  occ. eigenvalues --  -10.20299 -10.17712 -10.16668 -10.16616 -10.16029
 Alpha  occ. eigenvalues --  -10.15947 -10.15236 -10.14999 -10.14806  -8.06095
 Alpha  occ. eigenvalues --   -7.94184  -6.08008  -6.07951  -6.07225  -5.96376
 Alpha  occ. eigenvalues --   -5.95885  -5.95113  -1.11938  -1.07768  -1.04444
 Alpha  occ. eigenvalues --   -0.99181  -0.96915  -0.96639  -0.93270  -0.90488
 Alpha  occ. eigenvalues --   -0.83507  -0.82458  -0.82095  -0.79359  -0.75004
 Alpha  occ. eigenvalues --   -0.73526  -0.70307  -0.68794  -0.68151  -0.67058
 Alpha  occ. eigenvalues --   -0.65297  -0.64768  -0.63734  -0.62746  -0.61831
 Alpha  occ. eigenvalues --   -0.60760  -0.58762  -0.58211  -0.56119  -0.55799
 Alpha  occ. eigenvalues --   -0.54087  -0.51381  -0.50318  -0.49445  -0.48822
 Alpha  occ. eigenvalues --   -0.47694  -0.43434
 Alpha virt. eigenvalues --   -0.13767  -0.13424  -0.11870  -0.10459  -0.09428
 Alpha virt. eigenvalues --   -0.07654  -0.05582  -0.04238  -0.01028   0.00301
 Alpha virt. eigenvalues --    0.01230   0.02585   0.02822   0.03952   0.04516
 Alpha virt. eigenvalues --    0.05242   0.05910   0.06030   0.07296   0.07766
 Alpha virt. eigenvalues --    0.08532   0.09157   0.09879   0.10390   0.12653
 Alpha virt. eigenvalues --    0.12858   0.14017   0.14984   0.15521   0.15633
 Alpha virt. eigenvalues --    0.16385   0.16696   0.17060   0.17443   0.17706
 Alpha virt. eigenvalues --    0.18158   0.18950   0.19491   0.19848   0.20836
 Alpha virt. eigenvalues --    0.21177   0.21956   0.23167   0.23604   0.24300
 Alpha virt. eigenvalues --    0.25604   0.26929   0.27028   0.28134   0.28165
 Alpha virt. eigenvalues --    0.28917   0.29239   0.30224   0.30674   0.31748
 Alpha virt. eigenvalues --    0.32290   0.32616   0.33096   0.34499   0.34994
 Alpha virt. eigenvalues --    0.36187   0.36431   0.36951   0.37755   0.37927
 Alpha virt. eigenvalues --    0.38113   0.39259   0.39768   0.40345   0.41284
 Alpha virt. eigenvalues --    0.41899   0.42196   0.42694   0.43251   0.44068
 Alpha virt. eigenvalues --    0.44969   0.45832   0.47151   0.47833   0.49046
 Alpha virt. eigenvalues --    0.50235   0.51744   0.54192   0.55482   0.57025
 Alpha virt. eigenvalues --    0.58025   0.58813   0.59885   0.61102   0.61663
 Alpha virt. eigenvalues --    0.62956   0.64732   0.65432   0.66851   0.69046
 Alpha virt. eigenvalues --    0.70285   0.74305   0.75988   0.76300   0.77481
 Alpha virt. eigenvalues --    0.79832   0.80271   0.82085   0.83967   0.84993
 Alpha virt. eigenvalues --    0.93142   0.95234   1.05751   1.09705   1.10141
 Alpha virt. eigenvalues --    1.11881   1.12881   1.13492   1.14002   1.15368
 Alpha virt. eigenvalues --    1.15908   1.16751   1.17907   1.18419   1.19552
 Alpha virt. eigenvalues --    1.20096   1.20789   1.21450   1.22199   1.24036
 Alpha virt. eigenvalues --    1.25146   1.26359   1.28170   1.29691   1.30091
 Alpha virt. eigenvalues --    1.31420   1.32730   1.33174   1.33540   1.33986
 Alpha virt. eigenvalues --    1.34653   1.35325   1.35587   1.35686   1.37181
 Alpha virt. eigenvalues --    1.37369   1.38894   1.39625   1.40461   1.41160
 Alpha virt. eigenvalues --    1.41883   1.42549   1.43442   1.44091   1.45479
 Alpha virt. eigenvalues --    1.45946   1.46212   1.47711   1.48236   1.50091
 Alpha virt. eigenvalues --    1.51277   1.51810   1.53337   1.53627   1.54235
 Alpha virt. eigenvalues --    1.57709   1.60058   1.63009   1.64790   1.65361
 Alpha virt. eigenvalues --    1.66702   1.67121   1.68408   1.69163   1.69451
 Alpha virt. eigenvalues --    1.70079   1.71305   1.72172   1.74060   1.75095
 Alpha virt. eigenvalues --    1.76993   1.78033   1.78475   1.78814   1.79038
 Alpha virt. eigenvalues --    1.80728   1.81218   1.82247   1.85761   1.85968
 Alpha virt. eigenvalues --    1.87042   1.87826   1.88449   1.88707   1.89479
 Alpha virt. eigenvalues --    1.91225   1.93842   1.95575   1.97670   2.00282
 Alpha virt. eigenvalues --    2.03563   2.06611   2.10914   2.11403   2.13762
 Alpha virt. eigenvalues --    2.14762   2.16303   2.17137   2.18298   2.19013
 Alpha virt. eigenvalues --    2.19774   2.20512   2.22354   2.22562   2.23204
 Alpha virt. eigenvalues --    2.24350   2.25165   2.27397   2.28465   2.30906
 Alpha virt. eigenvalues --    2.31819   2.37139   2.37973   2.40344   2.40858
 Alpha virt. eigenvalues --    2.41474   2.43569   2.45711   2.46879   2.49114
 Alpha virt. eigenvalues --    2.49640   2.51216   2.52247   2.53243   2.53935
 Alpha virt. eigenvalues --    2.54588   2.55304   2.55527   2.57349   2.62498
 Alpha virt. eigenvalues --    2.66195   2.68976   2.69593   2.71161   2.76876
 Alpha virt. eigenvalues --    2.86947   2.89765   2.91793   2.92898   2.96955
 Alpha virt. eigenvalues --    2.97834   2.99232   3.00671   3.01571   3.02903
 Alpha virt. eigenvalues --    3.05211   3.07110   3.09770   3.16810   3.17759
 Alpha virt. eigenvalues --    3.20374   3.27764   3.36736   3.42017   3.55072
 Alpha virt. eigenvalues --    3.60161  18.81867  18.89616  20.92905  21.14061
 Alpha virt. eigenvalues --   21.45474  21.50891  21.53896  21.56882  21.73581
 Alpha virt. eigenvalues --   21.78157  21.80248  21.81714  21.93327  21.96849
  Beta  occ. eigenvalues --  -88.47046 -88.34880 -10.22270 -10.21076 -10.20295
  Beta  occ. eigenvalues --  -10.19757 -10.17616 -10.16672 -10.16615 -10.16016
  Beta  occ. eigenvalues --  -10.15904 -10.15238 -10.14997 -10.14806  -8.06079
  Beta  occ. eigenvalues --   -7.94184  -6.07987  -6.07932  -6.07207  -5.96375
  Beta  occ. eigenvalues --   -5.95885  -5.95112  -1.11696  -1.07504  -1.04298
  Beta  occ. eigenvalues --   -0.99168  -0.96579  -0.95964  -0.93059  -0.90437
  Beta  occ. eigenvalues --   -0.83078  -0.82106  -0.82020  -0.79011  -0.74546
  Beta  occ. eigenvalues --   -0.73451  -0.70141  -0.68566  -0.67658  -0.66863
  Beta  occ. eigenvalues --   -0.65172  -0.64472  -0.63612  -0.62549  -0.61700
  Beta  occ. eigenvalues --   -0.59725  -0.58614  -0.57909  -0.56042  -0.55474
  Beta  occ. eigenvalues --   -0.54085  -0.50508  -0.49218  -0.48364  -0.47544
  Beta  occ. eigenvalues --   -0.43431
  Beta virt. eigenvalues --   -0.22241  -0.13609  -0.12824  -0.11659  -0.10274
  Beta virt. eigenvalues --   -0.08932  -0.07552  -0.05442  -0.04041  -0.01009
  Beta virt. eigenvalues --    0.00438   0.01257   0.02800   0.02902   0.04391
  Beta virt. eigenvalues --    0.04785   0.05284   0.06065   0.06354   0.07361
  Beta virt. eigenvalues --    0.07877   0.08663   0.09407   0.10010   0.10906
  Beta virt. eigenvalues --    0.12887   0.13207   0.14212   0.15078   0.15679
  Beta virt. eigenvalues --    0.15827   0.16620   0.16894   0.17502   0.17717
  Beta virt. eigenvalues --    0.17979   0.18461   0.19344   0.19635   0.20219
  Beta virt. eigenvalues --    0.21038   0.21335   0.21980   0.23333   0.23908
  Beta virt. eigenvalues --    0.24614   0.26284   0.26978   0.27098   0.28283
  Beta virt. eigenvalues --    0.28596   0.29093   0.29376   0.30481   0.30734
  Beta virt. eigenvalues --    0.32081   0.32492   0.32908   0.33207   0.34843
  Beta virt. eigenvalues --    0.35045   0.36266   0.36540   0.37125   0.37843
  Beta virt. eigenvalues --    0.38090   0.38243   0.39413   0.39948   0.40564
  Beta virt. eigenvalues --    0.41460   0.42363   0.42586   0.42801   0.43379
  Beta virt. eigenvalues --    0.44306   0.45051   0.45958   0.47457   0.48332
  Beta virt. eigenvalues --    0.49241   0.50603   0.51845   0.54316   0.55723
  Beta virt. eigenvalues --    0.57254   0.58649   0.59258   0.60242   0.61287
  Beta virt. eigenvalues --    0.61734   0.63152   0.64804   0.65574   0.66954
  Beta virt. eigenvalues --    0.69094   0.70495   0.74517   0.76100   0.76516
  Beta virt. eigenvalues --    0.77532   0.79940   0.80416   0.82165   0.84053
  Beta virt. eigenvalues --    0.85058   0.93276   0.95335   1.05786   1.09920
  Beta virt. eigenvalues --    1.10534   1.12068   1.13124   1.13804   1.14258
  Beta virt. eigenvalues --    1.15567   1.16154   1.16776   1.17968   1.18652
  Beta virt. eigenvalues --    1.19762   1.20195   1.21021   1.21828   1.22237
  Beta virt. eigenvalues --    1.25310   1.26012   1.27559   1.28670   1.29835
  Beta virt. eigenvalues --    1.30396   1.31951   1.33207   1.33838   1.34119
  Beta virt. eigenvalues --    1.34573   1.34883   1.35442   1.35665   1.36359
  Beta virt. eigenvalues --    1.37212   1.37792   1.39274   1.39940   1.41249
  Beta virt. eigenvalues --    1.41598   1.42111   1.42944   1.44097   1.44605
  Beta virt. eigenvalues --    1.45659   1.46693   1.47172   1.48485   1.49594
  Beta virt. eigenvalues --    1.50404   1.51464   1.52847   1.53485   1.54497
  Beta virt. eigenvalues --    1.54762   1.58626   1.60559   1.63456   1.65434
  Beta virt. eigenvalues --    1.65490   1.66730   1.67324   1.68458   1.69256
  Beta virt. eigenvalues --    1.69519   1.70143   1.71602   1.72500   1.74415
  Beta virt. eigenvalues --    1.75636   1.77195   1.78170   1.78572   1.79060
  Beta virt. eigenvalues --    1.79116   1.80741   1.81255   1.82343   1.86101
  Beta virt. eigenvalues --    1.86400   1.87248   1.88025   1.88638   1.88846
  Beta virt. eigenvalues --    1.89877   1.91348   1.93991   1.95706   1.98549
  Beta virt. eigenvalues --    2.00434   2.03695   2.06811   2.11705   2.12248
  Beta virt. eigenvalues --    2.13908   2.15141   2.16970   2.17431   2.18530
  Beta virt. eigenvalues --    2.19642   2.19974   2.20757   2.22517   2.22687
  Beta virt. eigenvalues --    2.23265   2.24413   2.25261   2.27558   2.29457
  Beta virt. eigenvalues --    2.31914   2.31959   2.37195   2.38157   2.40470
  Beta virt. eigenvalues --    2.41324   2.41696   2.43717   2.46098   2.47028
  Beta virt. eigenvalues --    2.49188   2.49810   2.51441   2.52857   2.53313
  Beta virt. eigenvalues --    2.54004   2.55023   2.55408   2.56031   2.57478
  Beta virt. eigenvalues --    2.62520   2.66781   2.69035   2.70382   2.71176
  Beta virt. eigenvalues --    2.78176   2.86951   2.90291   2.91796   2.93915
  Beta virt. eigenvalues --    2.97584   2.97854   2.99492   3.00686   3.01629
  Beta virt. eigenvalues --    3.03690   3.05415   3.07154   3.11130   3.16820
  Beta virt. eigenvalues --    3.18193   3.20701   3.27772   3.38545   3.42039
  Beta virt. eigenvalues --    3.55569   3.60164  18.81871  18.89651  20.92908
  Beta virt. eigenvalues --   21.14420  21.46242  21.51496  21.54139  21.56887
  Beta virt. eigenvalues --   21.74066  21.78169  21.80302  21.81760  21.93580
  Beta virt. eigenvalues --   21.96901
          Condensed to atoms (all electrons):
               1          2          3          4          5          6
     1  C    6.024138  -0.157599  -0.101495   0.235320   0.004508  -0.016500
     2  C   -0.157599   6.260383   0.475110  -0.410255  -0.015633  -0.012489
     3  S   -0.101495   0.475110  15.471398  -0.185933   0.058154  -0.063366
     4  C    0.235320  -0.410255  -0.185933   6.682512  -0.048421   0.020784
     5  C    0.004508  -0.015633   0.058154  -0.048421   6.253806   0.036883
     6  C   -0.016500  -0.012489  -0.063366   0.020784   0.036883   5.678984
     7  C   -0.226674   0.298601   0.049946  -0.331438  -0.001582   0.004568
     8  C   -0.368899   0.033138   0.023662  -0.263078   0.001853   0.011854
     9  H   -0.000710   0.004958   0.003971  -0.031184  -0.032763   0.007647
    10  C   -0.002347   0.012541  -0.034694  -0.005308  -0.048217   0.059467
    11  C    0.002726   0.003035   0.015584  -0.010153   0.062777   0.249741
    12  C   -0.000540  -0.001022  -0.014924   0.001012  -0.227577   0.128305
    13  C    0.000215   0.001335   0.018981  -0.000964   0.130634  -0.143917
    14  H   -0.000051   0.000364  -0.000971  -0.000451  -0.084293   0.006943
    15  H    0.000056   0.000118  -0.000243  -0.000211   0.017103  -0.054522
    16  H   -0.000003  -0.000044  -0.000454   0.000026  -0.004751   0.016039
    17  H    0.000001   0.000027   0.000184  -0.000014   0.022477  -0.000834
    18  C    0.270044  -0.238429  -0.009579   0.252932   0.000528  -0.003402
    19  H    0.454643  -0.109975  -0.016479   0.036447   0.000200  -0.000473
    20  H   -0.035265  -0.015079   0.334276   0.012148   0.000059   0.002580
    21  H   -0.059447   0.021822   0.000069  -0.004467  -0.000006   0.000014
    22  H   -0.002861   0.026910   0.000018  -0.085406   0.000796   0.000036
    23  H    0.020447  -0.002388  -0.000039   0.028369   0.000008  -0.000010
    24  S    0.019132  -0.201349  -0.007635   0.409017   0.176266  -0.031854
               7          8          9         10         11         12
     1  C   -0.226674  -0.368899  -0.000710  -0.002347   0.002726  -0.000540
     2  C    0.298601   0.033138   0.004958   0.012541   0.003035  -0.001022
     3  S    0.049946   0.023662   0.003971  -0.034694   0.015584  -0.014924
     4  C   -0.331438  -0.263078  -0.031184  -0.005308  -0.010153   0.001012
     5  C   -0.001582   0.001853  -0.032763  -0.048217   0.062777  -0.227577
     6  C    0.004568   0.011854   0.007647   0.059467   0.249741   0.128305
     7  C    5.514067   0.279255   0.000423   0.000504  -0.000678   0.000093
     8  C    0.279255   5.926686  -0.001136  -0.001801  -0.003431   0.000268
     9  H    0.000423  -0.001136   0.558490  -0.000970  -0.000407  -0.000064
    10  C    0.000504  -0.001801  -0.000970   5.541548  -0.239610   0.132397
    11  C   -0.000678  -0.003431  -0.000407  -0.239610   5.243153   0.265796
    12  C    0.000093   0.000268  -0.000064   0.132397   0.265796   5.135426
    13  C   -0.000057   0.000094   0.003616   0.224309   0.156943   0.285684
    14  H    0.000006  -0.000121   0.000423   0.406538  -0.002363   0.012425
    15  H   -0.000012  -0.000069   0.000001   0.001299   0.401909  -0.040931
    16  H    0.000000   0.000001  -0.000002   0.017147  -0.050851   0.422243
    17  H   -0.000000  -0.000002   0.000002  -0.054934   0.012892  -0.045438
    18  C    0.162348   0.099312  -0.001657  -0.000352   0.000527  -0.000048
    19  H   -0.052727  -0.006604  -0.000015  -0.000041   0.000085  -0.000025
    20  H    0.003301   0.001172   0.000035  -0.000144  -0.000188   0.000100
    21  H    0.428011   0.021341   0.000002   0.000001  -0.000002   0.000000
    22  H    0.012062   0.394671   0.000505   0.000097  -0.000043   0.000002
    23  H   -0.062112  -0.074645  -0.000005  -0.000001   0.000002  -0.000000
    24  S   -0.005253  -0.030051   0.321249  -0.086011   0.006807   0.002240
              13         14         15         16         17         18
     1  C    0.000215  -0.000051   0.000056  -0.000003   0.000001   0.270044
     2  C    0.001335   0.000364   0.000118  -0.000044   0.000027  -0.238429
     3  S    0.018981  -0.000971  -0.000243  -0.000454   0.000184  -0.009579
     4  C   -0.000964  -0.000451  -0.000211   0.000026  -0.000014   0.252932
     5  C    0.130634  -0.084293   0.017103  -0.004751   0.022477   0.000528
     6  C   -0.143917   0.006943  -0.054522   0.016039  -0.000834  -0.003402
     7  C   -0.000057   0.000006  -0.000012   0.000000  -0.000000   0.162348
     8  C    0.000094  -0.000121  -0.000069   0.000001  -0.000002   0.099312
     9  H    0.003616   0.000423   0.000001  -0.000002   0.000002  -0.001657
    10  C    0.224309   0.406538   0.001299   0.017147  -0.054934  -0.000352
    11  C    0.156943  -0.002363   0.401909  -0.050851   0.012892   0.000527
    12  C    0.285684   0.012425  -0.040931   0.422243  -0.045438  -0.000048
    13  C    5.099877  -0.001534   0.011177  -0.054313   0.411323   0.000026
    14  H   -0.001534   0.504196   0.000026  -0.000098  -0.005407   0.000003
    15  H    0.011177   0.000026   0.493147  -0.007425  -0.000119   0.000008
    16  H   -0.054313  -0.000098  -0.007425   0.499863  -0.005163  -0.000000
    17  H    0.411323  -0.005407  -0.000119  -0.005163   0.499837   0.000000
    18  C    0.000026   0.000003   0.000008  -0.000000   0.000000   5.191372
    19  H    0.000011  -0.000001   0.000004  -0.000000   0.000000   0.019231
    20  H   -0.000246  -0.000001  -0.000009   0.000005   0.000001  -0.000751
    21  H   -0.000000   0.000000  -0.000000   0.000000  -0.000000  -0.061099
    22  H    0.000005   0.000001  -0.000000   0.000000  -0.000000  -0.011615
    23  H    0.000000  -0.000000   0.000000  -0.000000   0.000000   0.435379
    24  S    0.015010  -0.008361  -0.000562   0.000038  -0.000227   0.011409
              19         20         21         22         23         24
     1  C    0.454643  -0.035265  -0.059447  -0.002861   0.020447   0.019132
     2  C   -0.109975  -0.015079   0.021822   0.026910  -0.002388  -0.201349
     3  S   -0.016479   0.334276   0.000069   0.000018  -0.000039  -0.007635
     4  C    0.036447   0.012148  -0.004467  -0.085406   0.028369   0.409017
     5  C    0.000200   0.000059  -0.000006   0.000796   0.000008   0.176266
     6  C   -0.000473   0.002580   0.000014   0.000036  -0.000010  -0.031854
     7  C   -0.052727   0.003301   0.428011   0.012062  -0.062112  -0.005253
     8  C   -0.006604   0.001172   0.021341   0.394671  -0.074645  -0.030051
     9  H   -0.000015   0.000035   0.000002   0.000505  -0.000005   0.321249
    10  C   -0.000041  -0.000144   0.000001   0.000097  -0.000001  -0.086011
    11  C    0.000085  -0.000188  -0.000002  -0.000043   0.000002   0.006807
    12  C   -0.000025   0.000100   0.000000   0.000002  -0.000000   0.002240
    13  C    0.000011  -0.000246  -0.000000   0.000005   0.000000   0.015010
    14  H   -0.000001  -0.000001   0.000000   0.000001  -0.000000  -0.008361
    15  H    0.000004  -0.000009  -0.000000  -0.000000   0.000000  -0.000562
    16  H   -0.000000   0.000005   0.000000   0.000000  -0.000000   0.000038
    17  H    0.000000   0.000001  -0.000000  -0.000000   0.000000  -0.000227
    18  C    0.019231  -0.000751  -0.061099  -0.011615   0.435379   0.011409
    19  H    0.518081  -0.002211  -0.007028  -0.000067  -0.000119   0.000125
    20  H   -0.002211   0.562650   0.000019   0.000006  -0.000004  -0.000162
    21  H   -0.007028   0.000019   0.508646  -0.000128  -0.006907   0.000014
    22  H   -0.000067   0.000006  -0.000128   0.495735  -0.006112  -0.001641
[...]
     5  C   -0.004157   0.011632   0.002551   0.002125  -0.003744   0.000384
     6  C    0.008128  -0.000383  -0.008665   0.000709   0.000409  -0.000777
     7  C   -0.000002  -0.000001  -0.000001  -0.000000   0.000000  -0.000078
     8  C   -0.000008   0.000019  -0.000000   0.000000  -0.000000  -0.001947
     9  H    0.000055  -0.000399  -0.000000  -0.000001   0.000006  -0.000047
    10  C   -0.000296  -0.012930  -0.001276  -0.002636   0.005448  -0.000041
    11  C   -0.011038   0.000684   0.014653   0.004515  -0.001658  -0.000005
    12  C   -0.001108  -0.001687  -0.012753  -0.009423   0.004160  -0.000002
    13  C   -0.049230   0.001926   0.001857   0.003309  -0.003526   0.000002
    14  H    0.001926   0.005213   0.000010  -0.000002   0.000100   0.000001
    15  H    0.001857   0.000010   0.027417   0.000840  -0.000027   0.000001
    16  H    0.003309  -0.000002   0.000840   0.004784   0.000020   0.000000
    17  H   -0.003526   0.000100  -0.000027   0.000020   0.002609  -0.000000
    18  C    0.000002   0.000001   0.000001   0.000000  -0.000000   0.002512
    19  H    0.000000   0.000000   0.000000   0.000000  -0.000000   0.000045
    20  H    0.000008  -0.000003  -0.000002  -0.000001   0.000001  -0.000003
    21  H   -0.000000  -0.000000  -0.000000  -0.000000   0.000000  -0.000331
    22  H   -0.000001  -0.000000  -0.000000  -0.000000  -0.000000   0.000015
    23  H    0.000000   0.000000   0.000000   0.000000  -0.000000   0.000103
    24  S    0.001828   0.001185   0.000085   0.000017  -0.000032  -0.000111
              19         20         21         22         23         24
     1  C    0.000419  -0.000665  -0.000286  -0.000022  -0.000002   0.000506
     2  C   -0.000543   0.001093   0.000297  -0.000003  -0.000023  -0.000292
     3  S    0.000087   0.000183   0.000000  -0.000001   0.000001  -0.000344
     4  C    0.000052   0.000064  -0.000113   0.000234  -0.000015   0.002340
     5  C    0.000031  -0.000471  -0.000001  -0.000104   0.000001   0.033610
     6  C   -0.000061   0.000186   0.000004   0.000172  -0.000002  -0.033306
     7  C    0.000056  -0.000089   0.000211  -0.000016   0.000008  -0.000025
     8  C   -0.000037  -0.000004   0.000170  -0.000087  -0.000044  -0.001910
     9  H   -0.000000   0.000008   0.000000   0.000024  -0.000000   0.000369
    10  C   -0.000005   0.000163   0.000000   0.000020  -0.000000  -0.018105
    11  C   -0.000000  -0.000034   0.000000   0.000000  -0.000000  -0.001779
    12  C   -0.000001   0.000021   0.000000   0.000001  -0.000000  -0.001311
    13  C    0.000000   0.000008  -0.000000  -0.000001   0.000000   0.001828
    14  H    0.000000  -0.000003  -0.000000  -0.000000   0.000000   0.001185
    15  H    0.000000  -0.000002  -0.000000  -0.000000   0.000000   0.000085
    16  H    0.000000  -0.000001  -0.000000  -0.000000   0.000000   0.000017
    17  H   -0.000000   0.000001   0.000000  -0.000000  -0.000000  -0.000032
    18  C    0.000045  -0.000003  -0.000331   0.000015   0.000103  -0.000111
    19  H    0.000051  -0.000013  -0.000024  -0.000000  -0.000000   0.000004
    20  H   -0.000013   0.000123   0.000002   0.000000   0.000000  -0.000004
    21  H   -0.000024   0.000002   0.000032   0.000003  -0.000011   0.000000
    22  H   -0.000000   0.000000   0.000003  -0.000165   0.000008  -0.000057
    23  H   -0.000000   0.000000  -0.000011   0.000008  -0.000021  -0.000001
    24  S    0.000004  -0.000004   0.000000  -0.000057  -0.000001   0.033354
 Mulliken charges and spin densities:
               1          2
     1  C   -0.058841  -0.002260
     2  C    0.025921   0.003201
     3  S   -0.015540  -0.002107
     4  C   -0.301283   0.000581
     5  C   -0.302811  -0.061853
     6  C    0.103521   0.966612
     7  C   -0.072651   0.001755
     8  C   -0.043471  -0.000013
     9  H    0.167589   0.000318
    10  C    0.078581   0.060877
    11  C   -0.114251  -0.033562
    12  C   -0.055422   0.064499
    13  C   -0.158211  -0.052399
    14  H    0.172728   0.005251
    15  H    0.179254   0.024750
    16  H    0.167742   0.004263
    17  H    0.165393   0.003777
    18  C   -0.116187  -0.000309
    19  H    0.166938   0.000063
    20  H    0.137706   0.000562
    21  H    0.159143  -0.000046
    22  H    0.177028   0.000019
    23  H    0.157452   0.000001
    24  S    0.379670   0.016020
 Sum of Mulliken charges =   1.00000   1.00000
 Mulliken charges and spin densities with hydrogens summed into heavy atoms:
               1          2
     1  C    0.108097  -0.002197
     2  C    0.025921   0.003201
     3  S    0.122166  -0.001546
     4  C   -0.301283   0.000581
     5  C   -0.302811  -0.061853
     6  C    0.103521   0.966612
     7  C    0.086492   0.001709
     8  C    0.133558   0.000006
    10  C    0.251309   0.066128
    11  C    0.065003  -0.008812
    12  C    0.112320   0.068762
    13  C    0.007182  -0.048622
    18  C    0.041265  -0.000308
    24  S    0.547259   0.016338
 Electronic spatial extent (au):  <R**2>=           3271.4976
 Charge=              1.0000 electrons
 Dipole moment (field-independent basis, Debye):
    X=             -0.1675    Y=             -1.5537    Z=             -1.8103  Tot=              2.3915
 Quadrupole moment (field-independent basis, Debye-Ang):
   XX=            -49.3454   YY=            -76.3729   ZZ=            -85.9587
   XY=             -1.7566   XZ=              2.4880   YZ=              3.2032
 Traceless Quadrupole moment (field-independent basis, Debye-Ang):
   XX=             21.2136   YY=             -5.8139   ZZ=            -15.3997
   XY=             -1.7566   XZ=              2.4880   YZ=              3.2032
 Octapole moment (field-independent basis, Debye-Ang**2):
  XXX=              6.1180  YYY=              0.8028  ZZZ=             -9.6484  XYY=             19.7931
  XXY=             23.6147  XXZ=              6.7906  XZZ=            -21.1532  YZZ=             -1.0323
  YYZ=            -16.8097  XYZ=            -15.5045
 Hexadecapole moment (field-independent basis, Debye-Ang**3):
 XXXX=          -2411.3324 YYYY=           -800.0693 ZZZZ=           -350.9712 XXXY=            -80.8045
 XXXZ=             98.0513 YYYX=              3.8114 YYYZ=            -12.5313 ZZZX=             -4.5985
 ZZZY=             24.3538 XXYY=           -606.0114 XXZZ=           -571.1998 YYZZ=           -182.1888
 XXYZ=             26.5628 YYXZ=             -0.2803 ZZXY=             -8.2472
 N-N= 1.040642068320D+03 E-N=-5.029251399141D+03  KE= 1.254518461534D+03
                          Isotropic Fermi Contact Couplings
        Atom                 a.u.       MegaHertz       Gauss      10(-4) cm-1
     1  C(13)             -0.00027      -0.30531      -0.10894      -0.10184
     2  C(13)              0.00024       0.26837       0.09576       0.08952
     3  S(33)              0.00493       1.69454       0.60465       0.56524
     4  C(13)             -0.00059      -0.66876      -0.23863      -0.22308
     5  C(13)              0.00970      10.90969       3.89285       3.63908
     6  C(13)              0.51485     578.79439     206.52823     193.06503
     7  C(13)              0.00007       0.08007       0.02857       0.02671
     8  C(13)              0.00047       0.53017       0.18918       0.17685
     9  H(1)               0.00021       0.95389       0.34037       0.31818
    10  C(13)              0.01996      22.43954       8.00698       7.48502
    11  C(13)              0.01194      13.42740       4.79123       4.47890
    12  C(13)              0.02857      32.11263      11.45858      10.71162
    13  C(13)             -0.00480      -5.39557      -1.92527      -1.79977
    14  H(1)               0.00294      13.14938       4.69203       4.38616
    15  H(1)               0.01040      46.49722      16.59136      15.50980
    16  H(1)               0.00210       9.38006       3.34704       3.12885
    17  H(1)               0.00193       8.61967       3.07571       2.87521
    18  C(13)             -0.00004      -0.04545      -0.01622      -0.01516
    19  H(1)               0.00001       0.03388       0.01209       0.01130
    20  H(1)               0.00021       0.91841       0.32771       0.30635
    21  H(1)              -0.00002      -0.06853      -0.02445      -0.02286
    22  H(1)               0.00002       0.07769       0.02772       0.02592
    23  H(1)              -0.00001      -0.06469      -0.02308      -0.02158
    24  S(33)              0.03832      13.16338       4.69702       4.39083
 --------------------------------------------------------
       Center         ----  Spin Dipole Couplings  ----
                      3XX-RR        3YY-RR        3ZZ-RR
 --------------------------------------------------------
     1   Atom        0.002252     -0.000490     -0.001762
     2   Atom        0.002696     -0.004610      0.001913
     3   Atom       -0.007543      0.003850      0.003693
     4   Atom        0.002985     -0.004864      0.001879
     5   Atom       -0.047796     -0.068754      0.116549
     6   Atom        0.310329     -0.412914      0.102585
     7   Atom        0.000851     -0.001755      0.000903
     8   Atom        0.003246     -0.002070     -0.001176
     9   Atom       -0.001671     -0.001818      0.003488
    10   Atom        0.007626     -0.021478      0.013853
    11   Atom        0.070438     -0.050932     -0.019507
    12   Atom        0.021511     -0.023761      0.002250
    13   Atom        0.011235     -0.023935      0.012701
    14   Atom       -0.003836     -0.002603      0.006439
    15   Atom        0.003887      0.001127     -0.005014
    16   Atom        0.005632     -0.001378     -0.004254
    17   Atom        0.000296     -0.001169      0.000873
    18   Atom        0.002066     -0.001129     -0.000937
    19   Atom        0.000887     -0.000105     -0.000782
    20   Atom       -0.000919      0.000461      0.000458
    21   Atom        0.001070     -0.000518     -0.000553
    22   Atom        0.001783     -0.000449     -0.001334
    23   Atom        0.001247     -0.000617     -0.000629
    24   Atom        0.036901      0.006322     -0.043223
 --------------------------------------------------------
                        XY            XZ            YZ
 --------------------------------------------------------
     1   Atom        0.001609     -0.001173     -0.000815
     2   Atom        0.002470     -0.006799     -0.001447
     3   Atom        0.002138     -0.008483     -0.004407
     4   Atom       -0.003979     -0.006557      0.001468
     5   Atom       -0.025729      0.022931      0.097493
     6   Atom       -0.013435      0.656710     -0.107167
     7   Atom        0.000584     -0.000914      0.000123
     8   Atom       -0.001202     -0.002907      0.000484
     9   Atom       -0.001718     -0.002152      0.002979
    10   Atom        0.012670      0.040375     -0.007737
    11   Atom       -0.079688      0.051072      0.013914
    12   Atom        0.001096      0.045082     -0.021138
    13   Atom       -0.025704      0.019148      0.023945
    14   Atom       -0.000019      0.001035      0.005044
    15   Atom       -0.015053     -0.009572      0.010213
    16   Atom       -0.006514     -0.000310      0.000659
    17   Atom       -0.001268      0.000904      0.001162
    18   Atom       -0.000181     -0.001141     -0.000145
    19   Atom        0.001516     -0.000888     -0.000657
    20   Atom        0.001188     -0.001272     -0.002040
    21   Atom        0.000561     -0.000348     -0.000080
    22   Atom       -0.002009     -0.000989      0.000663
    23   Atom       -0.000298     -0.000291      0.000022
    24   Atom       -0.069474     -0.027828      0.024383
 --------------------------------------------------------


 ---------------------------------------------------------------------------------
              Anisotropic Spin Dipole Couplings in Principal Axis System
 ---------------------------------------------------------------------------------

       Atom             a.u.   MegaHertz   Gauss  10(-4) cm-1        Axes

              Baa    -0.0022    -0.296    -0.106    -0.099  0.1302  0.3230  0.9374
     1 C(13)  Bbb    -0.0012    -0.158    -0.056    -0.053 -0.4764  0.8495 -0.2265
              Bcc     0.0034     0.454     0.162     0.151  0.8695  0.4171 -0.2645
 
              Baa    -0.0055    -0.743    -0.265    -0.248 -0.4738  0.8385 -0.2694
     2 C(13)  Bbb    -0.0041    -0.553    -0.197    -0.184  0.5077  0.5100  0.6944
              Bcc     0.0097     1.296     0.463     0.432  0.7196  0.1922 -0.6673
 
              Baa    -0.0121    -0.496    -0.177    -0.166  0.8793  0.0137  0.4760
     3 S(33)  Bbb     0.0007     0.028     0.010     0.009 -0.2687  0.8395  0.4723
              Bcc     0.0114     0.468     0.167     0.156 -0.3932 -0.5433  0.7418
 
              Baa    -0.0068    -0.914    -0.326    -0.305  0.4955  0.8369  0.2325
     4 C(13)  Bbb    -0.0032    -0.435    -0.155    -0.145  0.4693 -0.4832  0.7391
              Bcc     0.0101     1.349     0.482     0.450  0.7309 -0.2571 -0.6322
 
              Baa    -0.1246   -16.719    -5.966    -5.577  0.3934  0.8387 -0.3765
     5 C(13)  Bbb    -0.0344    -4.615    -1.647    -1.539  0.9178 -0.3823  0.1075
              Bcc     0.1590    21.334     7.612     7.116  0.0538  0.3878  0.9202
 
              Baa    -0.5135   -68.912   -24.590   -22.987 -0.4909  0.6035  0.6283
     6 C(13)  Bbb    -0.3627   -48.677   -17.369   -16.237  0.4318  0.7949 -0.4262
              Bcc     0.8763   117.590    41.959    39.224  0.7567 -0.0620  0.6508
 
              Baa    -0.0019    -0.257    -0.092    -0.086 -0.2428  0.9625 -0.1207
     7 C(13)  Bbb     0.0001     0.013     0.005     0.004  0.6592  0.2549  0.7075
              Bcc     0.0018     0.244     0.087     0.082  0.7117  0.0922 -0.6964
 
              Baa    -0.0026    -0.355    -0.127    -0.118  0.4699  0.2758  0.8385
     8 C(13)  Bbb    -0.0023    -0.306    -0.109    -0.102  0.0325  0.9439 -0.3286
              Bcc     0.0049     0.661     0.236     0.220  0.8821 -0.1817 -0.4346
 
              Baa    -0.0036    -1.916    -0.684    -0.639  0.5302  0.8270 -0.1868
     9 H(1)   Bbb    -0.0022    -1.170    -0.417    -0.390  0.7773 -0.3861  0.4968
              Bcc     0.0058     3.086     1.101     1.029 -0.3388  0.4086  0.8475
 
              Baa    -0.0408    -5.472    -1.953    -1.825 -0.5978  0.6038  0.5273
    10 C(13)  Bbb    -0.0106    -1.419    -0.506    -0.473  0.4176  0.7961 -0.4380
              Bcc     0.0514     6.892     2.459     2.299  0.6843  0.0417  0.7280
 
              Baa    -0.1060   -14.224    -5.075    -4.744  0.4711  0.7840 -0.4043
    11 C(13)  Bbb    -0.0155    -2.082    -0.743    -0.694 -0.0649  0.4879  0.8705
              Bcc     0.1215    16.305     5.818     5.439  0.8797 -0.3839  0.2807
 
              Baa    -0.0474    -6.364    -2.271    -2.123 -0.4408  0.6092  0.6592
    12 C(13)  Bbb    -0.0125    -1.674    -0.597    -0.558  0.4923  0.7782 -0.3900
              Bcc     0.0599     8.038     2.868     2.681  0.7506 -0.1526  0.6429
 
              Baa    -0.0517    -6.934    -2.474    -2.313  0.4503  0.7848 -0.4258
    13 C(13)  Bbb     0.0205     2.755     0.983     0.919 -0.5421  0.6192  0.5681
              Bcc     0.0311     4.179     1.491     1.394  0.7095 -0.0250  0.7042
 
              Baa    -0.0050    -2.682    -0.957    -0.895  0.3632  0.8403 -0.4024
    14 H(1)   Bbb    -0.0037    -1.993    -0.711    -0.665  0.9288 -0.3609  0.0845
              Bcc     0.0088     4.675     1.668     1.559  0.0743  0.4044  0.9115
 
              Baa    -0.0132    -7.061    -2.519    -2.355  0.4090  0.7733 -0.4845
    15 H(1)   Bbb    -0.0110    -5.893    -2.103    -1.966  0.6322  0.1428  0.7615
              Bcc     0.0243    12.954     4.622     4.321  0.6581 -0.6178 -0.4304
 
              Baa    -0.0054    -2.889    -1.031    -0.964  0.4713  0.8152 -0.3366
    16 H(1)   Bbb    -0.0041    -2.206    -0.787    -0.736  0.2085  0.2678  0.9406
              Bcc     0.0096     5.096     1.818     1.700  0.8570 -0.5135 -0.0438
 
              Baa    -0.0025    -1.349    -0.481    -0.450  0.4786  0.7841 -0.3951
    17 H(1)   Bbb     0.0010     0.515     0.184     0.172  0.7432 -0.6014 -0.2932
              Bcc     0.0016     0.834     0.298     0.278  0.4675  0.1533  0.8706
 
              Baa    -0.0014    -0.194    -0.069    -0.065  0.2864  0.5325  0.7965
    18 C(13)  Bbb    -0.0010    -0.136    -0.048    -0.045 -0.1411  0.8457 -0.5146
              Bcc     0.0025     0.329     0.118     0.110  0.9477 -0.0350 -0.3173
 
              Baa    -0.0012    -0.644    -0.230    -0.215 -0.4985  0.8317  0.2445
    19 H(1)   Bbb    -0.0012    -0.622    -0.222    -0.208  0.4105 -0.0219  0.9116
              Bcc     0.0024     1.266     0.452     0.422  0.7635  0.5548 -0.3305
 
              Baa    -0.0017    -0.896    -0.320    -0.299  0.8065  0.1066  0.5815
    20 H(1)   Bbb    -0.0016    -0.827    -0.295    -0.276 -0.4472  0.7534  0.4821
              Bcc     0.0032     1.723     0.615     0.575 -0.3867 -0.6489  0.6553
 
              Baa    -0.0007    -0.377    -0.134    -0.126 -0.3415  0.8856 -0.3147
    21 H(1)   Bbb    -0.0006    -0.326    -0.116    -0.109  0.0728  0.3587  0.9306
              Bcc     0.0013     0.702     0.251     0.234  0.9370  0.2949 -0.1870
 
              Baa    -0.0017    -0.909    -0.324    -0.303 -0.1894 -0.6782  0.7100
    22 H(1)   Bbb    -0.0016    -0.837    -0.299    -0.279  0.5204  0.5439  0.6584
              Bcc     0.0033     1.746     0.623     0.582  0.8327 -0.4942 -0.2499
 
              Baa    -0.0007    -0.369    -0.132    -0.123  0.2085  0.6078  0.7662
    23 H(1)   Bbb    -0.0006    -0.344    -0.123    -0.115  0.0264  0.7797 -0.6256
              Bcc     0.0013     0.713     0.254     0.238  0.9777 -0.1507 -0.1465
 
              Baa    -0.0532    -2.183    -0.779    -0.728 -0.0601 -0.4374  0.8973
    24 S(33)  Bbb    -0.0489    -2.005    -0.715    -0.669  0.6544  0.6615  0.3663
              Bcc     0.1021     4.188     1.494     1.397  0.7538 -0.6092 -0.2465
 

 ---------------------------------------------------------------------------------

 No NMR shielding tensors so no spin-rotation constants.
 Leave Link  601 at Mon Jan 25 23:28:25 2021, MaxMem=  4026531840 cpu:               2.9 elap:               0.4
 (Enter /opt/ohpc/pub/libs/gaussian/g16-A.03/sandybridge/g16/l9999.exe)

 Test job not archived.
 1\1\GINC-CNODE146\SP\ULC-wHPBE\TZVP\C12H10S2(1+,2)\RDU230\25-Jan-2021\
 0\\#P LC-wHPBE/TZVP iop(3/107=0209700000, 3/108=0209700000) scf=(conve
 r=6,fermi,ndamp=35,noincfock,novaracc,vshift=500,xqc)\\H10 C12 S2\\1,2
 \C,0,-2.574063,-1.434391,-0.049117\C,0,-1.368901,-0.745264,-0.216328\S
 ,0,0.093606,-1.678504,-0.585022\C,0,-1.397687,0.626896,-0.046009\C,0,1
 .500395,0.811934,0.077279\C,0,1.478004,0.220423,1.307027\C,0,-3.746915
 ,-0.783096,0.229547\C,0,-2.584351,1.293751,0.256604\H,0,-0.039943,1.86
 0892,-1.547006\C,0,2.473105,0.786527,-0.925649\C,0,2.645316,-0.559969,
 1.492438\C,0,3.655495,-0.649979,0.563531\C,0,3.583956,0.035098,-0.6567
 53\H,0,2.357645,1.302286,-1.874829\H,0,2.763398,-1.119309,2.419207\H,0
 ,4.527775,-1.262476,0.773175\H,0,4.391412,-0.038194,-1.378729\C,0,-3.7
 59914,0.597536,0.384558\H,0,-2.557315,-2.514169,-0.13851\H,0,-0.525974
 ,-2.528359,-1.4318\H,0,-4.665467,-1.345208,0.349638\H,0,-2.558102,2.36
 8477,0.406674\H,0,-4.681894,1.115025,0.619767\S,0,0.004008,1.738768,-0
 .20875\\Version=EM64L-G16RevA.03\State=2-A\HF=-1258.7373638\S2=0.76065
 5\S2-1=0.\S2A=0.75005\RMSD=7.082e-07\Dipole=0.0659037,0.6112683,-0.712
 2148\Quadrupole=15.7717768,-4.3224778,-11.449299,-1.3059979,-1.8497305
 ,-2.3814892\PG=C01 [X(C12H10S2)]\\@


 SILVERMAN'S PARADOX - IF MURPHY'S LAW CAN GO WRONG, IT WILL.
 Job cpu time:       0 days  1 hours 28 minutes 58.4 seconds.
 Elapsed time:       0 days  0 hours 11 minutes  8.7 seconds.
 File lengths (MBytes):  RWF=    112 Int=      0 D2E=      0 Chk=     12 Scr=      8
 Normal termination of Gaussian 16 at Mon Jan 25 23:28:25 2021.
