 Entering Gaussian System, Link 0=g16
 Input=mol_ta_NN_frag_tune_n8.gjf
 Output=mol_ta_NN_frag_tune_n8.log
 Initial command:
 /opt/ohpc/pub/libs/gaussian/g16-A.03/sandybridge/g16/l1.exe "/mnt/gpfs2_4m/scratch/rdu230/ondemand/projects/init_structures/gaussian/wtuning/mol_ta_NN_frag/tuning_mol_ta_NN_frag_ocycle0/Gau-27711.inp" -scrdir="/mnt/gpfs2_4m/scratch/rdu230/ondemand/projects/init_structures/gaussian/wtuning/mol_ta_NN_frag/tuning_mol_ta_NN_frag_ocycle0/"
 Entering Link 1 = /opt/ohpc/pub/libs/gaussian/g16-A.03/sandybridge/g16/l1.exe PID=     27712.
  
 Copyright (c) 1988,1990,1992,1993,1995,1998,2003,2009,2016,
            Gaussian, Inc.  All Rights Reserved.
  
 This is part of the Gaussian(R) 16 program.  It is based on
 the Gaussian(R) 09 system (copyright 2009, Gaussian, Inc.),
 the Gaussian(R) 03 system (copyright 2003, Gaussian, Inc.),
 the Gaussian(R) 98 system (copyright 1998, Gaussian, Inc.),
 the Gaussian(R) 94 system (copyright 1995, Gaussian, Inc.),
 the Gaussian 92(TM) system (copyright 1992, Gaussian, Inc.),
 the Gaussian 90(TM) system (copyright 1990, Gaussian, Inc.),
 the Gaussian 88(TM) system (copyright 1988, Gaussian, Inc.),
 the Gaussian 86(TM) system (copyright 1986, Carnegie Mellon
 University), and the Gaussian 82(TM) system (copyright 1983,
 Carnegie Mellon University). Gaussian is a federally registered
 trademark of Gaussian, Inc.
  
 This software contains proprietary and confidential information,
 including trade secrets, belonging to Gaussian, Inc.
  
 This software is provided under written license and may be
 used, copied, transmitted, or stored only in accord with that
 written license.
  
 The following legend is applicable only to US Government
 contracts under FAR:
  
                    RESTRICTED RIGHTS LEGEND
  
 Use, reproduction and disclosure by the US Government is
 subject to restrictions as set forth in subparagraphs (a)
 and (c) of the Commercial Computer Software - Restricted
 Rights clause in FAR 52.227-19.
  
 Gaussian, Inc.
 340 Quinnipiac St., Bldg. 40, Wallingford CT 06492
  
  
 ---------------------------------------------------------------
 Warning -- This program may not be used in any manner that
 competes with the business of Gaussian, Inc. or will provide
 assistance to any competitor of Gaussian, Inc.  The licensee
 of this program is prohibited from giving any competitor of
 Gaussian, Inc. access to this program.  By using this program,
 the user acknowledges that Gaussian, Inc. is engaged in the
 business of creating and licensing software in the field of
 computational chemistry and represents and warrants to the
 licensee that it is not a competitor of Gaussian, Inc. and that
 it will not use this program in any manner prohibited above.
 ---------------------------------------------------------------
  

 Cite this work as:
 Gaussian 16, Revision A.03,
 M. J. Frisch, G. W. Trucks, H. B. Schlegel, G. E. Scuseria, 
 M. A. Robb, J. R. Cheeseman, G. Scalmani, V. Barone, 
 G. A. Petersson, H. Nakatsuji, X. Li, M. Caricato, A. V. Marenich, 
 J. Bloino, B. G. Janesko, R. Gomperts, B. Mennucci, H. P. Hratchian, 
 J. V. Ortiz, A. F. Izmaylov, J. L. Sonnenberg, D. Williams-Young, 
 F. Ding, F. Lipparini, F. Egidi, J. Goings, B. Peng, A. Petrone, 
 T. Henderson, D. Ranasinghe, V. G. Zakrzewski, J. Gao, N. Rega, 
 G. Zheng, W. Liang, M. Hada, M. Ehara, K. Toyota, R. Fukuda, 
 J. Hasegawa, M. Ishida, T. Nakajima, Y. Honda, O. Kitao, H. Nakai, 
 T. Vreven, K. Throssell, J. A. Montgomery, Jr., J. E. Peralta, 
 F. Ogliaro, M. J. Bearpark, J. J. Heyd, E. N. Brothers, K. N. Kudin, 
 V. N. Staroverov, T. A. Keith, R. Kobayashi, J. Normand, 
 K. Raghavachari, A. P. Rendell, J. C. Burant, S. S. Iyengar, 
 J. Tomasi, M. Cossi, J. M. Millam, M. Klene, C. Adamo, R. Cammi, 
 J. W. Ochterski, R. L. Martin, K. Morokuma, O. Farkas, 
 J. B. Foresman, and D. J. Fox, Gaussian, Inc., Wallingford CT, 2016.
 
 ******************************************
 Gaussian 16:  EM64L-G16RevA.03 25-Dec-2016
                26-Jan-2021 
 ******************************************
 %mem=30GB
 %nproc=8
 Will use up to    8 processors via shared memory.
 ----------------------------------------------------------------------
 #P LC-wHPBE/TZVP iop(3/107=0219700000, 3/108=0219700000) scf=(conver=6
 ,fermi,ndamp=35,noincfock,novaracc,vshift=500,xqc)
 ----------------------------------------------------------------------
 1/38=1,172=1/1;
 2/12=2,17=6,18=5,40=1/2;
 3/5=19,7=101,11=2,25=1,30=1,74=-71,107=219700000,108=219700000/1,2,3;
 4//1;
 5/5=100002,6=6,8=3,10=500,13=1,18=-1,22=13,38=1,93=35/2,8;
 6/7=2,8=2,9=2,10=2,28=1/1;
 99/5=1,9=1/99;
 Leave Link    1 at Tue Jan 26 00:12:05 2021, MaxMem=  4026531840 cpu:               1.9 elap:               0.3
 (Enter /opt/ohpc/pub/libs/gaussian/g16-A.03/sandybridge/g16/l101.exe)
 ----------
 H10 C12 S2
 ----------
 Symbolic Z-matrix:
 Charge =  0 Multiplicity = 1
 C                    -2.57406  -1.43439  -0.04912 
 C                    -1.3689   -0.74526  -0.21633 
 S                     0.09361  -1.6785   -0.58502 
 C                    -1.39769   0.6269   -0.04601 
 C                     1.5004    0.81193   0.07728 
 C                     1.478     0.22042   1.30703 
 C                    -3.74692  -0.7831    0.22955 
 C                    -2.58435   1.29375   0.2566 
 H                    -0.03994   1.86089  -1.54701 
 C                     2.47311   0.78653  -0.92565 
 C                     2.64532  -0.55997   1.49244 
 C                     3.6555   -0.64998   0.56353 
 C                     3.58396   0.0351   -0.65675 
 H                     2.35765   1.30229  -1.87483 
 H                     2.7634   -1.11931   2.41921 
 H                     4.52778  -1.26248   0.77318 
 H                     4.39141  -0.03819  -1.37873 
 C                    -3.75991   0.59754   0.38456 
 H                    -2.55732  -2.51417  -0.13851 
 H                    -0.52597  -2.52836  -1.4318 
 H                    -4.66547  -1.34521   0.34964 
 H                    -2.5581    2.36848   0.40667 
 H                    -4.68189   1.11503   0.61977 
 S                     0.00401   1.73877  -0.20875 
 
 ITRead=  0  0  0  0  0  0  0  0  0  0  0  0  0  0  0  0  0  0  0  0
 ITRead=  0  0  0  0
 MicOpt= -1 -1 -1 -1 -1 -1 -1 -1 -1 -1 -1 -1 -1 -1 -1 -1 -1 -1 -1 -1
 MicOpt= -1 -1 -1 -1
 NAtoms=     24 NQM=       24 NQMF=       0 NMMI=      0 NMMIF=      0
                NMic=       0 NMicF=      0.
                    Isotopes and Nuclear Properties:
 (Nuclear quadrupole moments (NQMom) in fm**2, nuclear magnetic moments (NMagM)
  in nuclear magnetons)

  Atom         1           2           3           4           5           6           7           8           9          10
 IAtWgt=          12          12          32          12          12          12          12          12           1          12
 AtmWgt=  12.0000000  12.0000000  31.9720718  12.0000000  12.0000000  12.0000000  12.0000000  12.0000000   1.0078250  12.0000000
 NucSpn=           0           0           0           0           0           0           0           0           1           0
 AtZEff=  -0.0000000  -0.0000000  -0.0000000  -0.0000000  -0.0000000  -0.0000000  -0.0000000  -0.0000000  -0.0000000  -0.0000000
 NQMom=    0.0000000   0.0000000   0.0000000   0.0000000   0.0000000   0.0000000   0.0000000   0.0000000   0.0000000   0.0000000
 NMagM=    0.0000000   0.0000000   0.0000000   0.0000000   0.0000000   0.0000000   0.0000000   0.0000000   2.7928460   0.0000000
 AtZNuc=   6.0000000   6.0000000  16.0000000   6.0000000   6.0000000   6.0000000   6.0000000   6.0000000   1.0000000   6.0000000

  Atom        11          12          13          14          15          16          17          18          19          20
 IAtWgt=          12          12          12           1           1           1           1          12           1           1
 AtmWgt=  12.0000000  12.0000000  12.0000000   1.0078250   1.0078250   1.0078250   1.0078250  12.0000000   1.0078250   1.0078250
 NucSpn=           0           0           0           1           1           1           1           0           1           1
 AtZEff=  -0.0000000  -0.0000000  -0.0000000  -0.0000000  -0.0000000  -0.0000000  -0.0000000  -0.0000000  -0.0000000  -0.0000000
 NQMom=    0.0000000   0.0000000   0.0000000   0.0000000   0.0000000   0.0000000   0.0000000   0.0000000   0.0000000   0.0000000
 NMagM=    0.0000000   0.0000000   0.0000000   2.7928460   2.7928460   2.7928460   2.7928460   0.0000000   2.7928460   2.7928460
 AtZNuc=   6.0000000   6.0000000   6.0000000   1.0000000   1.0000000   1.0000000   1.0000000   6.0000000   1.0000000   1.0000000

  Atom        21          22          23          24
 IAtWgt=           1           1           1          32
 AtmWgt=   1.0078250   1.0078250   1.0078250  31.9720718
 NucSpn=           1           1           1           0
 AtZEff=  -0.0000000  -0.0000000  -0.0000000  -0.0000000
 NQMom=    0.0000000   0.0000000   0.0000000   0.0000000
 NMagM=    2.7928460   2.7928460   2.7928460   0.0000000
 AtZNuc=   1.0000000   1.0000000   1.0000000  16.0000000
 Leave Link  101 at Tue Jan 26 00:12:05 2021, MaxMem=  4026531840 cpu:               0.8 elap:               0.1
 (Enter /opt/ohpc/pub/libs/gaussian/g16-A.03/sandybridge/g16/l202.exe)
                          Input orientation:                          
 ---------------------------------------------------------------------
 Center     Atomic      Atomic             Coordinates (Angstroms)
 Number     Number       Type             X           Y           Z
 ---------------------------------------------------------------------
      1          6           0       -2.574063   -1.434391   -0.049117
      2          6           0       -1.368901   -0.745264   -0.216328
      3         16           0        0.093606   -1.678504   -0.585022
      4          6           0       -1.397687    0.626896   -0.046009
      5          6           0        1.500395    0.811934    0.077279
      6          6           0        1.478004    0.220423    1.307027
      7          6           0       -3.746915   -0.783096    0.229547
      8          6           0       -2.584351    1.293751    0.256604
      9          1           0       -0.039943    1.860892   -1.547006
     10          6           0        2.473105    0.786527   -0.925649
     11          6           0        2.645316   -0.559969    1.492438
     12          6           0        3.655495   -0.649979    0.563531
     13          6           0        3.583956    0.035098   -0.656753
     14          1           0        2.357645    1.302286   -1.874829
     15          1           0        2.763398   -1.119309    2.419207
     16          1           0        4.527775   -1.262476    0.773175
     17          1           0        4.391412   -0.038194   -1.378729
     18          6           0       -3.759914    0.597536    0.384558
     19          1           0       -2.557315   -2.514169   -0.138510
     20          1           0       -0.525974   -2.528359   -1.431800
     21          1           0       -4.665467   -1.345208    0.349638
     22          1           0       -2.558102    2.368477    0.406674
     23          1           0       -4.681894    1.115025    0.619767
     24         16           0        0.004008    1.738768   -0.208750
 ---------------------------------------------------------------------
                    Distance matrix (angstroms):
                    1          2          3          4          5
     1  C    0.000000
     2  C    1.398310   0.000000
     3  S    2.731894   1.773640   0.000000
     4  C    2.373347   1.382990   2.798099   0.000000
     5  C    4.654370   3.277793   2.935980   2.906599   0.000000
     6  C    4.582225   3.370168   3.017007   3.203986   1.364796
     7  C    1.370190   2.419749   4.026770   2.753703   5.486490
     8  C    2.745238   2.420447   4.088287   1.394432   4.116972
     9  H    4.418634   3.213858   3.670228   2.370487   2.472095
    10  C    5.583430   4.196490   3.443025   3.972692   1.397381
    11  C    5.512071   4.366710   3.475368   4.485682   2.279394
    12  C    6.308568   5.085451   3.881249   5.247532   2.649167
    13  C    6.360017   5.033263   3.888974   5.053712   2.341688
    14  H    5.928269   4.564015   3.959114   4.231224   2.187704
    15  H    5.889006   4.915470   4.057817   5.142096   3.287781
    16  H    7.151351   6.001451   4.656139   6.273108   3.735302
    17  H    7.227384   5.918812   4.668161   5.977638   3.346738
    18  C    2.392288   2.807333   4.579308   2.401326   5.273636
    19  H    1.083601   2.132465   2.815154   3.349565   5.251146
    20  H    2.702452   2.316749   1.350247   3.554706   4.188203
    21  H    2.130946   3.398176   4.861425   3.837202   6.537989
    22  H    3.830118   3.390828   4.938934   2.141165   4.359212
    23  H    3.374890   3.890457   5.662219   3.386376   6.213441
    24  S    4.091561   2.838195   3.439092   1.796522   1.783258
                    6          7          8          9         10
     6  C    0.000000
     7  C    5.428424   0.000000
     8  C    4.331068   2.380248   0.000000
     9  H    3.625025   4.887582   3.169964   0.000000
    10  C    2.509092   6.518193   5.218511   2.802812   0.000000
    11  C    1.416335   6.519609   5.684451   4.723283   2.773058
    12  C    2.460051   7.411136   6.542780   4.941164   2.383118
    13  C    2.885448   7.429444   6.361324   4.154361   1.367823
    14  H    3.473961   6.785490   5.382045   2.483533   1.086407
    15  H    2.164270   6.876905   6.252850   5.698348   3.860640
    16  H    3.432942   8.306373   7.575188   6.000226   3.362452
    17  H    3.970908   8.329093   7.287638   4.824080   2.136667
    18  C    5.331880   1.389368   1.372238   4.377807   6.372039
    19  H    5.084424   2.132423   3.828459   5.240437   6.067892
    20  H    4.367254   4.022496   4.657912   4.417581   4.498792
    21  H    6.411710   1.083573   3.362113   5.939007   7.558430
    22  H    4.659927   3.372990   1.085470   3.227326   5.439733
    23  H    6.262346   2.151586   2.136239   5.176768   7.327362
    24  S    2.603001   4.541071   2.667245   1.344535   2.741742
                   11         12         13         14         15
    11  C    0.000000
    12  C    1.375293   0.000000
    13  C    2.419540   1.401264   0.000000
    14  H    3.858657   3.382507   2.143202   0.000000
    15  H    1.088901   2.111786   3.386370   4.946464   0.000000
    16  H    2.134129   1.086267   2.149229   4.277779   2.417218
    17  H    3.400691   2.165232   1.085636   2.485802   4.271248
    18  C    6.602589   7.521743   7.438622   6.559423   7.045634
    19  H    5.791913   6.524345   6.669524   6.460415   6.066097
    20  H    4.741604   4.999434   4.905460   4.815119   5.256962
    21  H    7.441111   8.352694   8.424432   7.828255   7.715062
    22  H    6.068792   6.909737   6.655855   5.523277   6.673328
    23  H    7.566714   8.522350   8.433269   7.470822   7.978885
    24  S    3.892909   4.431240   3.989890   2.916495   4.763297
                   16         17         18         19         20
    16  H    0.000000
    17  H    2.479547   0.000000
    18  C    8.502732   8.364057   0.000000
    19  H    7.252338   7.480201   3.376767   0.000000
    20  H    5.657274   5.512207   4.850644   2.408142   0.000000
    21  H    9.203365   9.312497   2.143712   2.459484   4.659267
    22  H    7.970433   7.568056   2.140344   4.912989   5.611464
    23  H    9.512836   9.362093   1.083128   4.273157   5.895324
    24  S    5.516893   4.876039   3.977629   4.965157   4.470470
                   21         22         23         24
    21  H    0.000000
    22  H    4.270327   0.000000
    23  H    2.475073   2.475286   0.000000
    24  S    5.623762   2.709186   4.799289   0.000000
 Stoichiometry    C12H10S2
 Framework group  C1[X(C12H10S2)]
 Deg. of freedom    66
 Full point group                 C1      NOp   1
 Largest Abelian subgroup         C1      NOp   1
 Largest concise Abelian subgroup C1      NOp   1
                         Standard orientation:                         
 ---------------------------------------------------------------------
 Center     Atomic      Atomic             Coordinates (Angstroms)
 Number     Number       Type             X           Y           Z
 ---------------------------------------------------------------------
      1          6           0        2.574063    1.434391   -0.049117
      2          6           0        1.368901    0.745264   -0.216328
      3         16           0       -0.093606    1.678504   -0.585022
      4          6           0        1.397687   -0.626896   -0.046009
      5          6           0       -1.500395   -0.811934    0.077279
      6          6           0       -1.478004   -0.220423    1.307027
      7          6           0        3.746915    0.783096    0.229547
      8          6           0        2.584351   -1.293751    0.256604
      9          1           0        0.039943   -1.860892   -1.547006
     10          6           0       -2.473105   -0.786527   -0.925649
     11          6           0       -2.645316    0.559969    1.492438
     12          6           0       -3.655495    0.649979    0.563531
     13          6           0       -3.583956   -0.035098   -0.656753
     14          1           0       -2.357645   -1.302286   -1.874829
     15          1           0       -2.763398    1.119309    2.419207
     16          1           0       -4.527775    1.262476    0.773175
     17          1           0       -4.391412    0.038194   -1.378729
     18          6           0        3.759914   -0.597536    0.384558
     19          1           0        2.557315    2.514169   -0.138510
     20          1           0        0.525974    2.528359   -1.431800
     21          1           0        4.665467    1.345208    0.349638
     22          1           0        2.558102   -2.368477    0.406674
     23          1           0        4.681894   -1.115025    0.619767
     24         16           0       -0.004008   -1.738768   -0.208750
 ---------------------------------------------------------------------
 Rotational constants (GHZ):           1.2365549           0.3949099           0.3394237
 Leave Link  202 at Tue Jan 26 00:12:05 2021, MaxMem=  4026531840 cpu:               0.2 elap:               0.0
 (Enter /opt/ohpc/pub/libs/gaussian/g16-A.03/sandybridge/g16/l301.exe)
 Standard basis: TZVP (5D, 7F)
 Ernie: Thresh=  0.10000D-02 Tol=  0.10000D-05 Strict=F.
 There are   346 symmetry adapted cartesian basis functions of A   symmetry.
 There are   332 symmetry adapted basis functions of A   symmetry.
   332 basis functions,   594 primitive gaussians,   346 cartesian basis functions
    57 alpha electrons       57 beta electrons
       nuclear repulsion energy      1040.6420683200 Hartrees.
 IExCor=33909 DFT=T Ex+Corr=LC-wHPBE ExCW=0 ScaHFX=  1.000000
 ScaDFX=  1.000000  1.000000  1.000000  1.000000 ScalE2=  1.000000  1.000000
 IRadAn=      5 IRanWt=     -1 IRanGd=            0 ICorTp=0 IEmpDi=  4
 HFx  wShort=  0.000000 wLong=  0.219700 cFull=  0.000000 cShort=  0.000000 cLong=  1.000000
 DFx  wShort=  0.000000 wLong=  0.219700 cFull=  0.000000 cShort=  1.000000 cLong=  0.000000
 NAtoms=   24 NActive=   24 NUniq=   24 SFac= 1.00D+00 NAtFMM=   60 NAOKFM=F Big=F
 Integral buffers will be    131072 words long.
 Raffenetti 2 integral format.
 Two-electron integral symmetry is turned on.
 Leave Link  301 at Tue Jan 26 00:12:05 2021, MaxMem=  4026531840 cpu:               0.4 elap:               0.1
 (Enter /opt/ohpc/pub/libs/gaussian/g16-A.03/sandybridge/g16/l302.exe)
 NPDir=0 NMtPBC=     1 NCelOv=     1 NCel=       1 NClECP=     1 NCelD=      1
         NCelK=      1 NCelE2=     1 NClLst=     1 CellRange=     0.0.
 One-electron integrals computed using PRISM.
 One-electron integral symmetry used in STVInt
 NBasis=   332 RedAO= T EigKep=  8.19D-06  NBF=   332
 NBsUse=   332 1.00D-06 EigRej= -1.00D+00 NBFU=   332
 Precomputing XC quadrature grid using
 IXCGrd= 4 IRadAn=           5 IRanWt=          -1 IRanGd=           0 AccXCQ= 0.00D+00.
 Generated NRdTot=       0 NPtTot=           0 NUsed=           0 NTot=          32
 NSgBfM=   338   338   338   338   338 MxSgAt=    24 MxSgA2=    24.
 Leave Link  302 at Tue Jan 26 00:12:06 2021, MaxMem=  4026531840 cpu:               3.1 elap:               0.4
 (Enter /opt/ohpc/pub/libs/gaussian/g16-A.03/sandybridge/g16/l303.exe)
 DipDrv:  MaxL=1.
 Leave Link  303 at Tue Jan 26 00:12:06 2021, MaxMem=  4026531840 cpu:               0.4 elap:               0.1
 (Enter /opt/ohpc/pub/libs/gaussian/g16-A.03/sandybridge/g16/l401.exe)
 ExpMin= 9.52D-02 ExpMax= 6.07D+04 ExpMxC= 2.07D+03 IAcc=3 IRadAn=         5 AccDes= 0.00D+00
 Harris functional with IExCor=33909 and IRadAn=       5 diagonalized for initial guess.
 HarFok:  IExCor=33909 AccDes= 0.00D+00 IRadAn=         5 IDoV= 1 UseB2=F ITyADJ=14
 ICtDFT=  3500011 ScaDFX=  1.000000  1.000000  1.000000  1.000000
 FoFCou: FMM=F IPFlag=           0 FMFlag=      100000 FMFlg1=           0
         NFxFlg=           0 DoJE=T BraDBF=F KetDBF=T FulRan=T
         wScrn=  0.000000 ICntrl=       500 IOpCl=  0 I1Cent=   200000004 NGrid=           0
         NMat0=    1 NMatS0=      1 NMatT0=    0 NMatD0=    1 NMtDS0=    0 NMtDT0=    0
 Petite list used in FoFCou.
 Harris En= -1245.67326656649    
 JPrj=0 DoOrth=F DoCkMO=F.
 Leave Link  401 at Tue Jan 26 00:12:08 2021, MaxMem=  4026531840 cpu:              19.4 elap:               2.4
 (Enter /opt/ohpc/pub/libs/gaussian/g16-A.03/sandybridge/g16/l502.exe)
 Integral symmetry usage will be decided dynamically.
 Closed shell SCF:
 Using DIIS extrapolation, IDIIS=    10.
 NGot=  4026531840 LenX=  4026286196 LenY=  4026166039
 Requested convergence on RMS density matrix=1.00D-06 within  32 cycles.
 Requested convergence on MAX density matrix=1.00D-04.
 Requested convergence on             energy=1.00D-04.
 Virtual orbitals will be shifted by   0.500 hartree.
 No special actions if energy rises.
 Dynamic level shift is on during FON iterations.

 Cycle   1  Pass 1  IDiag  1:
 FoFJK:  IHMeth= 1 ICntrl=       0 DoSepK=T KAlg= 0 I1Cent=           0 FoldK=F
 IRaf=         1 NMat=       1 IRICut=       1 DoRegI=T DoRafI=F ISym2E= 0 IDoP0=0 IntGTp=1.
 FoFCou: FMM=F IPFlag=           0 FMFlag=      100000 FMFlg1=           0
         NFxFlg=           0 DoJE=T BraDBF=F KetDBF=F FulRan=T
         wScrn=  0.000000 ICntrl=       500 IOpCl=  0 I1Cent=           0 NGrid=           0
         NMat0=    1 NMatS0=      1 NMatT0=    0 NMatD0=    1 NMtDS0=    0 NMtDT0=    0
 Symmetry not used in FoFCou.
 E= -1258.56851993482    
 DIIS: error= 2.20D-02 at cycle   1 NSaved=   1.
 NSaved= 1 IEnMin= 1 EnMin= -1258.56851993482     IErMin= 1 ErrMin= 2.20D-02
 ErrMax= 2.20D-02  0.00D+00 EMaxC= 1.00D+00 BMatC= 3.78D-01 BMatP= 3.78D-01
 IDIUse=1 WtCom= 1.00D+00 WtEn= 0.00D+00
 Coeff-Com:  0.100D+01
 Coeff:      0.100D+01
 Gap=     0.461 Goal=   None    Shift=    0.500
 T= 1311. Gap= 0.491 NK=0 IS=   58 IE=  332 IFin=   57
          NO(<0.9)=   0  NV(>0.1)=   0     57.00e < EF      0.00e >EF  Err=0.0D+00
 GapD=    0.461 DampG=2.000 DampE=0.500 DampFc=1.0000 IDamp=-1.
 RMSDP=6.35D-03 MaxDP=4.14D-01              OVMax= 1.25D-01

 Cycle   2  Pass 1  IDiag  1:
 E= -1258.93325246609     Delta-E=       -0.364732531263 Rises=F Damp=F
 DIIS: error= 6.35D-03 at cycle   2 NSaved=   2.
 NSaved= 2 IEnMin= 2 EnMin= -1258.93325246609     IErMin= 2 ErrMin= 6.35D-03
 ErrMax= 6.35D-03  0.00D+00 EMaxC= 1.00D+00 BMatC= 4.65D-02 BMatP= 3.78D-01
 IDIUse=1 WtCom= 1.00D+00 WtEn= 0.00D+00
 Coeff-Com:  0.236D+00 0.764D+00
 Coeff:      0.236D+00 0.764D+00
 Gap=     0.241 Goal=   None    Shift=    0.500
 T= 1149. Gap= 0.706 NK=0 IS=   58 IE=  332 IFin=   57
          NO(<0.9)=   0  NV(>0.1)=   0     57.00e < EF      0.00e >EF  Err=0.0D+00
 GapD=    0.241 DampG=1.000 DampE=1.000 DampFc=1.0000 IDamp=-1.
 RMSDP=1.26D-03 MaxDP=5.94D-02 DE=-3.65D-01 OVMax= 1.71D-02

 Cycle   3  Pass 1  IDiag  1:
 E= -1258.96444307613     Delta-E=       -0.031190610040 Rises=F Damp=F
 DIIS: error= 2.23D-03 at cycle   3 NSaved=   3.
 NSaved= 3 IEnMin= 3 EnMin= -1258.96444307613     IErMin= 3 ErrMin= 2.23D-03
 ErrMax= 2.23D-03  0.00D+00 EMaxC= 1.00D+00 BMatC= 5.04D-03 BMatP= 4.65D-02
 IDIUse=1 WtCom= 1.00D+00 WtEn= 0.00D+00
 Coeff-Com:  0.724D-01-0.107D+00 0.103D+01
 Coeff:      0.724D-01-0.107D+00 0.103D+01
 Gap=     0.225 Goal=   None    Shift=    0.500
 T=  849. Gap= 0.724 NK=0 IS=   58 IE=  332 IFin=   57
          NO(<0.9)=   0  NV(>0.1)=   0     57.00e < EF      0.00e >EF  Err=0.0D+00
 GapD=    0.225 DampG=1.000 DampE=1.000 DampFc=1.0000 IDamp=-1.
 RMSDP=9.94D-04 MaxDP=6.66D-02 DE=-3.12D-02 OVMax= 9.94D-03

 Cycle   4  Pass 1  IDiag  1:
 E= -1258.96968861311     Delta-E=       -0.005245536984 Rises=F Damp=F
 DIIS: error= 1.35D-03 at cycle   4 NSaved=   4.
 NSaved= 4 IEnMin= 4 EnMin= -1258.96968861311     IErMin= 4 ErrMin= 1.35D-03
 ErrMax= 1.35D-03  0.00D+00 EMaxC= 1.00D+00 BMatC= 6.06D-04 BMatP= 5.04D-03
 IDIUse=1 WtCom= 1.00D+00 WtEn= 0.00D+00
 Coeff-Com:  0.251D-02-0.256D-01-0.310D+00 0.133D+01
 Coeff:      0.251D-02-0.256D-01-0.310D+00 0.133D+01
 Gap=     0.228 Goal=   None    Shift=    0.500
 T=  173. Gap= 0.728 NK=0 IS=   58 IE=  332 IFin=   57
          NO(<0.9)=   0  NV(>0.1)=   0     57.00e < EF      0.00e >EF  Err=0.0D+00
 GapD=    0.228 DampG=1.000 DampE=1.000 DampFc=1.0000 IDamp=-1.
 RMSDP=6.15D-04 MaxDP=4.70D-02 DE=-5.25D-03 OVMax= 7.19D-03

 Cycle   5  Pass 1  IDiag  1:
 E= -1258.97068673882     Delta-E=       -0.000998125713 Rises=F Damp=F
 DIIS: error= 1.04D-03 at cycle   5 NSaved=   5.
 NSaved= 5 IEnMin= 5 EnMin= -1258.97068673882     IErMin= 5 ErrMin= 1.04D-03
 ErrMax= 1.04D-03  0.00D+00 EMaxC= 1.00D+00 BMatC= 1.10D-04 BMatP= 6.06D-04
 IDIUse=1 WtCom= 1.00D+00 WtEn= 0.00D+00
 Coeff-Com: -0.753D-02 0.108D-01-0.142D+00-0.262D+00 0.140D+01
 Coeff:     -0.753D-02 0.108D-01-0.142D+00-0.262D+00 0.140D+01
 Gap=     0.229 Goal=   None    Shift=    0.500
 GapD=    0.229 DampG=1.000 DampE=1.000 DampFc=1.0000 IDamp=-1.
 RMSDP=3.33D-04 MaxDP=2.55D-02 DE=-9.98D-04 OVMax= 6.15D-03

 Cycle   6  Pass 1  IDiag  1:
 E= -1258.97100847806     Delta-E=       -0.000321739234 Rises=F Damp=F
 DIIS: error= 7.83D-04 at cycle   6 NSaved=   6.
 NSaved= 6 IEnMin= 6 EnMin= -1258.97100847806     IErMin= 6 ErrMin= 7.83D-04
 ErrMax= 7.83D-04  0.00D+00 EMaxC= 1.00D+00 BMatC= 3.54D-05 BMatP= 1.10D-04
 IDIUse=1 WtCom= 1.00D+00 WtEn= 0.00D+00
 Coeff-Com: -0.517D-02 0.536D-02 0.793D-01-0.576D+00-0.119D-01 0.151D+01
 Coeff:     -0.517D-02 0.536D-02 0.793D-01-0.576D+00-0.119D-01 0.151D+01
 Gap=     0.229 Goal=   None    Shift=    0.500
 RMSDP=2.02D-04 MaxDP=1.52D-02 DE=-3.22D-04 OVMax= 4.53D-03

 Cycle   7  Pass 1  IDiag  1:
 E= -1258.97115267808     Delta-E=       -0.000144200024 Rises=F Damp=F
 DIIS: error= 5.56D-04 at cycle   7 NSaved=   7.
 NSaved= 7 IEnMin= 7 EnMin= -1258.97115267808     IErMin= 7 ErrMin= 5.56D-04
 ErrMax= 5.56D-04  0.00D+00 EMaxC= 1.00D+00 BMatC= 1.23D-05 BMatP= 3.54D-05
 IDIUse=1 WtCom= 1.00D+00 WtEn= 0.00D+00
 Coeff-Com: -0.114D-03-0.378D-02 0.476D-01 0.394D-01-0.524D+00-0.415D+00
 Coeff-Com:  0.186D+01
 Coeff:     -0.114D-03-0.378D-02 0.476D-01 0.394D-01-0.524D+00-0.415D+00
 Coeff:      0.186D+01
 Gap=     0.229 Goal=   None    Shift=    0.500
 RMSDP=1.11D-04 MaxDP=7.05D-03 DE=-1.44D-04 OVMax= 3.39D-03

 Cycle   8  Pass 1  IDiag  1:
 E= -1258.97121598192     Delta-E=       -0.000063303838 Rises=F Damp=F
 DIIS: error= 3.80D-04 at cycle   8 NSaved=   8.
 NSaved= 8 IEnMin= 8 EnMin= -1258.97121598192     IErMin= 8 ErrMin= 3.80D-04
 ErrMax= 3.80D-04  0.00D+00 EMaxC= 1.00D+00 BMatC= 5.15D-06 BMatP= 1.23D-05
 IDIUse=1 WtCom= 1.00D+00 WtEn= 0.00D+00
 Coeff-Com:  0.500D-03-0.260D-02-0.230D-01 0.228D+00-0.236D+00-0.542D+00
 Coeff-Com: -0.326D+00 0.190D+01
 Coeff:      0.500D-03-0.260D-02-0.230D-01 0.228D+00-0.236D+00-0.542D+00
 Coeff:     -0.326D+00 0.190D+01
 Gap=     0.230 Goal=   None    Shift=    0.500
 RMSDP=6.27D-05 MaxDP=2.84D-03 DE=-6.33D-05 OVMax= 2.39D-03

 Cycle   9  Pass 1  IDiag  1:
 E= -1258.97124413519     Delta-E=       -0.000028153271 Rises=F Damp=F
 DIIS: error= 2.61D-04 at cycle   9 NSaved=   9.
 NSaved= 9 IEnMin= 9 EnMin= -1258.97124413519     IErMin= 9 ErrMin= 2.61D-04
 ErrMax= 2.61D-04  0.00D+00 EMaxC= 1.00D+00 BMatC= 2.21D-06 BMatP= 5.15D-06
 IDIUse=1 WtCom= 1.00D+00 WtEn= 0.00D+00
 Coeff-Com: -0.165D-03-0.345D-03-0.168D-01 0.381D-01 0.912D-01 0.107D+00
 Coeff-Com: -0.113D+01 0.514D-01 0.186D+01
 Coeff:     -0.165D-03-0.345D-03-0.168D-01 0.381D-01 0.912D-01 0.107D+00
 Coeff:     -0.113D+01 0.514D-01 0.186D+01
 Gap=     0.230 Goal=   None    Shift=    0.500
 RMSDP=3.84D-05 MaxDP=1.31D-03 DE=-2.82D-05 OVMax= 1.67D-03

 Cycle  10  Pass 1  IDiag  1:
 E= -1258.97125642544     Delta-E=       -0.000012290249 Rises=F Damp=F
 DIIS: error= 1.68D-04 at cycle  10 NSaved=  10.
 NSaved=10 IEnMin=10 EnMin= -1258.97125642544     IErMin=10 ErrMin= 1.68D-04
 ErrMax= 1.68D-04  0.00D+00 EMaxC= 1.00D+00 BMatC= 9.26D-07 BMatP= 2.21D-06
 IDIUse=1 WtCom= 1.00D+00 WtEn= 0.00D+00
 Coeff-Com: -0.324D-03 0.307D-03 0.277D-02-0.476D-01 0.933D-01 0.235D+00
 Coeff-Com: -0.509D+00-0.497D+00-0.502D-02 0.173D+01
 Coeff:     -0.324D-03 0.307D-03 0.277D-02-0.476D-01 0.933D-01 0.235D+00
 Coeff:     -0.509D+00-0.497D+00-0.502D-02 0.173D+01
 Gap=     0.230 Goal=   None    Shift=    0.500
 RMSDP=2.38D-05 MaxDP=8.87D-04 DE=-1.23D-05 OVMax= 1.09D-03

 Cycle  11  Pass 1  IDiag  1:
 E= -1258.97126152520     Delta-E=       -0.000005099756 Rises=F Damp=F
 DIIS: error= 1.12D-04 at cycle  11 NSaved=  11.
 NSaved=11 IEnMin=11 EnMin= -1258.97126152520     IErMin=11 ErrMin= 1.12D-04
 ErrMax= 1.12D-04  0.00D+00 EMaxC= 1.00D+00 BMatC= 4.04D-07 BMatP= 9.26D-07
 IDIUse=1 WtCom= 1.00D+00 WtEn= 0.00D+00
 Coeff-Com: -0.171D-03 0.319D-03 0.526D-02-0.121D-01-0.223D-01 0.173D-01
 Coeff-Com:  0.276D+00-0.114D+00-0.109D+01-0.130D+00 0.207D+01
 Coeff:     -0.171D-03 0.319D-03 0.526D-02-0.121D-01-0.223D-01 0.173D-01
 Coeff:      0.276D+00-0.114D+00-0.109D+01-0.130D+00 0.207D+01
 Gap=     0.230 Goal=   None    Shift=    0.500
 RMSDP=1.49D-05 MaxDP=5.62D-04 DE=-5.10D-06 OVMax= 7.22D-04

 Cycle  12  Pass 1  IDiag  1:
 E= -1258.97126367163     Delta-E=       -0.000002146437 Rises=F Damp=F
 DIIS: error= 6.99D-05 at cycle  12 NSaved=  12.
 NSaved=12 IEnMin=12 EnMin= -1258.97126367163     IErMin=12 ErrMin= 6.99D-05
 ErrMax= 6.99D-05  0.00D+00 EMaxC= 1.00D+00 BMatC= 1.78D-07 BMatP= 4.04D-07
 IDIUse=1 WtCom= 1.00D+00 WtEn= 0.00D+00
 Coeff-Com: -0.379D-04 0.384D-04 0.140D-02 0.908D-02-0.367D-01-0.412D-01
 Coeff-Com:  0.229D+00 0.124D+00-0.568D+00-0.559D+00 0.212D-01 0.182D+01
 Coeff:     -0.379D-04 0.384D-04 0.140D-02 0.908D-02-0.367D-01-0.412D-01
 Coeff:      0.229D+00 0.124D+00-0.568D+00-0.559D+00 0.212D-01 0.182D+01
 Gap=     0.230 Goal=   None    Shift=    0.500
 RMSDP=9.70D-06 MaxDP=3.66D-04 DE=-2.15D-06 OVMax= 4.59D-04

 Cycle  13  Pass 1  IDiag  1:
 E= -1258.97126456964     Delta-E=       -0.000000898005 Rises=F Damp=F
 DIIS: error= 4.42D-05 at cycle  13 NSaved=  13.
 NSaved=13 IEnMin=13 EnMin= -1258.97126456964     IErMin=13 ErrMin= 4.42D-05
 ErrMax= 4.42D-05  0.00D+00 EMaxC= 1.00D+00 BMatC= 7.36D-08 BMatP= 1.78D-07
 IDIUse=1 WtCom= 1.00D+00 WtEn= 0.00D+00
 Coeff-Com:  0.514D-05-0.208D-03-0.145D-02 0.642D-02-0.197D-02-0.352D-02
 Coeff-Com: -0.784D-01 0.114D+00 0.275D+00-0.156D+00-0.111D+01-0.303D+00
 Coeff-Com:  0.225D+01
 Coeff:      0.514D-05-0.208D-03-0.145D-02 0.642D-02-0.197D-02-0.352D-02
 Coeff:     -0.784D-01 0.114D+00 0.275D+00-0.156D+00-0.111D+01-0.303D+00
 Coeff:      0.225D+01
 Gap=     0.230 Goal=   None    Shift=    0.500
 RMSDP=6.17D-06 MaxDP=2.19D-04 DE=-8.98D-07 OVMax= 3.08D-04

 Cycle  14  Pass 1  IDiag  1:
 E= -1258.97126494336     Delta-E=       -0.000000373726 Rises=F Damp=F
 DIIS: error= 2.73D-05 at cycle  14 NSaved=  14.
 NSaved=14 IEnMin=14 EnMin= -1258.97126494336     IErMin=14 ErrMin= 2.73D-05
 ErrMax= 2.73D-05  0.00D+00 EMaxC= 1.00D+00 BMatC= 3.35D-08 BMatP= 7.36D-08
 IDIUse=1 WtCom= 1.00D+00 WtEn= 0.00D+00
 Coeff-Com: -0.762D-05-0.846D-04-0.554D-03-0.971D-03 0.955D-02 0.124D-01
 Coeff-Com: -0.738D-01-0.171D-01 0.213D+00 0.155D+00-0.312D+00-0.974D+00
 Coeff-Com: -0.187D+00 0.218D+01
 Coeff:     -0.762D-05-0.846D-04-0.554D-03-0.971D-03 0.955D-02 0.124D-01
 Coeff:     -0.738D-01-0.171D-01 0.213D+00 0.155D+00-0.312D+00-0.974D+00
 Coeff:     -0.187D+00 0.218D+01
 Gap=     0.230 Goal=   None    Shift=    0.500
 RMSDP=4.31D-06 MaxDP=1.44D-04 DE=-3.74D-07 OVMax= 2.33D-04

 Cycle  15  Pass 1  IDiag  1:
 E= -1258.97126510748     Delta-E=       -0.000000164114 Rises=F Damp=F
 DIIS: error= 1.63D-05 at cycle  15 NSaved=  15.
 NSaved=15 IEnMin=15 EnMin= -1258.97126510748     IErMin=15 ErrMin= 1.63D-05
 ErrMax= 1.63D-05  0.00D+00 EMaxC= 1.00D+00 BMatC= 1.45D-08 BMatP= 3.35D-08
 IDIUse=1 WtCom= 1.00D+00 WtEn= 0.00D+00
 Coeff-Com: -0.198D-04 0.333D-04 0.483D-03-0.295D-02 0.410D-02 0.971D-02
 Coeff-Com:  0.168D-05-0.611D-01-0.229D-01 0.170D+00 0.306D+00-0.475D+00
 Coeff-Com: -0.103D+01 0.887D-01 0.202D+01
 Coeff:     -0.198D-04 0.333D-04 0.483D-03-0.295D-02 0.410D-02 0.971D-02
 Coeff:      0.168D-05-0.611D-01-0.229D-01 0.170D+00 0.306D+00-0.475D+00
 Coeff:     -0.103D+01 0.887D-01 0.202D+01
 Gap=     0.230 Goal=   None    Shift=    0.500
 RMSDP=2.99D-06 MaxDP=9.41D-05 DE=-1.64D-07 OVMax= 1.72D-04

 Cycle  16  Pass 1  IDiag  1:
 E= -1258.97126517979     Delta-E=       -0.000000072316 Rises=F Damp=F
 DIIS: error= 1.01D-05 at cycle  16 NSaved=  16.
 NSaved=16 IEnMin=16 EnMin= -1258.97126517979     IErMin=16 ErrMin= 1.01D-05
 ErrMax= 1.01D-05  0.00D+00 EMaxC= 1.00D+00 BMatC= 6.74D-09 BMatP= 1.45D-08
 IDIUse=1 WtCom= 1.00D+00 WtEn= 0.00D+00
 Coeff-Com: -0.305D-05 0.280D-04 0.488D-03-0.116D-02-0.225D-02 0.211D-02
 Coeff-Com:  0.235D-01-0.139D-01-0.702D-01 0.569D-02 0.167D+00 0.245D+00
 Coeff-Com: -0.329D+00-0.119D+01-0.159D+00 0.232D+01
 Coeff:     -0.305D-05 0.280D-04 0.488D-03-0.116D-02-0.225D-02 0.211D-02
 Coeff:      0.235D-01-0.139D-01-0.702D-01 0.569D-02 0.167D+00 0.245D+00
 Coeff:     -0.329D+00-0.119D+01-0.159D+00 0.232D+01
 Gap=     0.230 Goal=   None    Shift=    0.500
 RMSDP=2.20D-06 MaxDP=7.28D-05 DE=-7.23D-08 OVMax= 1.34D-04

 Cycle  17  Pass 1  IDiag  1:
 E= -1258.97126521430     Delta-E=       -0.000000034511 Rises=F Damp=F
 DIIS: error= 5.90D-06 at cycle  17 NSaved=  17.
 NSaved=17 IEnMin=17 EnMin= -1258.97126521430     IErMin=17 ErrMin= 5.90D-06
 ErrMax= 5.90D-06  0.00D+00 EMaxC= 1.00D+00 BMatC= 2.96D-09 BMatP= 6.74D-09
 IDIUse=1 WtCom= 1.00D+00 WtEn= 0.00D+00
 Coeff-Com:  0.395D-05-0.692D-05 0.190D-05 0.807D-03-0.284D-02-0.234D-02
 Coeff-Com:  0.858D-02 0.201D-01-0.189D-01-0.650D-01-0.450D-01 0.309D+00
 Coeff-Com:  0.232D+00-0.658D+00-0.103D+01 0.178D+00 0.208D+01
 Coeff:      0.395D-05-0.692D-05 0.190D-05 0.807D-03-0.284D-02-0.234D-02
 Coeff:      0.858D-02 0.201D-01-0.189D-01-0.650D-01-0.450D-01 0.309D+00
 Coeff:      0.232D+00-0.658D+00-0.103D+01 0.178D+00 0.208D+01
 Gap=     0.230 Goal=   None    Shift=    0.500
 RMSDP=1.51D-06 MaxDP=5.14D-05 DE=-3.45D-08 OVMax= 9.86D-05

 Cycle  18  Pass 1  IDiag  1:
 E= -1258.97126523037     Delta-E=       -0.000000016068 Rises=F Damp=F
 DIIS: error= 4.04D-06 at cycle  18 NSaved=  18.
 NSaved=18 IEnMin=18 EnMin= -1258.97126523037     IErMin=18 ErrMin= 4.04D-06
 ErrMax= 4.04D-06  0.00D+00 EMaxC= 1.00D+00 BMatC= 1.32D-09 BMatP= 2.96D-09
 IDIUse=1 WtCom= 1.00D+00 WtEn= 0.00D+00
 Coeff-Com:  0.135D-05-0.170D-04-0.209D-03 0.970D-03-0.515D-03-0.214D-02
 Coeff-Com: -0.531D-02 0.171D-01 0.184D-01-0.367D-01-0.841D-01 0.680D-01
 Coeff-Com:  0.243D+00 0.968D-01-0.608D+00-0.906D+00 0.443D+00 0.176D+01
 Coeff:      0.135D-05-0.170D-04-0.209D-03 0.970D-03-0.515D-03-0.214D-02
 Coeff:     -0.531D-02 0.171D-01 0.184D-01-0.367D-01-0.841D-01 0.680D-01
 Coeff:      0.243D+00 0.968D-01-0.608D+00-0.906D+00 0.443D+00 0.176D+01
 Gap=     0.230 Goal=   None    Shift=    0.500
 RMSDP=1.04D-06 MaxDP=3.50D-05 DE=-1.61D-08 OVMax= 6.87D-05

 Cycle  19  Pass 1  IDiag  1:
 E= -1258.97126523757     Delta-E=       -0.000000007196 Rises=F Damp=F
 DIIS: error= 2.85D-06 at cycle  19 NSaved=  19.
 NSaved=19 IEnMin=19 EnMin= -1258.97126523757     IErMin=19 ErrMin= 2.85D-06
 ErrMax= 2.85D-06  0.00D+00 EMaxC= 1.00D+00 BMatC= 6.12D-10 BMatP= 1.32D-09
 IDIUse=1 WtCom= 1.00D+00 WtEn= 0.00D+00
 Coeff-Com: -0.211D-05-0.653D-05-0.876D-04 0.122D-03 0.948D-03-0.101D-03
 Coeff-Com: -0.564D-02-0.315D-03 0.153D-01 0.111D-01-0.141D-01-0.895D-01
 Coeff-Com:  0.178D-01 0.285D+00 0.669D-01-0.494D+00-0.815D+00-0.525D-01
 Coeff-Com:  0.207D+01
 Coeff:     -0.211D-05-0.653D-05-0.876D-04 0.122D-03 0.948D-03-0.101D-03
 Coeff:     -0.564D-02-0.315D-03 0.153D-01 0.111D-01-0.141D-01-0.895D-01
 Coeff:      0.178D-01 0.285D+00 0.669D-01-0.494D+00-0.815D+00-0.525D-01
 Coeff:      0.207D+01
 Gap=     0.230 Goal=   None    Shift=    0.500
 RMSDP=7.32D-07 MaxDP=2.49D-05 DE=-7.20D-09 OVMax= 4.90D-05

 SCF Done:  E(RLC-wHPBE) =  -1258.97126524     A.U. after   19 cycles
            NFock= 19  Conv=0.73D-06     -V/T= 2.0033
 KE= 1.254789755650D+03 PE=-5.047239430517D+03 EE= 1.492836341309D+03
 Leave Link  502 at Tue Jan 26 00:15:36 2021, MaxMem=  4026531840 cpu:            1664.0 elap:             208.3
 (Enter /opt/ohpc/pub/libs/gaussian/g16-A.03/sandybridge/g16/l508.exe)
 QCSCF skips out because SCF is already converged.
 Leave Link  508 at Tue Jan 26 00:15:36 2021, MaxMem=  4026531840 cpu:               0.1 elap:               0.0
 (Enter /opt/ohpc/pub/libs/gaussian/g16-A.03/sandybridge/g16/l601.exe)
 Copying SCF densities to generalized density rwf, IOpCl= 0 IROHF=0.

 **********************************************************************

            Population analysis using the SCF density.

 **********************************************************************

 Orbital symmetries:
       Occupied  (A) (A) (A) (A) (A) (A) (A) (A) (A) (A) (A) (A)
                 (A) (A) (A) (A) (A) (A) (A) (A) (A) (A) (A) (A)
                 (A) (A) (A) (A) (A) (A) (A) (A) (A) (A) (A) (A)
                 (A) (A) (A) (A) (A) (A) (A) (A) (A) (A) (A) (A)
                 (A) (A) (A) (A) (A) (A) (A) (A) (A)
       Virtual   (A) (A) (A) (A) (A) (A) (A) (A) (A) (A) (A) (A)
                 (A) (A) (A) (A) (A) (A) (A) (A) (A) (A) (A) (A)
                 (A) (A) (A) (A) (A) (A) (A) (A) (A) (A) (A) (A)
                 (A) (A) (A) (A) (A) (A) (A) (A) (A) (A) (A) (A)
                 (A) (A) (A) (A) (A) (A) (A) (A) (A) (A) (A) (A)
                 (A) (A) (A) (A) (A) (A) (A) (A) (A) (A) (A) (A)
                 (A) (A) (A) (A) (A) (A) (A) (A) (A) (A) (A) (A)
                 (A) (A) (A) (A) (A) (A) (A) (A) (A) (A) (A) (A)
                 (A) (A) (A) (A) (A) (A) (A) (A) (A) (A) (A) (A)
                 (A) (A) (A) (A) (A) (A) (A) (A) (A) (A) (A) (A)
                 (A) (A) (A) (A) (A) (A) (A) (A) (A) (A) (A) (A)
                 (A) (A) (A) (A) (A) (A) (A) (A) (A) (A) (A) (A)
                 (A) (A) (A) (A) (A) (A) (A) (A) (A) (A) (A) (A)
                 (A) (A) (A) (A) (A) (A) (A) (A) (A) (A) (A) (A)
                 (A) (A) (A) (A) (A) (A) (A) (A) (A) (A) (A) (A)
                 (A) (A) (A) (A) (A) (A) (A) (A) (A) (A) (A) (A)
                 (A) (A) (A) (A) (A) (A) (A) (A) (A) (A) (A) (A)
                 (A) (A) (A) (A) (A) (A) (A) (A) (A) (A) (A) (A)
                 (A) (A) (A) (A) (A) (A) (A) (A) (A) (A) (A) (A)
                 (A) (A) (A) (A) (A) (A) (A) (A) (A) (A) (A) (A)
                 (A) (A) (A) (A) (A) (A) (A) (A) (A) (A) (A) (A)
                 (A) (A) (A) (A) (A) (A) (A) (A) (A) (A) (A) (A)
                 (A) (A) (A) (A) (A) (A) (A) (A) (A) (A) (A)
 The electronic state is 1-A.
 Alpha  occ. eigenvalues --  -88.31180 -88.22109 -10.08016 -10.07823 -10.04573
 Alpha  occ. eigenvalues --  -10.03724 -10.03626 -10.03485 -10.02489 -10.00374
 Alpha  occ. eigenvalues --   -9.99191  -9.98549  -9.97463  -9.93754  -7.90219
 Alpha  occ. eigenvalues --   -7.81345  -5.92182  -5.92019  -5.91320  -5.83532
 Alpha  occ. eigenvalues --   -5.83047  -5.82249  -0.96936  -0.92587  -0.88090
 Alpha  occ. eigenvalues --   -0.86866  -0.82774  -0.78769  -0.77695  -0.76073
 Alpha  occ. eigenvalues --   -0.70155  -0.68332  -0.65087  -0.63078  -0.60710
 Alpha  occ. eigenvalues --   -0.57749  -0.56957  -0.55127  -0.53410  -0.51672
 Alpha  occ. eigenvalues --   -0.51258  -0.49322  -0.49242  -0.47083  -0.46133
 Alpha  occ. eigenvalues --   -0.45880  -0.44737  -0.43383  -0.41943  -0.40435
 Alpha  occ. eigenvalues --   -0.37611  -0.37539  -0.36299  -0.32103  -0.29570
 Alpha  occ. eigenvalues --   -0.29495  -0.22645
 Alpha virt. eigenvalues --    0.00346   0.01637   0.03734   0.05058   0.07312
 Alpha virt. eigenvalues --    0.08498   0.09137   0.10174   0.11489   0.12496
 Alpha virt. eigenvalues --    0.13788   0.14311   0.16362   0.16618   0.16946
 Alpha virt. eigenvalues --    0.18476   0.18704   0.19785   0.20832   0.21317
 Alpha virt. eigenvalues --    0.23473   0.24039   0.24464   0.25479   0.26059
 Alpha virt. eigenvalues --    0.27050   0.27173   0.28360   0.28666   0.29354
 Alpha virt. eigenvalues --    0.29706   0.30116   0.31357   0.31848   0.32183
 Alpha virt. eigenvalues --    0.32814   0.33521   0.33730   0.34138   0.35064
 Alpha virt. eigenvalues --    0.35792   0.36210   0.37388   0.38158   0.39037
 Alpha virt. eigenvalues --    0.39834   0.40463   0.41079   0.41418   0.43085
 Alpha virt. eigenvalues --    0.43510   0.44131   0.44462   0.44855   0.44918
 Alpha virt. eigenvalues --    0.46108   0.46815   0.47545   0.48303   0.48692
 Alpha virt. eigenvalues --    0.49005   0.49875   0.50291   0.51327   0.51474
 Alpha virt. eigenvalues --    0.52543   0.52970   0.54274   0.54807   0.55712
 Alpha virt. eigenvalues --    0.55944   0.56452   0.58067   0.58606   0.59057
 Alpha virt. eigenvalues --    0.59622   0.60839   0.62366   0.62889   0.64404
 Alpha virt. eigenvalues --    0.65726   0.66052   0.68407   0.69876   0.71579
 Alpha virt. eigenvalues --    0.73462   0.74578   0.75174   0.76099   0.77243
 Alpha virt. eigenvalues --    0.77590   0.79320   0.79857   0.81231   0.82975
 Alpha virt. eigenvalues --    0.85662   0.89640   0.90895   0.91661   0.92104
 Alpha virt. eigenvalues --    0.94037   0.94970   0.97275   0.98522   0.99603
 Alpha virt. eigenvalues --    1.07611   1.10457   1.19615   1.22421   1.25533
 Alpha virt. eigenvalues --    1.27129   1.28198   1.29119   1.29134   1.30455
 Alpha virt. eigenvalues --    1.31129   1.32246   1.33051   1.33825   1.34196
 Alpha virt. eigenvalues --    1.35494   1.37705   1.38013   1.38277   1.38941
 Alpha virt. eigenvalues --    1.42333   1.43239   1.43488   1.44408   1.45941
 Alpha virt. eigenvalues --    1.46759   1.47248   1.47409   1.48420   1.50582
 Alpha virt. eigenvalues --    1.51140   1.51340   1.51839   1.52240   1.53099
 Alpha virt. eigenvalues --    1.53803   1.54790   1.55517   1.55968   1.57025
 Alpha virt. eigenvalues --    1.57737   1.58426   1.58688   1.58912   1.61165
 Alpha virt. eigenvalues --    1.62241   1.64007   1.64466   1.65353   1.67034
 Alpha virt. eigenvalues --    1.67992   1.68341   1.71703   1.72083   1.72645
 Alpha virt. eigenvalues --    1.75211   1.75954   1.78706   1.79766   1.80117
 Alpha virt. eigenvalues --    1.81983   1.82250   1.82703   1.84054   1.84383
 Alpha virt. eigenvalues --    1.85881   1.86738   1.89208   1.90152   1.90422
 Alpha virt. eigenvalues --    1.91516   1.92897   1.93396   1.93848   1.94413
 Alpha virt. eigenvalues --    1.95149   1.96818   1.97272   1.99150   2.00174
 Alpha virt. eigenvalues --    2.02174   2.02854   2.03989   2.04193   2.06713
 Alpha virt. eigenvalues --    2.07790   2.09962   2.11166   2.14660   2.16820
 Alpha virt. eigenvalues --    2.18727   2.22391   2.27286   2.28020   2.30024
 Alpha virt. eigenvalues --    2.31356   2.31729   2.32426   2.33259   2.35149
 Alpha virt. eigenvalues --    2.36009   2.36452   2.37957   2.38428   2.38788
 Alpha virt. eigenvalues --    2.40218   2.41652   2.44137   2.46283   2.49004
 Alpha virt. eigenvalues --    2.50286   2.51215   2.53495   2.53687   2.56437
 Alpha virt. eigenvalues --    2.57691   2.59455   2.59884   2.62777   2.64315
 Alpha virt. eigenvalues --    2.64887   2.66196   2.66424   2.67812   2.69569
 Alpha virt. eigenvalues --    2.71243   2.72119   2.73111   2.73839   2.75580
 Alpha virt. eigenvalues --    2.81259   2.83368   2.83851   2.87812   2.96285
 Alpha virt. eigenvalues --    2.99375   3.03406   3.07205   3.10708   3.12567
 Alpha virt. eigenvalues --    3.13173   3.13759   3.15348   3.17556   3.18801
 Alpha virt. eigenvalues --    3.20304   3.22939   3.29058   3.30336   3.36462
 Alpha virt. eigenvalues --    3.38384   3.40261   3.54895   3.57961   3.72503
 Alpha virt. eigenvalues --    3.73807  18.95915  19.06460  21.06093  21.34085
 Alpha virt. eigenvalues --   21.61295  21.69513  21.71441  21.74544  21.91212
 Alpha virt. eigenvalues --   21.93014  21.95489  22.00840  22.09572  22.13906
          Condensed to atoms (all electrons):
               1          2          3          4          5          6
     1  C    6.356637  -0.394561  -0.106868   0.352029  -0.006202  -0.028492
     2  C   -0.394561   6.457020   0.459512  -0.465376  -0.029570   0.030573
     3  S   -0.106868   0.459512  15.479712  -0.161949   0.011782  -0.056903
     4  C    0.352029  -0.465376  -0.161949   6.571419  -0.040914  -0.022994
     5  C   -0.006202  -0.029570   0.011782  -0.040914   7.092506  -0.053859
     6  C   -0.028492   0.030573  -0.056903  -0.022994  -0.053859   5.906149
     7  C   -0.405701   0.369641   0.059290  -0.345951   0.002794   0.006192
     8  C   -0.445257   0.130683   0.029593  -0.256975   0.020532   0.000854
     9  H   -0.003277   0.016371   0.005244  -0.024993  -0.063314   0.013211
    10  C   -0.005707   0.031739  -0.016645  -0.024630  -0.732294   0.176935
    11  C    0.001980   0.002868   0.019103  -0.004628   0.109417   0.364196
    12  C   -0.000781   0.001280  -0.010837  -0.002719  -0.448917   0.124731
    13  C    0.000423  -0.000655   0.016800   0.002205   0.246336  -0.114782
    14  H    0.000026   0.000337  -0.000686  -0.000392  -0.069237   0.003131
    15  H    0.000163  -0.000154  -0.000496   0.000159   0.038721  -0.084683
    16  H    0.000004  -0.000059  -0.000432   0.000042   0.004741   0.013534
    17  H    0.000000   0.000014   0.000194  -0.000002   0.025691  -0.000167
    18  C    0.357683  -0.346198  -0.011188   0.271389  -0.005306  -0.007555
    19  H    0.464555  -0.115946  -0.012797   0.035772   0.000100  -0.000680
    20  H   -0.051326  -0.006143   0.302668   0.006634   0.000530   0.004946
    21  H   -0.062432   0.024144  -0.000060  -0.004873   0.000008   0.000031
    22  H   -0.005906   0.035132   0.000059  -0.082635   0.002141   0.000525
    23  H    0.024475  -0.004829  -0.000051   0.028220  -0.000029  -0.000040
    24  S    0.029698  -0.213652  -0.008961   0.375990   0.244217  -0.100673
               7          8          9         10         11         12
     1  C   -0.405701  -0.445257  -0.003277  -0.005707   0.001980  -0.000781
     2  C    0.369641   0.130683   0.016371   0.031739   0.002868   0.001280
     3  S    0.059290   0.029593   0.005244  -0.016645   0.019103  -0.010837
     4  C   -0.345951  -0.256975  -0.024993  -0.024630  -0.004628  -0.002719
     5  C    0.002794   0.020532  -0.063314  -0.732294   0.109417  -0.448917
     6  C    0.006192   0.000854   0.013211   0.176935   0.364196   0.124731
     7  C    5.687531   0.314464   0.000982   0.000853  -0.000537   0.000110
     8  C    0.314464   5.914516  -0.013574  -0.006877  -0.002265  -0.000077
     9  H    0.000982  -0.013574   0.640803   0.045093  -0.001072   0.001261
    10  C    0.000853  -0.006877   0.045093   6.468015  -0.370591   0.360023
    11  C   -0.000537  -0.002265  -0.001072  -0.370591   5.325424   0.102041
    12  C    0.000110  -0.000077   0.001261   0.360023   0.102041   5.589226
    13  C   -0.000075   0.000417  -0.000053   0.066253   0.187064   0.162863
    14  H   -0.000004  -0.000169  -0.000684   0.374776  -0.000313   0.009558
    15  H   -0.000022  -0.000055  -0.000023  -0.008668   0.448177  -0.143653
    16  H    0.000000   0.000001  -0.000013   0.009444  -0.041309   0.393312
    17  H   -0.000000  -0.000001  -0.000030  -0.069826   0.012723  -0.056059
    18  C    0.098601   0.047582  -0.004265  -0.001117   0.000420  -0.000070
    19  H   -0.066308  -0.007281  -0.000040  -0.000081   0.000048  -0.000030
    20  H    0.006068   0.002458   0.000268   0.001072  -0.000531   0.000611
    21  H    0.426030   0.022895   0.000007   0.000002  -0.000001   0.000000
    22  H    0.015904   0.396640   0.000875   0.000314  -0.000035   0.000006
    23  H   -0.072543  -0.081170  -0.000019  -0.000003   0.000001  -0.000000
    24  S   -0.004672  -0.003096   0.275492  -0.319121   0.025309  -0.015246
              13         14         15         16         17         18
     1  C    0.000423   0.000026   0.000163   0.000004   0.000000   0.357683
     2  C   -0.000655   0.000337  -0.000154  -0.000059   0.000014  -0.346198
     3  S    0.016800  -0.000686  -0.000496  -0.000432   0.000194  -0.011188
     4  C    0.002205  -0.000392   0.000159   0.000042  -0.000002   0.271389
     5  C    0.246336  -0.069237   0.038721   0.004741   0.025691  -0.005306
     6  C   -0.114782   0.003131  -0.084683   0.013534  -0.000167  -0.007555
     7  C   -0.000075  -0.000004  -0.000022   0.000000  -0.000000   0.098601
     8  C    0.000417  -0.000169  -0.000055   0.000001  -0.000001   0.047582
     9  H   -0.000053  -0.000684  -0.000023  -0.000013  -0.000030  -0.004265
    10  C    0.066253   0.374776  -0.008668   0.009444  -0.069826  -0.001117
    11  C    0.187064  -0.000313   0.448177  -0.041309   0.012723   0.000420
    12  C    0.162863   0.009558  -0.143653   0.393312  -0.056059  -0.000070
    13  C    5.205899  -0.004641   0.022959  -0.059036   0.416431   0.000051
    14  H   -0.004641   0.594400   0.000144  -0.000209  -0.008217   0.000024
    15  H    0.022959   0.000144   0.642266  -0.006896  -0.000294   0.000017
    16  H   -0.059036  -0.000209  -0.006896   0.597706  -0.006948   0.000000
    17  H    0.416431  -0.008217  -0.000294  -0.006948   0.586142   0.000000
    18  C    0.000051   0.000024   0.000017   0.000000   0.000000   5.354884
    19  H    0.000014   0.000000   0.000007   0.000000  -0.000000   0.021459
    20  H   -0.000751  -0.000074  -0.000058  -0.000005   0.000002  -0.001911
    21  H   -0.000000  -0.000000  -0.000000  -0.000000  -0.000000  -0.069390
    22  H   -0.000002  -0.000005  -0.000001  -0.000000  -0.000000  -0.040552
    23  H    0.000000   0.000000   0.000000   0.000000   0.000000   0.441529
    24  S    0.040151  -0.003956  -0.000107   0.000151  -0.000241   0.009903
              19         20         21         22         23         24
     1  C    0.464555  -0.051326  -0.062432  -0.005906   0.024475   0.029698
     2  C   -0.115946  -0.006143   0.024144   0.035132  -0.004829  -0.213652
     3  S   -0.012797   0.302668  -0.000060   0.000059  -0.000051  -0.008961
     4  C    0.035772   0.006634  -0.004873  -0.082635   0.028220   0.375990
     5  C    0.000100   0.000530   0.000008   0.002141  -0.000029   0.244217
     6  C   -0.000680   0.004946   0.000031   0.000525  -0.000040  -0.100673
     7  C   -0.066308   0.006068   0.426030   0.015904  -0.072543  -0.004672
     8  C   -0.007281   0.002458   0.022895   0.396640  -0.081170  -0.003096
     9  H   -0.000040   0.000268   0.000007   0.000875  -0.000019   0.275492
    10  C   -0.000081   0.001072   0.000002   0.000314  -0.000003  -0.319121
    11  C    0.000048  -0.000531  -0.000001  -0.000035   0.000001   0.025309
    12  C   -0.000030   0.000611   0.000000   0.000006  -0.000000  -0.015246
    13  C    0.000014  -0.000751  -0.000000  -0.000002   0.000000   0.040151
    14  H    0.000000  -0.000074  -0.000000  -0.000005   0.000000  -0.003956
    15  H    0.000007  -0.000058  -0.000000  -0.000001   0.000000  -0.000107
    16  H    0.000000  -0.000005  -0.000000  -0.000000   0.000000   0.000151
    17  H   -0.000000   0.000002  -0.000000  -0.000000   0.000000  -0.000241
    18  C    0.021459  -0.001911  -0.069390  -0.040552   0.441529   0.009903
    19  H    0.554586  -0.004173  -0.008543  -0.000065  -0.000168   0.000096
    20  H   -0.004173   0.655056   0.000065   0.000021  -0.000010  -0.000754
    21  H   -0.008543   0.000065   0.557340  -0.000164  -0.008320   0.000035
    22  H   -0.000065   0.000021  -0.000164   0.533497  -0.007742   0.004089
    23  H   -0.000168  -0.000010  -0.008320  -0.007742   0.559483  -0.000625
    24  S    0.000096  -0.000754   0.000035   0.004089  -0.000625  15.329003
 Mulliken charges:
               1
     1  C   -0.071164
     2  C    0.017828
     3  S    0.003917
     4  C   -0.204828
     5  C   -0.349877
     6  C   -0.174178
     7  C   -0.092650
     8  C   -0.063840
     9  H    0.111749
    10  C    0.021043
    11  C   -0.177491
    12  C   -0.066635
    13  C   -0.187871
    14  H    0.106187
    15  H    0.092498
    16  H    0.095971
    17  H    0.100586
    18  C   -0.115991
    19  H    0.139475
    20  H    0.085336
    21  H    0.123225
    22  H    0.147902
    23  H    0.121840
    24  S    0.336969
 Sum of Mulliken charges =  -0.00000
 Mulliken charges with hydrogens summed into heavy atoms:
               1
     1  C    0.068311
     2  C    0.017828
     3  S    0.089253
     4  C   -0.204828
     5  C   -0.349877
     6  C   -0.174178
     7  C    0.030576
     8  C    0.084063
    10  C    0.127229
    11  C   -0.084994
    12  C    0.029337
    13  C   -0.087284
    18  C    0.005848
    24  S    0.448718
 Electronic spatial extent (au):  <R**2>=           3318.0452
 Charge=             -0.0000 electrons
 Dipole moment (field-independent basis, Debye):
    X=              4.6169    Y=             -0.9156    Z=             -4.4706  Tot=              6.4916
 Quadrupole moment (field-independent basis, Debye-Ang):
   XX=            -86.1899   YY=            -87.0708   ZZ=           -101.0244
   XY=             -1.1421   XZ=              5.4167   YZ=              2.5353
 Traceless Quadrupole moment (field-independent basis, Debye-Ang):
   XX=              5.2384   YY=              4.3576   ZZ=             -9.5961
   XY=             -1.1421   XZ=              5.4167   YZ=              2.5353
 Octapole moment (field-independent basis, Debye-Ang**2):
  XXX=             54.4593  YYY=              1.5173  ZZZ=            -25.1536  XYY=             21.6246
  XXY=             14.4949  XXZ=              0.7502  XZZ=             -1.9899  YZZ=              0.4273
  YYZ=            -14.5887  XYZ=            -10.1600
 Hexadecapole moment (field-independent basis, Debye-Ang**3):
 XXXX=          -3064.5240 YYYY=           -867.3876 ZZZZ=           -432.4124 XXXY=            -48.7578
 XXXZ=             91.4808 YYYX=              4.8044 YYYZ=            -13.6738 ZZZX=             16.1056
 ZZZY=             19.0440 XXYY=           -674.6842 XXZZ=           -646.5226 YYZZ=           -206.8760
 XXYZ=             10.2885 YYXZ=              5.0388 ZZXY=             -5.8578
 N-N= 1.040642068320D+03 E-N=-5.047239457245D+03  KE= 1.254789755650D+03
 No NMR shielding tensors so no spin-rotation constants.
 Leave Link  601 at Tue Jan 26 00:15:37 2021, MaxMem=  4026531840 cpu:               1.6 elap:               0.2
 (Enter /opt/ohpc/pub/libs/gaussian/g16-A.03/sandybridge/g16/l9999.exe)

 Test job not archived.
 1\1\GINC-CNODE146\SP\RLC-wHPBE\TZVP\C12H10S2\RDU230\26-Jan-2021\0\\#P 
 LC-wHPBE/TZVP iop(3/107=0219700000, 3/108=0219700000) scf=(conver=6,fe
 rmi,ndamp=35,noincfock,novaracc,vshift=500,xqc)\\H10 C12 S2\\0,1\C,0,-
 2.574063,-1.434391,-0.049117\C,0,-1.368901,-0.745264,-0.216328\S,0,0.0
 93606,-1.678504,-0.585022\C,0,-1.397687,0.626896,-0.046009\C,0,1.50039
 5,0.811934,0.077279\C,0,1.478004,0.220423,1.307027\C,0,-3.746915,-0.78
 3096,0.229547\C,0,-2.584351,1.293751,0.256604\H,0,-0.039943,1.860892,-
 1.547006\C,0,2.473105,0.786527,-0.925649\C,0,2.645316,-0.559969,1.4924
 38\C,0,3.655495,-0.649979,0.563531\C,0,3.583956,0.035098,-0.656753\H,0
 ,2.357645,1.302286,-1.874829\H,0,2.763398,-1.119309,2.419207\H,0,4.527
 775,-1.262476,0.773175\H,0,4.391412,-0.038194,-1.378729\C,0,-3.759914,
 0.597536,0.384558\H,0,-2.557315,-2.514169,-0.13851\H,0,-0.525974,-2.52
 8359,-1.4318\H,0,-4.665467,-1.345208,0.349638\H,0,-2.558102,2.368477,0
 .406674\H,0,-4.681894,1.115025,0.619767\S,0,0.004008,1.738768,-0.20875
 \\Version=EM64L-G16RevA.03\State=1-A\HF=-1258.9712652\RMSD=7.318e-07\D
 ipole=-1.8164164,0.3602251,-1.7588871\Quadrupole=3.8946523,3.2397862,-
 7.1344384,-0.8490872,-4.0271496,-1.8849267\PG=C01 [X(C12H10S2)]\\@


 ERWIN WITH HIS PSI CAN DO
 CALCULATIONS QUITE A FEW.
 BUT ONE THING HAS NOT BEEN SEEN
 JUST WHAT DOES PSI REALLY MEAN.
 -- WALTER HUCKEL, TRANS. BY FELIX BLOCH
 Job cpu time:       0 days  0 hours 28 minutes 12.4 seconds.
 Elapsed time:       0 days  0 hours  3 minutes 32.0 seconds.
 File lengths (MBytes):  RWF=     92 Int=      0 D2E=      0 Chk=     12 Scr=      8
 Normal termination of Gaussian 16 at Tue Jan 26 00:15:37 2021.
