 Entering Gaussian System, Link 0=g16
 Input=mol_ta_NN_frag_tune_c6.gjf
 Output=mol_ta_NN_frag_tune_c6.log
 Initial command:
 /opt/ohpc/pub/libs/gaussian/g16-A.03/sandybridge/g16/l1.exe "/mnt/gpfs2_4m/scratch/rdu230/ondemand/projects/init_structures/gaussian/wtuning/mol_ta_NN_frag/tuning_mol_ta_NN_frag_ocycle0/Gau-26084.inp" -scrdir="/mnt/gpfs2_4m/scratch/rdu230/ondemand/projects/init_structures/gaussian/wtuning/mol_ta_NN_frag/tuning_mol_ta_NN_frag_ocycle0/"
 Entering Link 1 = /opt/ohpc/pub/libs/gaussian/g16-A.03/sandybridge/g16/l1.exe PID=     26085.
  
 Copyright (c) 1988,1990,1992,1993,1995,1998,2003,2009,2016,
            Gaussian, Inc.  All Rights Reserved.
  
 This is part of the Gaussian(R) 16 program.  It is based on
 the Gaussian(R) 09 system (copyright 2009, Gaussian, Inc.),
 the Gaussian(R) 03 system (copyright 2003, Gaussian, Inc.),
 the Gaussian(R) 98 system (copyright 1998, Gaussian, Inc.),
 the Gaussian(R) 94 system (copyright 1995, Gaussian, Inc.),
 the Gaussian 92(TM) system (copyright 1992, Gaussian, Inc.),
 the Gaussian 90(TM) system (copyright 1990, Gaussian, Inc.),
 the Gaussian 88(TM) system (copyright 1988, Gaussian, Inc.),
 the Gaussian 86(TM) system (copyright 1986, Carnegie Mellon
 University), and the Gaussian 82(TM) system (copyright 1983,
 Carnegie Mellon University). Gaussian is a federally registered
 trademark of Gaussian, Inc.
  
 This software contains proprietary and confidential information,
 including trade secrets, belonging to Gaussian, Inc.
  
 This software is provided under written license and may be
 used, copied, transmitted, or stored only in accord with that
 written license.
  
 The following legend is applicable only to US Government
 contracts under FAR:
  
                    RESTRICTED RIGHTS LEGEND
  
 Use, reproduction and disclosure by the US Government is
 subject to restrictions as set forth in subparagraphs (a)
 and (c) of the Commercial Computer Software - Restricted
 Rights clause in FAR 52.227-19.
  
 Gaussian, Inc.
 340 Quinnipiac St., Bldg. 40, Wallingford CT 06492
  
  
 ---------------------------------------------------------------
 Warning -- This program may not be used in any manner that
 competes with the business of Gaussian, Inc. or will provide
 assistance to any competitor of Gaussian, Inc.  The licensee
 of this program is prohibited from giving any competitor of
 Gaussian, Inc. access to this program.  By using this program,
 the user acknowledges that Gaussian, Inc. is engaged in the
 business of creating and licensing software in the field of
 computational chemistry and represents and warrants to the
 licensee that it is not a competitor of Gaussian, Inc. and that
 it will not use this program in any manner prohibited above.
 ---------------------------------------------------------------
  

 Cite this work as:
 Gaussian 16, Revision A.03,
 M. J. Frisch, G. W. Trucks, H. B. Schlegel, G. E. Scuseria, 
 M. A. Robb, J. R. Cheeseman, G. Scalmani, V. Barone, 
 G. A. Petersson, H. Nakatsuji, X. Li, M. Caricato, A. V. Marenich, 
 J. Bloino, B. G. Janesko, R. Gomperts, B. Mennucci, H. P. Hratchian, 
 J. V. Ortiz, A. F. Izmaylov, J. L. Sonnenberg, D. Williams-Young, 
 F. Ding, F. Lipparini, F. Egidi, J. Goings, B. Peng, A. Petrone, 
 T. Henderson, D. Ranasinghe, V. G. Zakrzewski, J. Gao, N. Rega, 
 G. Zheng, W. Liang, M. Hada, M. Ehara, K. Toyota, R. Fukuda, 
 J. Hasegawa, M. Ishida, T. Nakajima, Y. Honda, O. Kitao, H. Nakai, 
 T. Vreven, K. Throssell, J. A. Montgomery, Jr., J. E. Peralta, 
 F. Ogliaro, M. J. Bearpark, J. J. Heyd, E. N. Brothers, K. N. Kudin, 
 V. N. Staroverov, T. A. Keith, R. Kobayashi, J. Normand, 
 K. Raghavachari, A. P. Rendell, J. C. Burant, S. S. Iyengar, 
 J. Tomasi, M. Cossi, J. M. Millam, M. Klene, C. Adamo, R. Cammi, 
 J. W. Ochterski, R. L. Martin, K. Morokuma, O. Farkas, 
 J. B. Foresman, and D. J. Fox, Gaussian, Inc., Wallingford CT, 2016.
 
 ******************************************
 Gaussian 16:  EM64L-G16RevA.03 25-Dec-2016
                25-Jan-2021 
 ******************************************
 %mem=30GB
 %nproc=8
 Will use up to    8 processors via shared memory.
 ----------------------------------------------------------------------
 #P LC-wHPBE/TZVP iop(3/107=0218100000, 3/108=0218100000) scf=(conver=6
 ,fermi,ndamp=35,noincfock,novaracc,vshift=500,xqc)
 ----------------------------------------------------------------------
 1/38=1,172=1/1;
 2/12=2,17=6,18=5,40=1/2;
 3/5=19,7=101,11=2,25=1,30=1,74=-71,107=218100000,108=218100000/1,2,3;
 4//1;
 5/5=100002,6=6,8=3,10=500,13=1,18=-1,22=13,38=1,93=35/2,8;
 6/7=2,8=2,9=2,10=2,28=1/1;
 99/5=1,9=1/99;
 Leave Link    1 at Mon Jan 25 23:46:26 2021, MaxMem=  4026531840 cpu:               1.4 elap:               0.2
 (Enter /opt/ohpc/pub/libs/gaussian/g16-A.03/sandybridge/g16/l101.exe)
 ----------
 H10 C12 S2
 ----------
 Symbolic Z-matrix:
 Charge =  1 Multiplicity = 2
 C                    -2.57406  -1.43439  -0.04912 
 C                    -1.3689   -0.74526  -0.21633 
 S                     0.09361  -1.6785   -0.58502 
 C                    -1.39769   0.6269   -0.04601 
 C                     1.5004    0.81193   0.07728 
 C                     1.478     0.22042   1.30703 
 C                    -3.74692  -0.7831    0.22955 
 C                    -2.58435   1.29375   0.2566 
 H                    -0.03994   1.86089  -1.54701 
 C                     2.47311   0.78653  -0.92565 
 C                     2.64532  -0.55997   1.49244 
 C                     3.6555   -0.64998   0.56353 
 C                     3.58396   0.0351   -0.65675 
 H                     2.35765   1.30229  -1.87483 
 H                     2.7634   -1.11931   2.41921 
 H                     4.52778  -1.26248   0.77318 
 H                     4.39141  -0.03819  -1.37873 
 C                    -3.75991   0.59754   0.38456 
 H                    -2.55732  -2.51417  -0.13851 
 H                    -0.52597  -2.52836  -1.4318 
 H                    -4.66547  -1.34521   0.34964 
 H                    -2.5581    2.36848   0.40667 
 H                    -4.68189   1.11503   0.61977 
 S                     0.00401   1.73877  -0.20875 
 
 ITRead=  0  0  0  0  0  0  0  0  0  0  0  0  0  0  0  0  0  0  0  0
 ITRead=  0  0  0  0
 MicOpt= -1 -1 -1 -1 -1 -1 -1 -1 -1 -1 -1 -1 -1 -1 -1 -1 -1 -1 -1 -1
 MicOpt= -1 -1 -1 -1
 NAtoms=     24 NQM=       24 NQMF=       0 NMMI=      0 NMMIF=      0
                NMic=       0 NMicF=      0.
                    Isotopes and Nuclear Properties:
 (Nuclear quadrupole moments (NQMom) in fm**2, nuclear magnetic moments (NMagM)
  in nuclear magnetons)

  Atom         1           2           3           4           5           6           7           8           9          10
 IAtWgt=          12          12          32          12          12          12          12          12           1          12
 AtmWgt=  12.0000000  12.0000000  31.9720718  12.0000000  12.0000000  12.0000000  12.0000000  12.0000000   1.0078250  12.0000000
 NucSpn=           0           0           0           0           0           0           0           0           1           0
 AtZEff=  -0.0000000  -0.0000000  -0.0000000  -0.0000000  -0.0000000  -0.0000000  -0.0000000  -0.0000000  -0.0000000  -0.0000000
 NQMom=    0.0000000   0.0000000   0.0000000   0.0000000   0.0000000   0.0000000   0.0000000   0.0000000   0.0000000   0.0000000
 NMagM=    0.0000000   0.0000000   0.0000000   0.0000000   0.0000000   0.0000000   0.0000000   0.0000000   2.7928460   0.0000000
 AtZNuc=   6.0000000   6.0000000  16.0000000   6.0000000   6.0000000   6.0000000   6.0000000   6.0000000   1.0000000   6.0000000

  Atom        11          12          13          14          15          16          17          18          19          20
 IAtWgt=          12          12          12           1           1           1           1          12           1           1
 AtmWgt=  12.0000000  12.0000000  12.0000000   1.0078250   1.0078250   1.0078250   1.0078250  12.0000000   1.0078250   1.0078250
 NucSpn=           0           0           0           1           1           1           1           0           1           1
 AtZEff=  -0.0000000  -0.0000000  -0.0000000  -0.0000000  -0.0000000  -0.0000000  -0.0000000  -0.0000000  -0.0000000  -0.0000000
 NQMom=    0.0000000   0.0000000   0.0000000   0.0000000   0.0000000   0.0000000   0.0000000   0.0000000   0.0000000   0.0000000
 NMagM=    0.0000000   0.0000000   0.0000000   2.7928460   2.7928460   2.7928460   2.7928460   0.0000000   2.7928460   2.7928460
 AtZNuc=   6.0000000   6.0000000   6.0000000   1.0000000   1.0000000   1.0000000   1.0000000   6.0000000   1.0000000   1.0000000

  Atom        21          22          23          24
 IAtWgt=           1           1           1          32
 AtmWgt=   1.0078250   1.0078250   1.0078250  31.9720718
 NucSpn=           1           1           1           0
 AtZEff=  -0.0000000  -0.0000000  -0.0000000  -0.0000000
 NQMom=    0.0000000   0.0000000   0.0000000   0.0000000
 NMagM=    2.7928460   2.7928460   2.7928460   0.0000000
 AtZNuc=   1.0000000   1.0000000   1.0000000  16.0000000
 Leave Link  101 at Mon Jan 25 23:46:26 2021, MaxMem=  4026531840 cpu:               0.8 elap:               0.1
 (Enter /opt/ohpc/pub/libs/gaussian/g16-A.03/sandybridge/g16/l202.exe)
                          Input orientation:                          
 ---------------------------------------------------------------------
 Center     Atomic      Atomic             Coordinates (Angstroms)
 Number     Number       Type             X           Y           Z
 ---------------------------------------------------------------------
      1          6           0       -2.574063   -1.434391   -0.049117
      2          6           0       -1.368901   -0.745264   -0.216328
      3         16           0        0.093606   -1.678504   -0.585022
      4          6           0       -1.397687    0.626896   -0.046009
      5          6           0        1.500395    0.811934    0.077279
      6          6           0        1.478004    0.220423    1.307027
      7          6           0       -3.746915   -0.783096    0.229547
      8          6           0       -2.584351    1.293751    0.256604
      9          1           0       -0.039943    1.860892   -1.547006
     10          6           0        2.473105    0.786527   -0.925649
     11          6           0        2.645316   -0.559969    1.492438
     12          6           0        3.655495   -0.649979    0.563531
     13          6           0        3.583956    0.035098   -0.656753
     14          1           0        2.357645    1.302286   -1.874829
     15          1           0        2.763398   -1.119309    2.419207
     16          1           0        4.527775   -1.262476    0.773175
     17          1           0        4.391412   -0.038194   -1.378729
     18          6           0       -3.759914    0.597536    0.384558
     19          1           0       -2.557315   -2.514169   -0.138510
     20          1           0       -0.525974   -2.528359   -1.431800
     21          1           0       -4.665467   -1.345208    0.349638
     22          1           0       -2.558102    2.368477    0.406674
     23          1           0       -4.681894    1.115025    0.619767
     24         16           0        0.004008    1.738768   -0.208750
 ---------------------------------------------------------------------
                    Distance matrix (angstroms):
                    1          2          3          4          5
     1  C    0.000000
     2  C    1.398310   0.000000
     3  S    2.731894   1.773640   0.000000
     4  C    2.373347   1.382990   2.798099   0.000000
     5  C    4.654370   3.277793   2.935980   2.906599   0.000000
     6  C    4.582225   3.370168   3.017007   3.203986   1.364796
     7  C    1.370190   2.419749   4.026770   2.753703   5.486490
     8  C    2.745238   2.420447   4.088287   1.394432   4.116972
     9  H    4.418634   3.213858   3.670228   2.370487   2.472095
    10  C    5.583430   4.196490   3.443025   3.972692   1.397381
    11  C    5.512071   4.366710   3.475368   4.485682   2.279394
    12  C    6.308568   5.085451   3.881249   5.247532   2.649167
    13  C    6.360017   5.033263   3.888974   5.053712   2.341688
    14  H    5.928269   4.564015   3.959114   4.231224   2.187704
    15  H    5.889006   4.915470   4.057817   5.142096   3.287781
    16  H    7.151351   6.001451   4.656139   6.273108   3.735302
    17  H    7.227384   5.918812   4.668161   5.977638   3.346738
    18  C    2.392288   2.807333   4.579308   2.401326   5.273636
    19  H    1.083601   2.132465   2.815154   3.349565   5.251146
    20  H    2.702452   2.316749   1.350247   3.554706   4.188203
    21  H    2.130946   3.398176   4.861425   3.837202   6.537989
    22  H    3.830118   3.390828   4.938934   2.141165   4.359212
    23  H    3.374890   3.890457   5.662219   3.386376   6.213441
    24  S    4.091561   2.838195   3.439092   1.796522   1.783258
                    6          7          8          9         10
     6  C    0.000000
     7  C    5.428424   0.000000
     8  C    4.331068   2.380248   0.000000
     9  H    3.625025   4.887582   3.169964   0.000000
    10  C    2.509092   6.518193   5.218511   2.802812   0.000000
    11  C    1.416335   6.519609   5.684451   4.723283   2.773058
    12  C    2.460051   7.411136   6.542780   4.941164   2.383118
    13  C    2.885448   7.429444   6.361324   4.154361   1.367823
    14  H    3.473961   6.785490   5.382045   2.483533   1.086407
    15  H    2.164270   6.876905   6.252850   5.698348   3.860640
    16  H    3.432942   8.306373   7.575188   6.000226   3.362452
    17  H    3.970908   8.329093   7.287638   4.824080   2.136667
    18  C    5.331880   1.389368   1.372238   4.377807   6.372039
    19  H    5.084424   2.132423   3.828459   5.240437   6.067892
    20  H    4.367254   4.022496   4.657912   4.417581   4.498792
    21  H    6.411710   1.083573   3.362113   5.939007   7.558430
    22  H    4.659927   3.372990   1.085470   3.227326   5.439733
    23  H    6.262346   2.151586   2.136239   5.176768   7.327362
    24  S    2.603001   4.541071   2.667245   1.344535   2.741742
                   11         12         13         14         15
    11  C    0.000000
    12  C    1.375293   0.000000
    13  C    2.419540   1.401264   0.000000
    14  H    3.858657   3.382507   2.143202   0.000000
    15  H    1.088901   2.111786   3.386370   4.946464   0.000000
    16  H    2.134129   1.086267   2.149229   4.277779   2.417218
    17  H    3.400691   2.165232   1.085636   2.485802   4.271248
    18  C    6.602589   7.521743   7.438622   6.559423   7.045634
    19  H    5.791913   6.524345   6.669524   6.460415   6.066097
    20  H    4.741604   4.999434   4.905460   4.815119   5.256962
    21  H    7.441111   8.352694   8.424432   7.828255   7.715062
    22  H    6.068792   6.909737   6.655855   5.523277   6.673328
    23  H    7.566714   8.522350   8.433269   7.470822   7.978885
    24  S    3.892909   4.431240   3.989890   2.916495   4.763297
                   16         17         18         19         20
    16  H    0.000000
    17  H    2.479547   0.000000
    18  C    8.502732   8.364057   0.000000
    19  H    7.252338   7.480201   3.376767   0.000000
    20  H    5.657274   5.512207   4.850644   2.408142   0.000000
    21  H    9.203365   9.312497   2.143712   2.459484   4.659267
    22  H    7.970433   7.568056   2.140344   4.912989   5.611464
    23  H    9.512836   9.362093   1.083128   4.273157   5.895324
    24  S    5.516893   4.876039   3.977629   4.965157   4.470470
                   21         22         23         24
    21  H    0.000000
    22  H    4.270327   0.000000
    23  H    2.475073   2.475286   0.000000
    24  S    5.623762   2.709186   4.799289   0.000000
 Stoichiometry    C12H10S2(1+,2)
 Framework group  C1[X(C12H10S2)]
 Deg. of freedom    66
 Full point group                 C1      NOp   1
 Largest Abelian subgroup         C1      NOp   1
 Largest concise Abelian subgroup C1      NOp   1
                         Standard orientation:                         
 ---------------------------------------------------------------------
 Center     Atomic      Atomic             Coordinates (Angstroms)
 Number     Number       Type             X           Y           Z
 ---------------------------------------------------------------------
      1          6           0        2.574063    1.434391   -0.049117
      2          6           0        1.368901    0.745264   -0.216328
      3         16           0       -0.093606    1.678504   -0.585022
      4          6           0        1.397687   -0.626896   -0.046009
      5          6           0       -1.500395   -0.811934    0.077279
      6          6           0       -1.478004   -0.220423    1.307027
      7          6           0        3.746915    0.783096    0.229547
      8          6           0        2.584351   -1.293751    0.256604
      9          1           0        0.039943   -1.860892   -1.547006
     10          6           0       -2.473105   -0.786527   -0.925649
     11          6           0       -2.645316    0.559969    1.492438
     12          6           0       -3.655495    0.649979    0.563531
     13          6           0       -3.583956   -0.035098   -0.656753
     14          1           0       -2.357645   -1.302286   -1.874829
     15          1           0       -2.763398    1.119309    2.419207
     16          1           0       -4.527775    1.262476    0.773175
     17          1           0       -4.391412    0.038194   -1.378729
     18          6           0        3.759914   -0.597536    0.384558
     19          1           0        2.557315    2.514169   -0.138510
     20          1           0        0.525974    2.528359   -1.431800
     21          1           0        4.665467    1.345208    0.349638
     22          1           0        2.558102   -2.368477    0.406674
     23          1           0        4.681894   -1.115025    0.619767
     24         16           0       -0.004008   -1.738768   -0.208750
 ---------------------------------------------------------------------
 Rotational constants (GHZ):           1.2365549           0.3949099           0.3394237
 Leave Link  202 at Mon Jan 25 23:46:26 2021, MaxMem=  4026531840 cpu:               0.3 elap:               0.1
 (Enter /opt/ohpc/pub/libs/gaussian/g16-A.03/sandybridge/g16/l301.exe)
 Standard basis: TZVP (5D, 7F)
 Ernie: Thresh=  0.10000D-02 Tol=  0.10000D-05 Strict=F.
 There are   346 symmetry adapted cartesian basis functions of A   symmetry.
 There are   332 symmetry adapted basis functions of A   symmetry.
   332 basis functions,   594 primitive gaussians,   346 cartesian basis functions
    57 alpha electrons       56 beta electrons
       nuclear repulsion energy      1040.6420683200 Hartrees.
 IExCor=33909 DFT=T Ex+Corr=LC-wHPBE ExCW=0 ScaHFX=  1.000000
 ScaDFX=  1.000000  1.000000  1.000000  1.000000 ScalE2=  1.000000  1.000000
 IRadAn=      5 IRanWt=     -1 IRanGd=            0 ICorTp=0 IEmpDi=  4
 HFx  wShort=  0.000000 wLong=  0.218100 cFull=  0.000000 cShort=  0.000000 cLong=  1.000000
 DFx  wShort=  0.000000 wLong=  0.218100 cFull=  0.000000 cShort=  1.000000 cLong=  0.000000
 NAtoms=   24 NActive=   24 NUniq=   24 SFac= 1.00D+00 NAtFMM=   60 NAOKFM=F Big=F
 Integral buffers will be    131072 words long.
 Raffenetti 2 integral format.
 Two-electron integral symmetry is turned on.
 Leave Link  301 at Mon Jan 25 23:46:26 2021, MaxMem=  4026531840 cpu:               0.5 elap:               0.1
 (Enter /opt/ohpc/pub/libs/gaussian/g16-A.03/sandybridge/g16/l302.exe)
 NPDir=0 NMtPBC=     1 NCelOv=     1 NCel=       1 NClECP=     1 NCelD=      1
         NCelK=      1 NCelE2=     1 NClLst=     1 CellRange=     0.0.
 One-electron integrals computed using PRISM.
 One-electron integral symmetry used in STVInt
 NBasis=   332 RedAO= T EigKep=  8.19D-06  NBF=   332
 NBsUse=   332 1.00D-06 EigRej= -1.00D+00 NBFU=   332
 Precomputing XC quadrature grid using
 IXCGrd= 4 IRadAn=           5 IRanWt=          -1 IRanGd=           0 AccXCQ= 0.00D+00.
 Generated NRdTot=       0 NPtTot=           0 NUsed=           0 NTot=          32
 NSgBfM=   338   338   338   338   338 MxSgAt=    24 MxSgA2=    24.
 Leave Link  302 at Mon Jan 25 23:46:27 2021, MaxMem=  4026531840 cpu:               3.1 elap:               0.4
 (Enter /opt/ohpc/pub/libs/gaussian/g16-A.03/sandybridge/g16/l303.exe)
 DipDrv:  MaxL=1.
 Leave Link  303 at Mon Jan 25 23:46:27 2021, MaxMem=  4026531840 cpu:               0.4 elap:               0.1
 (Enter /opt/ohpc/pub/libs/gaussian/g16-A.03/sandybridge/g16/l401.exe)
 ExpMin= 9.52D-02 ExpMax= 6.07D+04 ExpMxC= 2.07D+03 IAcc=3 IRadAn=         5 AccDes= 0.00D+00
 Harris functional with IExCor=33909 and IRadAn=       5 diagonalized for initial guess.
 HarFok:  IExCor=33909 AccDes= 0.00D+00 IRadAn=         5 IDoV= 1 UseB2=F ITyADJ=14
 ICtDFT=  3500011 ScaDFX=  1.000000  1.000000  1.000000  1.000000
 FoFCou: FMM=F IPFlag=           0 FMFlag=      100000 FMFlg1=           0
         NFxFlg=           0 DoJE=T BraDBF=F KetDBF=T FulRan=T
         wScrn=  0.000000 ICntrl=       500 IOpCl=  0 I1Cent=   200000004 NGrid=           0
         NMat0=    1 NMatS0=      1 NMatT0=    0 NMatD0=    1 NMtDS0=    0 NMtDT0=    0
 Petite list used in FoFCou.
 Harris En= -1245.61016987043    
 JPrj=0 DoOrth=F DoCkMO=F.
 Initial guess <Sx>= 0.0000 <Sy>= 0.0000 <Sz>= 0.5000 <S**2>= 0.7500 S= 0.5000
 Leave Link  401 at Mon Jan 25 23:46:29 2021, MaxMem=  4026531840 cpu:              19.6 elap:               2.5
 (Enter /opt/ohpc/pub/libs/gaussian/g16-A.03/sandybridge/g16/l502.exe)
 Integral symmetry usage will be decided dynamically.
 UHF open shell SCF:
 Using DIIS extrapolation, IDIIS=    10.
 NGot=  4026531840 LenX=  4026286196 LenY=  4026166039
 Requested convergence on RMS density matrix=1.00D-06 within  32 cycles.
 Requested convergence on MAX density matrix=1.00D-04.
 Requested convergence on             energy=1.00D-04.
 Virtual orbitals will be shifted by   0.500 hartree.
 No special actions if energy rises.
 Dynamic level shift is on during FON iterations.

 Cycle   1  Pass 1  IDiag  1:
 FoFJK:  IHMeth= 1 ICntrl=       0 DoSepK=T KAlg= 0 I1Cent=           0 FoldK=F
 IRaf=         1 NMat=       1 IRICut=       1 DoRegI=T DoRafI=F ISym2E= 0 IDoP0=0 IntGTp=1.
 FoFCou: FMM=F IPFlag=           0 FMFlag=      100000 FMFlg1=           0
         NFxFlg=           0 DoJE=T BraDBF=F KetDBF=F FulRan=T
         wScrn=  0.000000 ICntrl=       500 IOpCl=  0 I1Cent=           0 NGrid=           0
         NMat0=    1 NMatS0=      1 NMatT0=    0 NMatD0=    1 NMtDS0=    0 NMtDT0=    0
 Symmetry not used in FoFCou.
 E= -1258.19418716531    
 DIIS: error= 2.91D-02 at cycle   1 NSaved=   1.
 NSaved= 1 IEnMin= 1 EnMin= -1258.19418716531     IErMin= 1 ErrMin= 2.91D-02
 ErrMax= 2.91D-02  0.00D+00 EMaxC= 1.00D+00 BMatC= 1.66D+00 BMatP= 1.66D+00
 IDIUse=1 WtCom= 1.00D+00 WtEn= 0.00D+00
 Coeff-Com:  0.100D+01
 Coeff:      0.100D+01
 Gap=     0.645 Goal=   None    Shift=    0.500
 T= 1478. Gap= 0.471 NK=0 IS=   58 IE=  332 IFin=   57
          NO(<0.9)=   0  NV(>0.1)=   0     57.00e < EF      0.00e >EF  Err=0.0D+00
 Gap=    -0.193 Goal=   None    Shift=    0.500
 T= 1478. Gap= 0.257 NK=0 IS=   57 IE=  332 IFin=   56
          NO(<0.9)=   0  NV(>0.1)=   0     56.00e < EF      0.00e >EF  Err=0.0D+00
 GapD=   -0.193 DampG=0.250 DampE=0.500 DampFc=0.1250 IDamp=-1.
 Damping current iteration by 1.25D-01
 RMSDP=9.48D-03 MaxDP=6.31D-01              OVMax= 1.46D-01

 Cycle   2  Pass 1  IDiag  1:
 E= -1258.28215427517     Delta-E=       -0.087967109868 Rises=F Damp=T
 DIIS: error= 2.57D-02 at cycle   2 NSaved=   2.
 NSaved= 2 IEnMin= 2 EnMin= -1258.28215427517     IErMin= 2 ErrMin= 2.57D-02
 ErrMax= 2.57D-02  0.00D+00 EMaxC= 1.00D+00 BMatC= 1.17D+00 BMatP= 1.66D+00
 IDIUse=1 WtCom= 1.00D+00 WtEn= 0.00D+00
 Coeff-Com: -0.504D+01 0.604D+01
 Coeff:     -0.504D+01 0.604D+01
 Gap=     0.203 Goal=   None    Shift=    0.500
 T= 1454. Gap= 0.671 NK=0 IS=   58 IE=  332 IFin=   57
          NO(<0.9)=   0  NV(>0.1)=   0     57.00e < EF      0.00e >EF  Err=0.0D+00
 Gap=     0.010 Goal=   None    Shift=    0.500
 T= 1454. Gap= 0.504 NK=0 IS=   57 IE=  332 IFin=   56
          NO(<0.9)=   0  NV(>0.1)=   0     56.00e < EF      0.00e >EF  Err=0.0D+00
 GapD=    0.010 DampG=0.250 DampE=0.500 DampFc=0.1250 IDamp=-1.
 Damping current iteration by 1.25D-01
 RMSDP=8.52D-03 MaxDP=5.43D-01 DE=-8.80D-02 OVMax= 4.25D-02

 Cycle   3  Pass 1  IDiag  1:
 E= -1258.35010015583     Delta-E=       -0.067945880652 Rises=F Damp=T
 DIIS: error= 2.24D-02 at cycle   3 NSaved=   3.
 NSaved= 3 IEnMin= 3 EnMin= -1258.35010015583     IErMin= 3 ErrMin= 2.24D-02
 ErrMax= 2.24D-02  0.00D+00 EMaxC= 1.00D+00 BMatC= 8.67D-01 BMatP= 1.17D+00
 IDIUse=1 WtCom= 1.00D+00 WtEn= 0.00D+00
 Coeff-Com:  0.772D+00-0.784D+01 0.807D+01
 Coeff:      0.772D+00-0.784D+01 0.807D+01
 Gap=     0.204 Goal=   None    Shift=    0.500
 T= 1404. Gap= 0.703 NK=0 IS=   58 IE=  332 IFin=   57
          NO(<0.9)=   0  NV(>0.1)=   0     57.00e < EF      0.00e >EF  Err=0.0D+00
 Gap=     0.048 Goal=   None    Shift=    0.500
 T= 1404. Gap= 0.549 NK=0 IS=   57 IE=  332 IFin=   56
          NO(<0.9)=   0  NV(>0.1)=   0     56.00e < EF      0.00e >EF  Err=0.0D+00
 GapD=    0.048 DampG=0.250 DampE=0.500 DampFc=0.1250 IDamp=-1.
 Damping current iteration by 1.25D-01
 RMSDP=6.83D-03 MaxDP=4.12D-01 DE=-6.79D-02 OVMax= 3.63D-02

 Cycle   4  Pass 1  IDiag  1:
 E= -1258.40329921608     Delta-E=       -0.053199060254 Rises=F Damp=T
 DIIS: error= 1.94D-02 at cycle   4 NSaved=   4.
 NSaved= 4 IEnMin= 4 EnMin= -1258.40329921608     IErMin= 4 ErrMin= 1.94D-02
 ErrMax= 1.94D-02  0.00D+00 EMaxC= 1.00D+00 BMatC= 6.55D-01 BMatP= 8.67D-01
 IDIUse=1 WtCom= 1.00D+00 WtEn= 0.00D+00
 Large coefficients: NSaved=  4 BigCof=   13.06 CofMax=   10.00 Det=-1.28D-05
 Inversion failed.  Reducing to  3 matrices.
 Large coefficients: NSaved=  3 BigCof=   13.07 CofMax=   10.00 Det=-1.64D-05
 Inversion failed.  Reducing to  2 matrices.
 Coeff-Com: -0.653D+01 0.753D+01
 Coeff:     -0.653D+01 0.753D+01
 Gap=     0.210 Goal=   None    Shift=    0.500
 T= 1324. Gap= 0.710 NK=0 IS=   58 IE=  332 IFin=   57
          NO(<0.9)=   0  NV(>0.1)=   0     57.00e < EF      0.00e >EF  Err=0.0D+00
 Gap=     0.057 Goal=   None    Shift=    0.500
 T= 1324. Gap= 0.559 NK=0 IS=   57 IE=  332 IFin=   56
          NO(<0.9)=   0  NV(>0.1)=   0     56.00e < EF      0.00e >EF  Err=0.0D+00
 GapD=    0.057 DampG=0.500 DampE=0.500 DampFc=0.2500 IDamp=-1.
 Damping current iteration by 2.50D-01
 RMSDP=5.56D-03 MaxDP=3.40D-01 DE=-5.32D-02 OVMax= 3.85D-02

 Cycle   5  Pass 1  IDiag  1:
 E= -1258.48680160970     Delta-E=       -0.083502393618 Rises=F Damp=T
 DIIS: error= 1.51D-02 at cycle   5 NSaved=   3.
 NSaved= 3 IEnMin= 3 EnMin= -1258.48680160970     IErMin= 3 ErrMin= 1.51D-02
 ErrMax= 1.51D-02  0.00D+00 EMaxC= 1.00D+00 BMatC= 3.62D-01 BMatP= 6.55D-01
 IDIUse=1 WtCom= 1.00D+00 WtEn= 0.00D+00
 Large coefficients: NSaved=  3 BigCof=   17.93 CofMax=   10.00 Det=-7.52D-06
 Inversion failed.  Reducing to  2 matrices.
 Coeff-Com: -0.286D+01 0.386D+01
 Coeff:     -0.286D+01 0.386D+01
 Gap=     0.219 Goal=   None    Shift=    0.500
 T= 1221. Gap= 0.719 NK=0 IS=   58 IE=  332 IFin=   57
          NO(<0.9)=   0  NV(>0.1)=   0     57.00e < EF      0.00e >EF  Err=0.0D+00
 Gap=     0.067 Goal=   None    Shift=    0.500
 T= 1221. Gap= 0.569 NK=0 IS=   57 IE=  332 IFin=   56
          NO(<0.9)=   0  NV(>0.1)=   0     56.00e < EF      0.00e >EF  Err=0.0D+00
 GapD=    0.067 DampG=0.500 DampE=0.500 DampFc=0.2500 IDamp=-1.
 Damping current iteration by 2.50D-01
 RMSDP=3.87D-03 MaxDP=2.43D-01 DE=-8.35D-02 OVMax= 4.11D-02

 Cycle   6  Pass 1  IDiag  1:
 E= -1258.54243169642     Delta-E=       -0.055630086727 Rises=F Damp=T
 DIIS: error= 1.22D-02 at cycle   6 NSaved=   3.
 NSaved= 3 IEnMin= 3 EnMin= -1258.54243169642     IErMin= 3 ErrMin= 1.22D-02
 ErrMax= 1.22D-02  0.00D+00 EMaxC= 1.00D+00 BMatC= 2.01D-01 BMatP= 3.62D-01
 IDIUse=1 WtCom= 1.00D+00 WtEn= 0.00D+00
 Large coefficients: NSaved=  3 BigCof=   15.14 CofMax=   10.00 Det=-1.04D-05
 Inversion failed.  Reducing to  2 matrices.
 Coeff-Com: -0.287D+01 0.387D+01
 Coeff:     -0.287D+01 0.387D+01
 Gap=     0.226 Goal=   None    Shift=    0.500
 T= 1103. Gap= 0.726 NK=0 IS=   58 IE=  332 IFin=   57
          NO(<0.9)=   0  NV(>0.1)=   0     57.00e < EF      0.00e >EF  Err=0.0D+00
 Gap=     0.075 Goal=   None    Shift=    0.500
 T= 1103. Gap= 0.578 NK=0 IS=   57 IE=  332 IFin=   56
          NO(<0.9)=   0  NV(>0.1)=   0     56.00e < EF      0.00e >EF  Err=0.0D+00
 GapD=    0.075 DampG=0.500 DampE=0.500 DampFc=0.2500 IDamp=-1.
 Damping current iteration by 2.50D-01
 RMSDP=2.70D-03 MaxDP=1.69D-01 DE=-5.56D-02 OVMax= 4.39D-02

 Cycle   7  Pass 1  IDiag  1:
 E= -1258.58070838196     Delta-E=       -0.038276685540 Rises=F Damp=T
 DIIS: error= 9.85D-03 at cycle   7 NSaved=   3.
 NSaved= 3 IEnMin= 3 EnMin= -1258.58070838196     IErMin= 3 ErrMin= 9.85D-03
 ErrMax= 9.85D-03  0.00D+00 EMaxC= 1.00D+00 BMatC= 1.12D-01 BMatP= 2.01D-01
 IDIUse=1 WtCom= 1.00D+00 WtEn= 0.00D+00
 Large coefficients: NSaved=  3 BigCof=   15.95 CofMax=   10.00 Det=-4.20D-06
 Inversion failed.  Reducing to  2 matrices.
 Coeff-Com: -0.285D+01 0.385D+01
 Coeff:     -0.285D+01 0.385D+01
 Gap=     0.233 Goal=   None    Shift=    0.500
 T=  965. Gap= 0.733 NK=0 IS=   58 IE=  332 IFin=   57
          NO(<0.9)=   0  NV(>0.1)=   0     57.00e < EF      0.00e >EF  Err=0.0D+00
 Gap=     0.083 Goal=   None    Shift=    0.500
 T=  965. Gap= 0.586 NK=0 IS=   57 IE=  332 IFin=   56
          NO(<0.9)=   0  NV(>0.1)=   0     56.00e < EF      0.00e >EF  Err=0.0D+00
 GapD=    0.083 DampG=0.500 DampE=1.000 DampFc=0.5000 IDamp=-1.
 Damping current iteration by 5.00D-01
 RMSDP=1.90D-03 MaxDP=1.12D-01 DE=-3.83D-02 OVMax= 4.62D-02

 Cycle   8  Pass 1  IDiag  1:
 E= -1258.63324404643     Delta-E=       -0.052535664468 Rises=F Damp=T
 DIIS: error= 9.22D-03 at cycle   8 NSaved=   3.
 NSaved= 3 IEnMin= 3 EnMin= -1258.63324404643     IErMin= 3 ErrMin= 9.22D-03
 ErrMax= 9.22D-03  0.00D+00 EMaxC= 1.00D+00 BMatC= 2.77D-02 BMatP= 1.12D-01
 IDIUse=1 WtCom= 1.00D+00 WtEn= 0.00D+00
 Coeff-Com:  0.534D+01-0.980D+01 0.546D+01
 Coeff:      0.534D+01-0.980D+01 0.546D+01
 Gap=     0.255 Goal=   None    Shift=    0.500
 T=  862. Gap= 0.755 NK=0 IS=   58 IE=  332 IFin=   57
          NO(<0.9)=   0  NV(>0.1)=   0     57.00e < EF      0.00e >EF  Err=0.0D+00
 Gap=     0.097 Goal=   None    Shift=    0.500
 T=  862. Gap= 0.602 NK=0 IS=   57 IE=  332 IFin=   56
          NO(<0.9)=   0  NV(>0.1)=   0     56.00e < EF      0.00e >EF  Err=0.0D+00
 GapD=    0.097 DampG=0.500 DampE=1.000 DampFc=0.5000 IDamp=-1.
 Damping current iteration by 5.00D-01
 RMSDP=1.11D-03 MaxDP=6.39D-02 DE=-5.25D-02 OVMax= 6.48D-02

 Cycle   9  Pass 1  IDiag  1:
 E= -1258.65880926037     Delta-E=       -0.025565213942 Rises=F Damp=T
 DIIS: error= 9.72D-03 at cycle   9 NSaved=   4.
 NSaved= 4 IEnMin= 4 EnMin= -1258.65880926037     IErMin= 3 ErrMin= 9.22D-03
 ErrMax= 9.72D-03  0.00D+00 EMaxC= 1.00D+00 BMatC= 8.22D-03 BMatP= 2.77D-02
 IDIUse=1 WtCom= 1.00D+00 WtEn= 0.00D+00
 Coeff-Com:  0.462D+01-0.784D+01 0.266D+01 0.157D+01
 Coeff:      0.462D+01-0.784D+01 0.266D+01 0.157D+01
 Gap=     0.259 Goal=   None    Shift=    0.500
 T=  812. Gap= 0.759 NK=4 IS=   58 IE=   67 IFin=   57
          NO(<0.9)=   0  NV(>0.1)=   0     57.00e < EF      0.00e >EF  Err=0.0D+00
 Gap=     0.107 Goal=   None    Shift=    0.500
 T=  812. Gap= 0.612 NK=4 IS=   57 IE=   66 IFin=   56
          NO(<0.9)=   0  NV(>0.1)=   0     56.00e < EF      0.00e >EF  Err=0.0D+00
 GapD=    0.107 DampG=1.000 DampE=1.000 DampFc=1.0000 IDamp=-1.
 RMSDP=9.87D-04 MaxDP=6.29D-02 DE=-2.56D-02 OVMax= 6.34D-02

 Cycle  10  Pass 1  IDiag  1:
 E= -1258.68865709872     Delta-E=       -0.029847838345 Rises=F Damp=F
 DIIS: error= 9.95D-03 at cycle  10 NSaved=   5.
 NSaved= 5 IEnMin= 5 EnMin= -1258.68865709872     IErMin= 3 ErrMin= 9.22D-03
 ErrMax= 9.95D-03  0.00D+00 EMaxC= 1.00D+00 BMatC= 2.69D-03 BMatP= 8.22D-03
 IDIUse=1 WtCom= 1.00D+00 WtEn= 0.00D+00
 Coeff-Com:  0.441D+01-0.745D+01 0.249D+01 0.142D+01 0.126D+00
 Coeff:      0.441D+01-0.745D+01 0.249D+01 0.142D+01 0.126D+00
 Gap=     0.261 Goal=   None    Shift=    0.500
 T=  812. Gap= 0.761 NK=4 IS=   58 IE=   67 IFin=   57
          NO(<0.9)=   0  NV(>0.1)=   0     57.00e < EF      0.00e >EF  Err=0.0D+00
 Gap=     0.116 Goal=   None    Shift=    0.500
 T=  812. Gap= 0.620 NK=4 IS=   57 IE=   66 IFin=   56
          NO(<0.9)=   0  NV(>0.1)=   0     56.00e < EF      0.00e >EF  Err=0.0D+00
 GapD=    0.116 DampG=1.000 DampE=1.000 DampFc=1.0000 IDamp=-1.
 RMSDP=3.46D-04 MaxDP=2.29D-02 DE=-2.98D-02 OVMax= 5.26D-02

 Cycle  11  Pass 1  IDiag  1:
 E= -1258.69256036185     Delta-E=       -0.003903263130 Rises=F Damp=F
 DIIS: error= 9.61D-03 at cycle  11 NSaved=   6.
 NSaved= 6 IEnMin= 6 EnMin= -1258.69256036185     IErMin= 3 ErrMin= 9.22D-03
 ErrMax= 9.61D-03  0.00D+00 EMaxC= 1.00D+00 BMatC= 3.09D-03 BMatP= 2.69D-03
 IDIUse=1 WtCom= 1.00D+00 WtEn= 0.00D+00
 Large coefficients: NSaved=  6 BigCof=   12.82 CofMax=   10.00 Det=-1.53D-06
 Inversion failed.  Reducing to  5 matrices.
 Coeff-Com:  0.223D+00 0.152D+01-0.388D+01 0.454D+01-0.140D+01
 Coeff:      0.223D+00 0.152D+01-0.388D+01 0.454D+01-0.140D+01
 Gap=     0.273 Goal=   None    Shift=    0.500
 T=  812. Gap= 0.773 NK=4 IS=   58 IE=   67 IFin=   57
          NO(<0.9)=   0  NV(>0.1)=   0     57.00e < EF      0.00e >EF  Err=0.0D+00
 Gap=     0.127 Goal=   None    Shift=    0.500
 T=  812. Gap= 0.631 NK=4 IS=   57 IE=   66 IFin=   56
          NO(<0.9)=   0  NV(>0.1)=   0     56.00e < EF      0.00e >EF  Err=0.0D+00
 GapD=    0.127 DampG=1.000 DampE=1.000 DampFc=1.0000 IDamp=-1.
 RMSDP=5.45D-04 MaxDP=3.92D-02 DE=-3.90D-03 OVMax= 5.89D-02

 Cycle  12  Pass 1  IDiag  1:
 E= -1258.69717175470     Delta-E=       -0.004611392854 Rises=F Damp=F
 DIIS: error= 9.61D-03 at cycle  12 NSaved=   6.
 NSaved= 6 IEnMin= 6 EnMin= -1258.69717175470     IErMin= 2 ErrMin= 9.22D-03
 ErrMax= 9.61D-03  0.00D+00 EMaxC= 1.00D+00 BMatC= 3.17D-03 BMatP= 2.69D-03
 IDIUse=1 WtCom= 1.00D+00 WtEn= 0.00D+00
 Coeff-Com:  0.910D-01 0.192D+01-0.417D+01 0.482D+01-0.243D+01 0.770D+00
 Coeff:      0.910D-01 0.192D+01-0.417D+01 0.482D+01-0.243D+01 0.770D+00
 Gap=     0.278 Goal=   None    Shift=    0.500
 T=  812. Gap= 0.778 NK=4 IS=   58 IE=   67 IFin=   57
          NO(<0.9)=   0  NV(>0.1)=   0     57.00e < EF      0.00e >EF  Err=0.0D+00
 Gap=     0.134 Goal=   None    Shift=    0.500
 T=  812. Gap= 0.638 NK=4 IS=   57 IE=   66 IFin=   56
          NO(<0.9)=   0  NV(>0.1)=   0     56.00e < EF      0.00e >EF  Err=0.0D+00
 GapD=    0.134 DampG=1.000 DampE=1.000 DampFc=1.0000 IDamp=-1.
 RMSDP=3.86D-04 MaxDP=2.31D-02 DE=-4.61D-03 OVMax= 5.13D-02

 Cycle  13  Pass 1  IDiag  1:
 E= -1258.70099253317     Delta-E=       -0.003820778461 Rises=F Damp=F
 DIIS: error= 9.25D-03 at cycle  13 NSaved=   7.
 NSaved= 7 IEnMin= 7 EnMin= -1258.70099253317     IErMin= 2 ErrMin= 9.22D-03
 ErrMax= 9.25D-03  0.00D+00 EMaxC= 1.00D+00 BMatC= 3.54D-03 BMatP= 2.69D-03
 IDIUse=1 WtCom= 1.00D+00 WtEn= 0.00D+00
 Large coefficients: NSaved=  7 BigCof=   22.12 CofMax=   10.00 Det=-1.34D-06
 Inversion failed.  Reducing to  6 matrices.
 Large coefficients: NSaved=  6 BigCof=   22.14 CofMax=   10.00 Det=-1.49D-06
 Inversion failed.  Reducing to  5 matrices.
 Large coefficients: NSaved=  5 BigCof=   22.28 CofMax=   10.00 Det=-1.50D-06
 Inversion failed.  Reducing to  4 matrices.
 Large coefficients: NSaved=  4 BigCof=   21.47 CofMax=   10.00 Det=-1.51D-06
 Inversion failed.  Reducing to  3 matrices.
 Coeff-Com:  0.671D-01 0.300D+01-0.207D+01
 Coeff:      0.671D-01 0.300D+01-0.207D+01
 Gap=     0.264 Goal=   None    Shift=    0.500
 T=  805. Gap= 0.764 NK=4 IS=   58 IE=   67 IFin=   57
          NO(<0.9)=   0  NV(>0.1)=   0     57.00e < EF      0.00e >EF  Err=0.0D+00
 Gap=     0.134 Goal=   None    Shift=    0.500
 T=  805. Gap= 0.635 NK=4 IS=   57 IE=   66 IFin=   56
          NO(<0.9)=   0  NV(>0.1)=   0     56.00e < EF      0.00e >EF  Err=0.0D+00
 GapD=    0.134 DampG=1.000 DampE=1.000 DampFc=1.0000 IDamp=-1.
 RMSDP=3.52D-04 MaxDP=3.01D-02 DE=-3.82D-03 OVMax= 1.90D-02

 Cycle  14  Pass 1  IDiag  1:
 E= -1258.70141580462     Delta-E=       -0.000423271455 Rises=F Damp=F
 DIIS: error= 8.03D-03 at cycle  14 NSaved=   4.
 NSaved= 4 IEnMin= 4 EnMin= -1258.70141580462     IErMin= 4 ErrMin= 8.03D-03
 ErrMax= 8.03D-03  0.00D+00 EMaxC= 1.00D+00 BMatC= 5.75D-03 BMatP= 3.09D-03
 IDIUse=1 WtCom= 1.00D+00 WtEn= 0.00D+00
 Coeff-Com:  0.202D+01-0.392D+01 0.430D+01-0.140D+01
 Coeff:      0.202D+01-0.392D+01 0.430D+01-0.140D+01
 Gap=     0.284 Goal=   None    Shift=    0.500
 T=  771. Gap= 0.784 NK=4 IS=   58 IE=   67 IFin=   57
          NO(<0.9)=   0  NV(>0.1)=   0     57.00e < EF      0.00e >EF  Err=0.0D+00
 Gap=     0.136 Goal=   None    Shift=    0.500
 T=  771. Gap= 0.638 NK=4 IS=   57 IE=   66 IFin=   56
          NO(<0.9)=   0  NV(>0.1)=   0     56.00e < EF      0.00e >EF  Err=0.0D+00
 GapD=    0.136 DampG=1.000 DampE=1.000 DampFc=1.0000 IDamp=-1.
 RMSDP=5.05D-04 MaxDP=3.92D-02 DE=-4.23D-04 OVMax= 4.00D-02

 Cycle  15  Pass 1  IDiag  1:
 E= -1258.70480766422     Delta-E=       -0.003391859603 Rises=F Damp=F
 DIIS: error= 8.29D-03 at cycle  15 NSaved=   5.
 NSaved= 5 IEnMin= 5 EnMin= -1258.70480766422     IErMin= 4 ErrMin= 8.03D-03
 ErrMax= 8.29D-03  0.00D+00 EMaxC= 1.00D+00 BMatC= 4.82D-03 BMatP= 3.09D-03
 IDIUse=1 WtCom= 1.00D+00 WtEn= 0.00D+00
 Large coefficients: NSaved=  5 BigCof=   24.85 CofMax=   10.00 Det=-6.90D-07
 Inversion failed.  Reducing to  4 matrices.
 Coeff-Com: -0.134D+01 0.330D+01-0.245D+01 0.149D+01
 Coeff:     -0.134D+01 0.330D+01-0.245D+01 0.149D+01
 Gap=     0.313 Goal=   None    Shift=    0.500
 T=  741. Gap= 0.812 NK=4 IS=   58 IE=   66 IFin=   57
          NO(<0.9)=   0  NV(>0.1)=   0     57.00e < EF      0.00e >EF  Err=0.0D+00
 Gap=     0.149 Goal=   None    Shift=    0.500
 T=  741. Gap= 0.654 NK=4 IS=   57 IE=   66 IFin=   56
          NO(<0.9)=   0  NV(>0.1)=   0     56.00e < EF      0.00e >EF  Err=0.0D+00
 GapD=    0.149 DampG=1.000 DampE=1.000 DampFc=1.0000 IDamp=-1.
 RMSDP=8.68D-04 MaxDP=6.41D-02 DE=-3.39D-03 OVMax= 6.13D-02

 Cycle  16  Pass 1  IDiag  1:
 E= -1258.71037371058     Delta-E=       -0.005566046357 Rises=F Damp=F
 DIIS: error= 9.33D-03 at cycle  16 NSaved=   5.
 NSaved= 5 IEnMin= 5 EnMin= -1258.71037371058     IErMin= 3 ErrMin= 8.03D-03
 ErrMax= 9.33D-03  0.00D+00 EMaxC= 1.00D+00 BMatC= 2.79D-03 BMatP= 3.17D-03
 IDIUse=1 WtCom= 1.00D+00 WtEn= 0.00D+00
 Coeff-Com:  0.391D+00-0.211D+01 0.118D+01-0.138D+01 0.292D+01
 Coeff:      0.391D+00-0.211D+01 0.118D+01-0.138D+01 0.292D+01
 Gap=     0.336 Goal=   None    Shift=    0.500
 T=  741. Gap= 0.817 NK=4 IS=   58 IE=   66 IFin=   57
          NO(<0.9)=   0  NV(>0.1)=   0     57.00e < EF      0.00e >EF  Err=0.0D+00
 Gap=     0.158 Goal=   None    Shift=    0.500
 T=  741. Gap= 0.666 NK=4 IS=   57 IE=   66 IFin=   56
          NO(<0.9)=   0  NV(>0.1)=   0     56.00e < EF      0.00e >EF  Err=0.0D+00
 GapD=    0.158 DampG=1.000 DampE=1.000 DampFc=1.0000 IDamp=-1.
 RMSDP=8.82D-04 MaxDP=5.70D-02 DE=-5.57D-03 OVMax= 7.90D-02

 Cycle  17  Pass 1  IDiag  1:
 E= -1258.71657302858     Delta-E=       -0.006199318002 Rises=F Damp=F
 DIIS: error= 1.02D-02 at cycle  17 NSaved=   6.
 NSaved= 6 IEnMin= 6 EnMin= -1258.71657302858     IErMin= 3 ErrMin= 8.03D-03
 ErrMax= 1.02D-02  0.00D+00 EMaxC= 1.00D+00 BMatC= 2.46D-03 BMatP= 2.79D-03
 IDIUse=1 WtCom= 1.00D+00 WtEn= 0.00D+00
 Coeff-Com:  0.645D+00-0.568D+01 0.552D+01-0.293D+01 0.895D+00 0.255D+01
 Coeff:      0.645D+00-0.568D+01 0.552D+01-0.293D+01 0.895D+00 0.255D+01
 Gap=     0.307 Goal=   None    Shift=    0.500
 T=  600. Gap= 0.803 NK=4 IS=   58 IE=   66 IFin=   57
          NO(<0.9)=   0  NV(>0.1)=   0     57.00e < EF      0.00e >EF  Err=0.0D+00
 Gap=     0.179 Goal=   None    Shift=    0.500
 T=  600. Gap= 0.694 NK=4 IS=   57 IE=   65 IFin=   56
          NO(<0.9)=   0  NV(>0.1)=   0     56.00e < EF      0.00e >EF  Err=0.0D+00
 GapD=    0.179 DampG=1.000 DampE=0.500 DampFc=0.5000 IDamp=-1.
 Damping current iteration by 5.00D-01
 RMSDP=1.06D-03 MaxDP=5.68D-02 DE=-6.20D-03 OVMax= 1.03D-01

 Cycle  18  Pass 1  IDiag  1:
 E= -1258.71912731769     Delta-E=       -0.002554289103 Rises=F Damp=T
 DIIS: error= 1.07D-02 at cycle  18 NSaved=   7.
 NSaved= 7 IEnMin= 7 EnMin= -1258.71912731769     IErMin= 3 ErrMin= 8.03D-03
 ErrMax= 1.07D-02  0.00D+00 EMaxC= 1.00D+00 BMatC= 3.35D-03 BMatP= 2.46D-03
 IDIUse=1 WtCom= 1.00D+00 WtEn= 0.00D+00
 Coeff-Com: -0.345D+01 0.101D+01 0.452D+01-0.712D+00-0.241D+01-0.263D+01
 Coeff-Com:  0.468D+01
 Coeff:     -0.345D+01 0.101D+01 0.452D+01-0.712D+00-0.241D+01-0.263D+01
 Coeff:      0.468D+01
 Gap=     0.299 Goal=   None    Shift=    0.500
 T=  450. Gap= 0.799 NK=4 IS=   58 IE=   66 IFin=   57
          NO(<0.9)=   0  NV(>0.1)=   0     57.00e < EF      0.00e >EF  Err=0.0D+00
 Gap=     0.202 Goal=   None    Shift=    0.500
 T=  450. Gap= 0.713 NK=4 IS=   57 IE=   65 IFin=   56
          NO(<0.9)=   0  NV(>0.1)=   0     56.00e < EF      0.00e >EF  Err=0.0D+00
 GapD=    0.202 DampG=1.000 DampE=0.500 DampFc=0.5000 IDamp=-1.
 Damping current iteration by 5.00D-01
 RMSDP=1.13D-03 MaxDP=4.87D-02 DE=-2.55D-03 OVMax= 8.58D-02

 Cycle  19  Pass 1  IDiag  1:
 E= -1258.72236999855     Delta-E=       -0.003242680864 Rises=F Damp=T
 DIIS: error= 1.06D-02 at cycle  19 NSaved=   8.
 NSaved= 8 IEnMin= 8 EnMin= -1258.72236999855     IErMin= 3 ErrMin= 8.03D-03
 ErrMax= 1.06D-02  0.00D+00 EMaxC= 1.00D+00 BMatC= 4.55D-03 BMatP= 2.46D-03
 IDIUse=1 WtCom= 1.00D+00 WtEn= 0.00D+00
 Coeff-Com: -0.280D+01 0.193D+01 0.127D+01 0.133D+00 0.460D-01 0.157D+01
 Coeff-Com: -0.669D+01 0.555D+01
 Coeff:     -0.280D+01 0.193D+01 0.127D+01 0.133D+00 0.460D-01 0.157D+01
 Coeff:     -0.669D+01 0.555D+01
 Gap=     0.302 Goal=   None    Shift=    0.500
 T=  300. Gap= 0.801 NK=4 IS=   58 IE=   66 IFin=   57
          NO(<0.9)=   0  NV(>0.1)=   0     57.00e < EF      0.00e >EF  Err=0.0D+00
 Gap=     0.209 Goal=   None    Shift=    0.500
 T=  300. Gap= 0.716 NK=4 IS=   57 IE=   65 IFin=   56
          NO(<0.9)=   0  NV(>0.1)=   0     56.00e < EF      0.00e >EF  Err=0.0D+00
 GapD=    0.209 DampG=1.000 DampE=0.500 DampFc=0.5000 IDamp=-1.
 Damping current iteration by 5.00D-01
 RMSDP=9.13D-04 MaxDP=4.86D-02 DE=-3.24D-03 OVMax= 6.79D-02

 Cycle  20  Pass 1  IDiag  1:
 E= -1258.72619507346     Delta-E=       -0.003825074908 Rises=F Damp=T
 DIIS: error= 9.88D-03 at cycle  20 NSaved=   9.
 NSaved= 9 IEnMin= 9 EnMin= -1258.72619507346     IErMin= 3 ErrMin= 8.03D-03
 ErrMax= 9.88D-03  0.00D+00 EMaxC= 1.00D+00 BMatC= 4.51D-03 BMatP= 2.46D-03
 IDIUse=1 WtCom= 1.00D+00 WtEn= 0.00D+00
 Large coefficients: NSaved=  9 BigCof=   10.64 CofMax=   10.00 Det=-1.70D-06
 Inversion failed.  Reducing to  8 matrices.
 Coeff-Com: -0.113D+01-0.100D+01 0.645D-01 0.304D+01 0.534D+01-0.957D+01
 Coeff-Com: -0.645D+00 0.492D+01
 Coeff:     -0.113D+01-0.100D+01 0.645D-01 0.304D+01 0.534D+01-0.957D+01
 Coeff:     -0.645D+00 0.492D+01
 Gap=     0.295 Goal=   None    Shift=    0.500
 T=  150. Gap= 0.794 NK=4 IS=   58 IE=   66 IFin=   57
          NO(<0.9)=   0  NV(>0.1)=   0     57.00e < EF      0.00e >EF  Err=0.0D+00
 Gap=     0.221 Goal=   None    Shift=    0.500
 T=  150. Gap= 0.729 NK=4 IS=   57 IE=   65 IFin=   56
          NO(<0.9)=   0  NV(>0.1)=   0     56.00e < EF      0.00e >EF  Err=0.0D+00
 GapD=    0.221 DampG=1.000 DampE=1.000 DampFc=1.0000 IDamp=-1.
 RMSDP=9.10D-04 MaxDP=5.01D-02 DE=-3.83D-03 OVMax= 7.17D-02

 Cycle  21  Pass 1  IDiag  1:
 E= -1258.73535575133     Delta-E=       -0.009160677868 Rises=F Damp=F
 DIIS: error= 7.89D-03 at cycle  21 NSaved=   9.
 NSaved= 9 IEnMin= 9 EnMin= -1258.73535575133     IErMin= 9 ErrMin= 7.89D-03
 ErrMax= 7.89D-03  0.00D+00 EMaxC= 1.00D+00 BMatC= 4.98D-03 BMatP= 2.46D-03
 IDIUse=1 WtCom= 1.00D+00 WtEn= 0.00D+00
 Coeff-Com: -0.159D+01 0.341D+00-0.130D+00 0.184D+01 0.148D+01-0.854D-01
 Coeff-Com: -0.415D+01 0.116D+01 0.213D+01
 Coeff:     -0.159D+01 0.341D+00-0.130D+00 0.184D+01 0.148D+01-0.854D-01
 Coeff:     -0.415D+01 0.116D+01 0.213D+01
 Gap=     0.293 Goal=   None    Shift=    0.500
 Gap=     0.226 Goal=   None    Shift=    0.500
 GapD=    0.226 DampG=1.000 DampE=1.000 DampFc=1.0000 IDamp=-1.
 RMSDP=3.58D-04 MaxDP=2.35D-02 DE=-9.16D-03 OVMax= 5.89D-02

 Cycle  22  Pass 1  IDiag  1:
 E= -1258.73785923812     Delta-E=       -0.002503486797 Rises=F Damp=F
 DIIS: error= 6.50D-03 at cycle  22 NSaved=  10.
 NSaved=10 IEnMin=10 EnMin= -1258.73785923812     IErMin=10 ErrMin= 6.50D-03
 ErrMax= 6.50D-03  0.00D+00 EMaxC= 1.00D+00 BMatC= 4.14D-03 BMatP= 2.46D-03
 IDIUse=1 WtCom= 1.00D+00 WtEn= 0.00D+00
 Coeff-Com: -0.120D+01 0.127D+01-0.792D+00 0.733D+00 0.908D-02 0.306D+01
 Coeff-Com: -0.365D+01-0.427D+00-0.170D+00 0.218D+01
 Coeff:     -0.120D+01 0.127D+01-0.792D+00 0.733D+00 0.908D-02 0.306D+01
 Coeff:     -0.365D+01-0.427D+00-0.170D+00 0.218D+01
 Gap=     0.302 Goal=   None    Shift=    0.500
 Gap=     0.211 Goal=   None    Shift=    0.500
 GapD=    0.211 DampG=1.000 DampE=1.000 DampFc=1.0000 IDamp=-1.
 RMSDP=3.59D-04 MaxDP=2.03D-02 DE=-2.50D-03 OVMax= 4.20D-02

 Cycle  23  Pass 1  IDiag  1:
 E= -1258.74009236566     Delta-E=       -0.002233127537 Rises=F Damp=F
 DIIS: error= 5.00D-03 at cycle  23 NSaved=  11.
 NSaved=11 IEnMin=11 EnMin= -1258.74009236566     IErMin=11 ErrMin= 5.00D-03
 ErrMax= 5.00D-03  0.00D+00 EMaxC= 1.00D+00 BMatC= 1.31D-03 BMatP= 2.46D-03
 IDIUse=1 WtCom= 1.00D+00 WtEn= 0.00D+00
 Coeff-Com: -0.637D+00 0.121D+01-0.703D+00-0.688D+00-0.121D+01 0.485D+01
 Coeff-Com: -0.235D+01-0.122D+01-0.671D+00 0.258D+00 0.216D+01
 Coeff:     -0.637D+00 0.121D+01-0.703D+00-0.688D+00-0.121D+01 0.485D+01
 Coeff:     -0.235D+01-0.122D+01-0.671D+00 0.258D+00 0.216D+01
 Gap=     0.296 Goal=   None    Shift=    0.500
 Gap=     0.225 Goal=   None    Shift=    0.500
 GapD=    0.225 DampG=1.000 DampE=1.000 DampFc=1.0000 IDamp=-1.
 RMSDP=3.55D-04 MaxDP=2.10D-02 DE=-2.23D-03 OVMax= 4.93D-02

 Cycle  24  Pass 1  IDiag  1:
 E= -1258.74137840243     Delta-E=       -0.001286036773 Rises=F Damp=F
 DIIS: error= 3.89D-03 at cycle  24 NSaved=  12.
 NSaved=12 IEnMin=12 EnMin= -1258.74137840243     IErMin=12 ErrMin= 3.89D-03
 ErrMax= 3.89D-03  0.00D+00 EMaxC= 1.00D+00 BMatC= 1.50D-03 BMatP= 1.31D-03
 IDIUse=1 WtCom= 1.00D+00 WtEn= 0.00D+00
 Coeff-Com: -0.418D+00 0.342D+00-0.541D+00 0.697D+00 0.369D+00-0.977D+00
 Coeff-Com:  0.410D+00 0.314D+00-0.167D+00-0.148D+01 0.577D+00 0.187D+01
 Coeff:     -0.418D+00 0.342D+00-0.541D+00 0.697D+00 0.369D+00-0.977D+00
 Coeff:      0.410D+00 0.314D+00-0.167D+00-0.148D+01 0.577D+00 0.187D+01
 Gap=     0.295 Goal=   None    Shift=    0.500
 Gap=     0.228 Goal=   None    Shift=    0.500
 GapD=    0.228 DampG=1.000 DampE=1.000 DampFc=1.0000 IDamp=-1.
 RMSDP=2.45D-04 MaxDP=1.27D-02 DE=-1.29D-03 OVMax= 3.48D-02

 Cycle  25  Pass 1  IDiag  1:
 E= -1258.74215956040     Delta-E=       -0.000781157972 Rises=F Damp=F
 DIIS: error= 2.98D-03 at cycle  25 NSaved=  13.
 NSaved=13 IEnMin=13 EnMin= -1258.74215956040     IErMin=13 ErrMin= 2.98D-03
 ErrMax= 2.98D-03  0.00D+00 EMaxC= 1.00D+00 BMatC= 1.29D-03 BMatP= 1.31D-03
 IDIUse=1 WtCom= 1.00D+00 WtEn= 0.00D+00
 Coeff-Com: -0.239D+00-0.553D+00-0.642D-01 0.140D+01 0.120D+01-0.300D+01
 Coeff-Com:  0.674D+00 0.102D+01 0.401D+00-0.180D+01 0.134D+00-0.280D+00
 Coeff-Com:  0.211D+01
 Coeff:     -0.239D+00-0.553D+00-0.642D-01 0.140D+01 0.120D+01-0.300D+01
 Coeff:      0.674D+00 0.102D+01 0.401D+00-0.180D+01 0.134D+00-0.280D+00
 Coeff:      0.211D+01
 Gap=     0.298 Goal=   None    Shift=    0.500
 Gap=     0.223 Goal=   None    Shift=    0.500
 GapD=    0.223 DampG=1.000 DampE=1.000 DampFc=1.0000 IDamp=-1.
 RMSDP=1.83D-04 MaxDP=7.68D-03 DE=-7.81D-04 OVMax= 2.27D-02

 Cycle  26  Pass 1  IDiag  1:
 E= -1258.74274354985     Delta-E=       -0.000583989446 Rises=F Damp=F
 DIIS: error= 2.29D-03 at cycle  26 NSaved=  14.
 NSaved=14 IEnMin=14 EnMin= -1258.74274354985     IErMin=14 ErrMin= 2.29D-03
 ErrMax= 2.29D-03  0.00D+00 EMaxC= 1.00D+00 BMatC= 6.46D-04 BMatP= 1.29D-03
 IDIUse=1 WtCom= 1.00D+00 WtEn= 0.00D+00
 Coeff-Com: -0.148D+00-0.442D+00 0.284D+00 0.456D+00 0.292D+00 0.128D+00
 Coeff-Com: -0.802D+00 0.103D+00 0.452D+00-0.291D+00-0.114D+00-0.112D+01
 Coeff-Com:  0.756D-01 0.212D+01
 Coeff:     -0.148D+00-0.442D+00 0.284D+00 0.456D+00 0.292D+00 0.128D+00
 Coeff:     -0.802D+00 0.103D+00 0.452D+00-0.291D+00-0.114D+00-0.112D+01
 Coeff:      0.756D-01 0.212D+01
 Gap=     0.301 Goal=   None    Shift=    0.500
 Gap=     0.217 Goal=   None    Shift=    0.500
 GapD=    0.217 DampG=1.000 DampE=1.000 DampFc=1.0000 IDamp=-1.
 RMSDP=1.60D-04 MaxDP=5.52D-03 DE=-5.84D-04 OVMax= 1.81D-02

 Cycle  27  Pass 1  IDiag  1:
 E= -1258.74314398535     Delta-E=       -0.000400435504 Rises=F Damp=F
 DIIS: error= 1.74D-03 at cycle  27 NSaved=  15.
 NSaved=15 IEnMin=15 EnMin= -1258.74314398535     IErMin=15 ErrMin= 1.74D-03
 ErrMax= 1.74D-03  0.00D+00 EMaxC= 1.00D+00 BMatC= 1.90D-04 BMatP= 6.46D-04
 IDIUse=1 WtCom= 1.00D+00 WtEn= 0.00D+00
 Coeff-Com: -0.298D+00 0.167D+00 0.368D-01-0.314D-01-0.142D+00 0.101D+01
 Coeff-Com: -0.761D+00-0.316D+00 0.267D+00 0.722D+00-0.997D+00 0.367D+00
 Coeff-Com: -0.957D+00-0.645D+00 0.258D+01
 Coeff:     -0.298D+00 0.167D+00 0.368D-01-0.314D-01-0.142D+00 0.101D+01
 Coeff:     -0.761D+00-0.316D+00 0.267D+00 0.722D+00-0.997D+00 0.367D+00
 Coeff:     -0.957D+00-0.645D+00 0.258D+01
 Gap=     0.298 Goal=   None    Shift=    0.500
 Gap=     0.224 Goal=   None    Shift=    0.500
 GapD=    0.224 DampG=1.000 DampE=1.000 DampFc=1.0000 IDamp=-1.
 RMSDP=1.13D-04 MaxDP=4.25D-03 DE=-4.00D-04 OVMax= 1.89D-02

 Cycle  28  Pass 1  IDiag  1:
 E= -1258.74332463242     Delta-E=       -0.000180647060 Rises=F Damp=F
 DIIS: error= 1.28D-03 at cycle  28 NSaved=  16.
 NSaved=16 IEnMin=16 EnMin= -1258.74332463242     IErMin=16 ErrMin= 1.28D-03
 ErrMax= 1.28D-03  0.00D+00 EMaxC= 1.00D+00 BMatC= 2.29D-04 BMatP= 1.90D-04
 IDIUse=1 WtCom= 1.00D+00 WtEn= 0.00D+00
 Coeff-Com: -0.160D+00 0.180D+00-0.876D-01-0.414D-01 0.468D-02 0.609D+00
 Coeff-Com: -0.534D+00-0.154D+00 0.779D-02 0.575D+00-0.354D+00 0.962D-01
 Coeff-Com: -0.749D+00-0.743D+00 0.926D+00 0.142D+01
 Coeff:     -0.160D+00 0.180D+00-0.876D-01-0.414D-01 0.468D-02 0.609D+00
 Coeff:     -0.534D+00-0.154D+00 0.779D-02 0.575D+00-0.354D+00 0.962D-01
 Coeff:     -0.749D+00-0.743D+00 0.926D+00 0.142D+01
 Gap=     0.300 Goal=   None    Shift=    0.500
 Gap=     0.220 Goal=   None    Shift=    0.500
 GapD=    0.220 DampG=1.000 DampE=1.000 DampFc=1.0000 IDamp=-1.
 RMSDP=8.29D-05 MaxDP=3.19D-03 DE=-1.81D-04 OVMax= 1.30D-02

 Cycle  29  Pass 1  IDiag  1:
 E= -1258.74346476791     Delta-E=       -0.000140135494 Rises=F Damp=F
 DIIS: error= 9.31D-04 at cycle  29 NSaved=  17.
 NSaved=17 IEnMin=17 EnMin= -1258.74346476791     IErMin=17 ErrMin= 9.31D-04
 ErrMax= 9.31D-04  0.00D+00 EMaxC= 1.00D+00 BMatC= 1.06D-04 BMatP= 1.90D-04
 IDIUse=1 WtCom= 1.00D+00 WtEn= 0.00D+00
 Coeff-Com: -0.827D-01 0.286D-01-0.102D+00 0.154D+00 0.688D-01 0.845D-01
 Coeff-Com: -0.238D+00 0.449D-01 0.857D-01-0.123D+00 0.180D+00 0.226D-01
 Coeff-Com: -0.112D+00-0.191D+00-0.606D+00-0.554D+00 0.234D+01
 Coeff:     -0.827D-01 0.286D-01-0.102D+00 0.154D+00 0.688D-01 0.845D-01
 Coeff:     -0.238D+00 0.449D-01 0.857D-01-0.123D+00 0.180D+00 0.226D-01
 Coeff:     -0.112D+00-0.191D+00-0.606D+00-0.554D+00 0.234D+01
 Gap=     0.300 Goal=   None    Shift=    0.500
 Gap=     0.219 Goal=   None    Shift=    0.500
 RMSDP=5.43D-05 MaxDP=2.24D-03 DE=-1.40D-04 OVMax= 9.60D-03

 Cycle  30  Pass 1  IDiag  1:
 E= -1258.74353804000     Delta-E=       -0.000073272092 Rises=F Damp=F
 DIIS: error= 6.82D-04 at cycle  30 NSaved=  18.
 NSaved=18 IEnMin=18 EnMin= -1258.74353804000     IErMin=18 ErrMin= 6.82D-04
 ErrMax= 6.82D-04  0.00D+00 EMaxC= 1.00D+00 BMatC= 5.65D-05 BMatP= 1.06D-04
 IDIUse=1 WtCom= 1.00D+00 WtEn= 0.00D+00
 Coeff-Com: -0.102D+00-0.235D-01-0.766D-02 0.149D+00 0.656D-01-0.610D-01
 Coeff-Com: -0.863D-01 0.545D-01 0.158D+00-0.298D+00 0.195D-01 0.184D+00
 Coeff-Com:  0.130D+00 0.174D+00-0.268D+00-0.147D+01 0.167D+00 0.221D+01
 Coeff:     -0.102D+00-0.235D-01-0.766D-02 0.149D+00 0.656D-01-0.610D-01
 Coeff:     -0.863D-01 0.545D-01 0.158D+00-0.298D+00 0.195D-01 0.184D+00
 Coeff:      0.130D+00 0.174D+00-0.268D+00-0.147D+01 0.167D+00 0.221D+01
 Gap=     0.300 Goal=   None    Shift=    0.500
 Gap=     0.220 Goal=   None    Shift=    0.500
 RMSDP=3.66D-05 MaxDP=1.60D-03 DE=-7.33D-05 OVMax= 7.23D-03

 Cycle  31  Pass 1  IDiag  1:
 E= -1258.74357184526     Delta-E=       -0.000033805255 Rises=F Damp=F
 DIIS: error= 5.01D-04 at cycle  31 NSaved=  19.
 NSaved=19 IEnMin=19 EnMin= -1258.74357184526     IErMin=19 ErrMin= 5.01D-04
 ErrMax= 5.01D-04  0.00D+00 EMaxC= 1.00D+00 BMatC= 5.07D-05 BMatP= 5.65D-05
 IDIUse=1 WtCom= 1.00D+00 WtEn= 0.00D+00
 Coeff-Com: -0.715D-01-0.954D-02 0.327D-01 0.243D-01 0.688D-01 0.270D-01
 Coeff-Com: -0.606D-01-0.248D-01 0.574D-01-0.835D-01-0.124D+00 0.201D+00
 Coeff-Com: -0.449D-01 0.958D-01 0.475D+00-0.917D+00-0.892D+00 0.398D+00
 Coeff-Com:  0.185D+01
 Coeff:     -0.715D-01-0.954D-02 0.327D-01 0.243D-01 0.688D-01 0.270D-01
 Coeff:     -0.606D-01-0.248D-01 0.574D-01-0.835D-01-0.124D+00 0.201D+00
 Coeff:     -0.449D-01 0.958D-01 0.475D+00-0.917D+00-0.892D+00 0.398D+00
 Coeff:      0.185D+01
 Gap=     0.300 Goal=   None    Shift=    0.500
 Gap=     0.218 Goal=   None    Shift=    0.500
 RMSDP=3.26D-05 MaxDP=1.22D-03 DE=-3.38D-05 OVMax= 5.04D-03

 Cycle  32  Pass 1  IDiag  1:
 E= -1258.74359913635     Delta-E=       -0.000027291091 Rises=F Damp=F
 DIIS: error= 3.73D-04 at cycle  32 NSaved=  20.
 NSaved=20 IEnMin=20 EnMin= -1258.74359913635     IErMin=20 ErrMin= 3.73D-04
 ErrMax= 3.73D-04  0.00D+00 EMaxC= 1.00D+00 BMatC= 2.16D-05 BMatP= 5.07D-05
 IDIUse=1 WtCom= 1.00D+00 WtEn= 0.00D+00
 Coeff-Com: -0.550D-01 0.318D-01-0.234D-02 0.515D-02 0.475D-02 0.932D-01
 Coeff-Com: -0.499D-01-0.711D-01 0.299D-01 0.971D-01-0.206D+00 0.184D+00
 Coeff-Com: -0.188D+00-0.180D+00 0.488D+00 0.352D+00-0.385D+00-0.946D+00
 Coeff-Com: -0.959D+00 0.276D+01
 Coeff:     -0.550D-01 0.318D-01-0.234D-02 0.515D-02 0.475D-02 0.932D-01
 Coeff:     -0.499D-01-0.711D-01 0.299D-01 0.971D-01-0.206D+00 0.184D+00
 Coeff:     -0.188D+00-0.180D+00 0.488D+00 0.352D+00-0.385D+00-0.946D+00
 Coeff:     -0.959D+00 0.276D+01
 Gap=     0.300 Goal=   None    Shift=    0.500
 Gap=     0.218 Goal=   None    Shift=    0.500
 RMSDP=2.35D-05 MaxDP=9.95D-04 DE=-2.73D-05 OVMax= 4.28D-03

 >>>>>>>>>> Convergence criterion not met.
 SCF Done:  E(ULC-wHPBE) =  -1258.74359914     A.U. after   33 cycles
            NFock= 32  Conv=0.23D-04     -V/T= 2.0034
 <Sx>= 0.0000 <Sy>= 0.0000 <Sz>= 0.5000 <S**2>= 0.7620 S= 0.5060
 <L.S>= 0.000000000000E+00
 KE= 1.254500266828D+03 PE=-5.029229771452D+03 EE= 1.475343837167D+03
 Annihilation of the first spin contaminant:
 S**2 before annihilation     0.7620,   after     0.7501
 Leave Link  502 at Mon Jan 25 23:53:48 2021, MaxMem=  4026531840 cpu:            3505.3 elap:             438.7
 (Enter /opt/ohpc/pub/libs/gaussian/g16-A.03/sandybridge/g16/l508.exe)
 Integral symmetry usage will be decided dynamically.
 Tight linear equation convergence will be used.
 ULC-wHPBE wavefunction.
 Quadratic Convergence SCF Method.
 Line search only if initial step raises energy.
 FoFJK:  IHMeth= 1 ICntrl=       0 DoSepK=T KAlg= 0 I1Cent=           0 FoldK=F
 IRaf=         1 NMat=       1 IRICut=       1 DoRegI=T DoRafI=F ISym2E= 1 IDoP0=0 IntGTp=1.
 FoFCou: FMM=F IPFlag=           0 FMFlag=      100000 FMFlg1=           0
         NFxFlg=           0 DoJE=T BraDBF=F KetDBF=F FulRan=T
         wScrn=  0.000000 ICntrl=       500 IOpCl=  0 I1Cent=           0 NGrid=           0
         NMat0=    1 NMatS0=      1 NMatT0=    0 NMatD0=    1 NMtDS0=    0 NMtDT0=    0
 Petite list used in FoFCou.
 Iteration   1 EE= -1258.74361286166                                    Grad=2.589D-03 Max rot=    0.0491 deg.
 QCNR:  CnvC1=2.59D-08 CnvC2=2.59D-07
 LinEq1:  Iter=  0 NonCon=     1 RMS=3.16D-05 Max=3.93D-03 NDo=     1
 AX will form     1 AO Fock derivatives at one time.
 LinEq1:  Iter=  1 NonCon=     1 RMS=2.58D-05 Max=2.54D-03 NDo=     1
 LinEq1:  Iter=  2 NonCon=     1 RMS=1.05D-05 Max=3.52D-04 NDo=     1
 LinEq1:  Iter=  3 NonCon=     1 RMS=5.32D-06 Max=2.29D-04 NDo=     1
 LinEq1:  Iter=  4 NonCon=     1 RMS=3.15D-06 Max=1.04D-04 NDo=     1
 LinEq1:  Iter=  5 NonCon=     1 RMS=2.03D-06 Max=8.32D-05 NDo=     1
 LinEq1:  Iter=  6 NonCon=     1 RMS=1.09D-06 Max=4.54D-05 NDo=     1
 LinEq1:  Iter=  7 NonCon=     1 RMS=6.22D-07 Max=2.44D-05 NDo=     1
 LinEq1:  Iter=  8 NonCon=     1 RMS=3.18D-07 Max=1.80D-05 NDo=     1
 LinEq1:  Iter=  9 NonCon=     1 RMS=1.54D-07 Max=9.36D-06 NDo=     1
 LinEq1:  Iter= 10 NonCon=     1 RMS=8.30D-08 Max=4.01D-06 NDo=     1
 LinEq1:  Iter= 11 NonCon=     1 RMS=4.11D-08 Max=2.25D-06 NDo=     1
 LinEq1:  Iter= 12 NonCon=     1 RMS=2.42D-08 Max=9.26D-07 NDo=     1
 LinEq1:  Iter= 13 NonCon=     1 RMS=1.35D-08 Max=3.73D-07 NDo=     1
 LinEq1:  Iter= 14 NonCon=     1 RMS=5.71D-09 Max=2.68D-07 NDo=     1
 LinEq1:  Iter= 15 NonCon=     0 RMS=3.04D-09 Max=1.57D-07 NDo=     1
 Linear equations converged to 2.589D-08 2.589D-07 after    15 iterations.
 Angle between quadratic step and gradient=  60.06 degrees.
     ILin= 1 X=0.000D+00 Y=-1.258743612862D+03 DE= 0.00D+00 F= -3.28D-05
     ILin= 2 X=1.000D+00 Y=-1.258743629439D+03 DE=-1.66D-05
 Iteration   2 EE= -1258.74362943885     Delta-E=       -0.000016577188 Grad=5.086D-05 Max rot=    0.0009 deg.
 Rotation gradient small -- convergence achieved.
 SCF Done:  E(ULC-wHPBE) =  -1258.74362944     a.u. after    2 cycles
            Convg  =    0.5086D-04                    17 Fock formations.
              S**2 =  0.7609                  -V/T =  2.0034
 <Sx>= 0.0000 <Sy>= 0.0000 <Sz>= 0.5000 <S**2>= 0.7609 S= 0.5054
 <L.S>= 0.000000000000E+00
 Annihilation of the first spin contaminant:
 S**2 before annihilation     0.7609,   after     0.7501
 Leave Link  508 at Mon Jan 25 23:57:34 2021, MaxMem=  4026531840 cpu:            1804.9 elap:             226.2
 (Enter /opt/ohpc/pub/libs/gaussian/g16-A.03/sandybridge/g16/l601.exe)
 Copying SCF densities to generalized density rwf, IOpCl= 1 IROHF=0.

 **********************************************************************

            Population analysis using the SCF density.

 **********************************************************************

 Orbital symmetries:
 Alpha Orbitals:
       Occupied  (A) (A) (A) (A) (A) (A) (A) (A) (A) (A) (A) (A)
                 (A) (A) (A) (A) (A) (A) (A) (A) (A) (A) (A) (A)
                 (A) (A) (A) (A) (A) (A) (A) (A) (A) (A) (A) (A)
                 (A) (A) (A) (A) (A) (A) (A) (A) (A) (A) (A) (A)
                 (A) (A) (A) (A) (A) (A) (A) (A) (A)
       Virtual   (A) (A) (A) (A) (A) (A) (A) (A) (A) (A) (A) (A)
                 (A) (A) (A) (A) (A) (A) (A) (A) (A) (A) (A) (A)
                 (A) (A) (A) (A) (A) (A) (A) (A) (A) (A) (A) (A)
                 (A) (A) (A) (A) (A) (A) (A) (A) (A) (A) (A) (A)
                 (A) (A) (A) (A) (A) (A) (A) (A) (A) (A) (A) (A)
                 (A) (A) (A) (A) (A) (A) (A) (A) (A) (A) (A) (A)
                 (A) (A) (A) (A) (A) (A) (A) (A) (A) (A) (A) (A)
                 (A) (A) (A) (A) (A) (A) (A) (A) (A) (A) (A) (A)
                 (A) (A) (A) (A) (A) (A) (A) (A) (A) (A) (A) (A)
                 (A) (A) (A) (A) (A) (A) (A) (A) (A) (A) (A) (A)
                 (A) (A) (A) (A) (A) (A) (A) (A) (A) (A) (A) (A)
                 (A) (A) (A) (A) (A) (A) (A) (A) (A) (A) (A) (A)
                 (A) (A) (A) (A) (A) (A) (A) (A) (A) (A) (A) (A)
                 (A) (A) (A) (A) (A) (A) (A) (A) (A) (A) (A) (A)
                 (A) (A) (A) (A) (A) (A) (A) (A) (A) (A) (A) (A)
                 (A) (A) (A) (A) (A) (A) (A) (A) (A) (A) (A) (A)
                 (A) (A) (A) (A) (A) (A) (A) (A) (A) (A) (A) (A)
                 (A) (A) (A) (A) (A) (A) (A) (A) (A) (A) (A) (A)
                 (A) (A) (A) (A) (A) (A) (A) (A) (A) (A) (A) (A)
                 (A) (A) (A) (A) (A) (A) (A) (A) (A) (A) (A) (A)
                 (A) (A) (A) (A) (A) (A) (A) (A) (A) (A) (A) (A)
                 (A) (A) (A) (A) (A) (A) (A) (A) (A) (A) (A) (A)
                 (A) (A) (A) (A) (A) (A) (A) (A) (A) (A) (A)
 Beta  Orbitals:
       Occupied  (A) (A) (A) (A) (A) (A) (A) (A) (A) (A) (A) (A)
                 (A) (A) (A) (A) (A) (A) (A) (A) (A) (A) (A) (A)
                 (A) (A) (A) (A) (A) (A) (A) (A) (A) (A) (A) (A)
                 (A) (A) (A) (A) (A) (A) (A) (A) (A) (A) (A) (A)
                 (A) (A) (A) (A) (A) (A) (A) (A)
       Virtual   (A) (A) (A) (A) (A) (A) (A) (A) (A) (A) (A) (A)
                 (A) (A) (A) (A) (A) (A) (A) (A) (A) (A) (A) (A)
                 (A) (A) (A) (A) (A) (A) (A) (A) (A) (A) (A) (A)
                 (A) (A) (A) (A) (A) (A) (A) (A) (A) (A) (A) (A)
                 (A) (A) (A) (A) (A) (A) (A) (A) (A) (A) (A) (A)
                 (A) (A) (A) (A) (A) (A) (A) (A) (A) (A) (A) (A)
                 (A) (A) (A) (A) (A) (A) (A) (A) (A) (A) (A) (A)
                 (A) (A) (A) (A) (A) (A) (A) (A) (A) (A) (A) (A)
                 (A) (A) (A) (A) (A) (A) (A) (A) (A) (A) (A) (A)
                 (A) (A) (A) (A) (A) (A) (A) (A) (A) (A) (A) (A)
                 (A) (A) (A) (A) (A) (A) (A) (A) (A) (A) (A) (A)
                 (A) (A) (A) (A) (A) (A) (A) (A) (A) (A) (A) (A)
                 (A) (A) (A) (A) (A) (A) (A) (A) (A) (A) (A) (A)
                 (A) (A) (A) (A) (A) (A) (A) (A) (A) (A) (A) (A)
                 (A) (A) (A) (A) (A) (A) (A) (A) (A) (A) (A) (A)
                 (A) (A) (A) (A) (A) (A) (A) (A) (A) (A) (A) (A)
                 (A) (A) (A) (A) (A) (A) (A) (A) (A) (A) (A) (A)
                 (A) (A) (A) (A) (A) (A) (A) (A) (A) (A) (A) (A)
                 (A) (A) (A) (A) (A) (A) (A) (A) (A) (A) (A) (A)
                 (A) (A) (A) (A) (A) (A) (A) (A) (A) (A) (A) (A)
                 (A) (A) (A) (A) (A) (A) (A) (A) (A) (A) (A) (A)
                 (A) (A) (A) (A) (A) (A) (A) (A) (A) (A) (A) (A)
                 (A) (A) (A) (A) (A) (A) (A) (A) (A) (A) (A) (A)
 The electronic state is 2-A.
 Alpha  occ. eigenvalues --  -88.47554 -88.35327 -10.22759 -10.21808 -10.21561
 Alpha  occ. eigenvalues --  -10.20784 -10.18182 -10.17132 -10.17096 -10.16493
 Alpha  occ. eigenvalues --  -10.16412 -10.15707 -10.15476 -10.15279  -8.06598
 Alpha  occ. eigenvalues --   -7.94642  -6.08500  -6.08443  -6.07714  -5.96823
 Alpha  occ. eigenvalues --   -5.96330  -5.95556  -1.12457  -1.08273  -1.04940
 Alpha  occ. eigenvalues --   -0.99665  -0.97389  -0.97112  -0.93732  -0.90940
 Alpha  occ. eigenvalues --   -0.83932  -0.82875  -0.82520  -0.79767  -0.75392
 Alpha  occ. eigenvalues --   -0.73908  -0.70680  -0.69161  -0.68510  -0.67416
 Alpha  occ. eigenvalues --   -0.65650  -0.65120  -0.64081  -0.63094  -0.62184
 Alpha  occ. eigenvalues --   -0.61107  -0.59097  -0.58534  -0.56430  -0.56105
 Alpha  occ. eigenvalues --   -0.54380  -0.51706  -0.50603  -0.49690  -0.49062
 Alpha  occ. eigenvalues --   -0.47930  -0.43670
 Alpha virt. eigenvalues --   -0.13589  -0.13244  -0.11682  -0.10269  -0.09215
 Alpha virt. eigenvalues --   -0.07436  -0.05359  -0.04014  -0.00803   0.00494
 Alpha virt. eigenvalues --    0.01421   0.02770   0.03023   0.04226   0.04706
 Alpha virt. eigenvalues --    0.05494   0.06099   0.06215   0.07497   0.07961
 Alpha virt. eigenvalues --    0.08731   0.09363   0.10087   0.10590   0.12853
 Alpha virt. eigenvalues --    0.13073   0.14224   0.15191   0.15730   0.15842
 Alpha virt. eigenvalues --    0.16599   0.16909   0.17264   0.17659   0.17918
 Alpha virt. eigenvalues --    0.18376   0.19179   0.19707   0.20082   0.21078
 Alpha virt. eigenvalues --    0.21411   0.22187   0.23385   0.23835   0.24538
 Alpha virt. eigenvalues --    0.25850   0.27163   0.27269   0.28379   0.28409
 Alpha virt. eigenvalues --    0.29167   0.29483   0.30457   0.30925   0.31997
 Alpha virt. eigenvalues --    0.32536   0.32878   0.33326   0.34742   0.35221
 Alpha virt. eigenvalues --    0.36438   0.36667   0.37184   0.37992   0.38169
 Alpha virt. eigenvalues --    0.38346   0.39508   0.40005   0.40609   0.41543
 Alpha virt. eigenvalues --    0.42163   0.42457   0.42948   0.43507   0.44333
 Alpha virt. eigenvalues --    0.45235   0.46101   0.47431   0.48107   0.49324
 Alpha virt. eigenvalues --    0.50529   0.52024   0.54480   0.55775   0.57316
 Alpha virt. eigenvalues --    0.58314   0.59131   0.60174   0.61416   0.61966
 Alpha virt. eigenvalues --    0.63236   0.65058   0.65712   0.67155   0.69311
 Alpha virt. eigenvalues --    0.70552   0.74629   0.76325   0.76591   0.77794
 Alpha virt. eigenvalues --    0.80154   0.80587   0.82403   0.84298   0.85341
 Alpha virt. eigenvalues --    0.93483   0.95575   1.06080   1.10059   1.10491
 Alpha virt. eigenvalues --    1.12230   1.13251   1.13840   1.14370   1.15730
 Alpha virt. eigenvalues --    1.16271   1.17115   1.18253   1.18774   1.19927
 Alpha virt. eigenvalues --    1.20463   1.21142   1.21802   1.22543   1.24404
 Alpha virt. eigenvalues --    1.25498   1.26706   1.28527   1.30049   1.30453
 Alpha virt. eigenvalues --    1.31784   1.33100   1.33539   1.33902   1.34348
 Alpha virt. eigenvalues --    1.35027   1.35695   1.35959   1.36055   1.37551
 Alpha virt. eigenvalues --    1.37738   1.39267   1.39988   1.40825   1.41528
 Alpha virt. eigenvalues --    1.42247   1.42910   1.43798   1.44451   1.45854
 Alpha virt. eigenvalues --    1.46308   1.46573   1.48068   1.48600   1.50469
 Alpha virt. eigenvalues --    1.51645   1.52175   1.53704   1.53990   1.54603
 Alpha virt. eigenvalues --    1.58065   1.60421   1.63381   1.65163   1.65733
 Alpha virt. eigenvalues --    1.67079   1.67507   1.68791   1.69544   1.69831
 Alpha virt. eigenvalues --    1.70460   1.71684   1.72556   1.74437   1.75478
 Alpha virt. eigenvalues --    1.77380   1.78421   1.78858   1.79203   1.79418
 Alpha virt. eigenvalues --    1.81109   1.81598   1.82628   1.86144   1.86359
 Alpha virt. eigenvalues --    1.87437   1.88223   1.88842   1.89098   1.89866
 Alpha virt. eigenvalues --    1.91616   1.94235   1.95966   1.98062   2.00682
 Alpha virt. eigenvalues --    2.03951   2.06996   2.11317   2.11805   2.14163
 Alpha virt. eigenvalues --    2.15170   2.16711   2.17537   2.18698   2.19412
 Alpha virt. eigenvalues --    2.20178   2.20913   2.22748   2.22964   2.23607
 Alpha virt. eigenvalues --    2.24757   2.25570   2.27797   2.28873   2.31313
 Alpha virt. eigenvalues --    2.32212   2.37540   2.38368   2.40750   2.41262
 Alpha virt. eigenvalues --    2.41870   2.43968   2.46122   2.47281   2.49516
 Alpha virt. eigenvalues --    2.50040   2.51620   2.52662   2.53646   2.54343
 Alpha virt. eigenvalues --    2.54988   2.55698   2.55922   2.57738   2.62898
 Alpha virt. eigenvalues --    2.66605   2.69376   2.69999   2.71565   2.77261
 Alpha virt. eigenvalues --    2.87327   2.90163   2.92187   2.93297   2.97362
 Alpha virt. eigenvalues --    2.98227   2.99634   3.01071   3.01967   3.03307
 Alpha virt. eigenvalues --    3.05615   3.07512   3.10177   3.17220   3.18177
 Alpha virt. eigenvalues --    3.20774   3.28153   3.37149   3.42423   3.55506
 Alpha virt. eigenvalues --    3.60586  18.82342  18.90050  20.93367  21.14531
 Alpha virt. eigenvalues --   21.45935  21.51352  21.54367  21.57346  21.74049
 Alpha virt. eigenvalues --   21.78620  21.80714  21.82183  21.93798  21.97313
  Beta  occ. eigenvalues --  -88.47540 -88.35327 -10.22757 -10.21565 -10.20780
  Beta  occ. eigenvalues --  -10.20246 -10.18085 -10.17138 -10.17094 -10.16482
  Beta  occ. eigenvalues --  -10.16367 -10.15709 -10.15474 -10.15279  -8.06582
  Beta  occ. eigenvalues --   -7.94642  -6.08478  -6.08424  -6.07696  -5.96823
  Beta  occ. eigenvalues --   -5.96330  -5.95555  -1.12214  -1.08008  -1.04793
  Beta  occ. eigenvalues --   -0.99653  -0.97053  -0.96428  -0.93519  -0.90888
  Beta  occ. eigenvalues --   -0.83499  -0.82524  -0.82438  -0.79412  -0.74923
  Beta  occ. eigenvalues --   -0.73833  -0.70512  -0.68930  -0.68013  -0.67217
  Beta  occ. eigenvalues --   -0.65522  -0.64821  -0.63957  -0.62896  -0.62055
  Beta  occ. eigenvalues --   -0.60051  -0.58942  -0.58227  -0.56355  -0.55775
  Beta  occ. eigenvalues --   -0.54378  -0.50787  -0.49465  -0.48598  -0.47778
  Beta  occ. eigenvalues --   -0.43667
  Beta virt. eigenvalues --   -0.21975  -0.13431  -0.12635  -0.11472  -0.10079
  Beta virt. eigenvalues --   -0.08717  -0.07335  -0.05217  -0.03816  -0.00784
  Beta virt. eigenvalues --    0.00631   0.01448   0.02983   0.03101   0.04647
  Beta virt. eigenvalues --    0.04991   0.05534   0.06256   0.06539   0.07561
  Beta virt. eigenvalues --    0.08073   0.08862   0.09621   0.10220   0.11106
  Beta virt. eigenvalues --    0.13097   0.13410   0.14417   0.15286   0.15889
  Beta virt. eigenvalues --    0.16035   0.16832   0.17102   0.17704   0.17929
  Beta virt. eigenvalues --    0.18195   0.18684   0.19577   0.19845   0.20460
  Beta virt. eigenvalues --    0.21281   0.21570   0.22213   0.23550   0.24142
  Beta virt. eigenvalues --    0.24840   0.26530   0.27217   0.27332   0.28519
  Beta virt. eigenvalues --    0.28857   0.29342   0.29615   0.30713   0.30985
  Beta virt. eigenvalues --    0.32325   0.32742   0.33162   0.33443   0.35082
  Beta virt. eigenvalues --    0.35273   0.36515   0.36775   0.37356   0.38079
  Beta virt. eigenvalues --    0.38327   0.38475   0.39661   0.40182   0.40828
  Beta virt. eigenvalues --    0.41720   0.42634   0.42844   0.43055   0.43640
  Beta virt. eigenvalues --    0.44569   0.45316   0.46225   0.47738   0.48607
  Beta virt. eigenvalues --    0.49515   0.50892   0.52126   0.54605   0.56010
  Beta virt. eigenvalues --    0.57537   0.58946   0.59571   0.60532   0.61605
  Beta virt. eigenvalues --    0.62034   0.63434   0.65129   0.65853   0.67256
  Beta virt. eigenvalues --    0.69360   0.70762   0.74842   0.76440   0.76802
  Beta virt. eigenvalues --    0.77845   0.80261   0.80729   0.82485   0.84382
  Beta virt. eigenvalues --    0.85407   0.93617   0.95676   1.06115   1.10275
  Beta virt. eigenvalues --    1.10883   1.12417   1.13492   1.14155   1.14624
  Beta virt. eigenvalues --    1.15928   1.16519   1.17140   1.18314   1.19006
  Beta virt. eigenvalues --    1.20136   1.20562   1.21372   1.22180   1.22581
  Beta virt. eigenvalues --    1.25658   1.26393   1.27906   1.29027   1.30192
  Beta virt. eigenvalues --    1.30763   1.32312   1.33580   1.34205   1.34486
  Beta virt. eigenvalues --    1.34941   1.35255   1.35811   1.36035   1.36724
  Beta virt. eigenvalues --    1.37580   1.38161   1.39648   1.40305   1.41614
  Beta virt. eigenvalues --    1.41960   1.42475   1.43297   1.44462   1.44965
  Beta virt. eigenvalues --    1.46033   1.47051   1.47537   1.48852   1.49949
  Beta virt. eigenvalues --    1.50779   1.51834   1.53211   1.53848   1.54861
  Beta virt. eigenvalues --    1.55131   1.58984   1.60922   1.63828   1.65803
  Beta virt. eigenvalues --    1.65865   1.67107   1.67710   1.68840   1.69637
  Beta virt. eigenvalues --    1.69899   1.70523   1.71979   1.72885   1.74790
  Beta virt. eigenvalues --    1.76018   1.77581   1.78556   1.78956   1.79442
  Beta virt. eigenvalues --    1.79504   1.81123   1.81635   1.82723   1.86485
  Beta virt. eigenvalues --    1.86788   1.87644   1.88420   1.89032   1.89235
  Beta virt. eigenvalues --    1.90262   1.91738   1.94383   1.96096   1.98940
  Beta virt. eigenvalues --    2.00834   2.04082   2.07196   2.12107   2.12652
  Beta virt. eigenvalues --    2.14308   2.15550   2.17375   2.17830   2.18931
  Beta virt. eigenvalues --    2.20041   2.20379   2.21158   2.22913   2.23086
  Beta virt. eigenvalues --    2.23667   2.24819   2.25665   2.27958   2.29863
  Beta virt. eigenvalues --    2.32314   2.32358   2.37595   2.38552   2.40872
  Beta virt. eigenvalues --    2.41722   2.42097   2.44117   2.46506   2.47432
  Beta virt. eigenvalues --    2.49590   2.50208   2.51843   2.53272   2.53716
  Beta virt. eigenvalues --    2.54412   2.55423   2.55799   2.56427   2.57868
  Beta virt. eigenvalues --    2.62921   2.67190   2.69433   2.70787   2.71579
  Beta virt. eigenvalues --    2.78561   2.87330   2.90688   2.92189   2.94312
  Beta virt. eigenvalues --    2.97990   2.98247   2.99892   3.01086   3.02025
  Beta virt. eigenvalues --    3.04093   3.05818   3.07556   3.11534   3.17230
  Beta virt. eigenvalues --    3.18609   3.21100   3.28160   3.38953   3.42446
  Beta virt. eigenvalues --    3.56001   3.60589  18.82346  18.90085  20.93370
  Beta virt. eigenvalues --   21.14889  21.46704  21.51958  21.54608  21.57350
  Beta virt. eigenvalues --   21.74532  21.78633  21.80767  21.82228  21.94050
  Beta virt. eigenvalues --   21.97365
          Condensed to atoms (all electrons):
               1          2          3          4          5          6
     1  C    6.021800  -0.153622  -0.101610   0.231834   0.004649  -0.016632
     2  C   -0.153622   6.245640   0.475918  -0.400402  -0.014556  -0.013299
     3  S   -0.101610   0.475918  15.469659  -0.185051   0.058526  -0.064347
     4  C    0.231834  -0.400402  -0.185051   6.669734  -0.049536   0.021347
     5  C    0.004649  -0.014556   0.058526  -0.049536   6.246118   0.037888
     6  C   -0.016632  -0.013299  -0.064347   0.021347   0.037888   5.678384
     7  C   -0.223970   0.296858   0.049774  -0.328925  -0.001607   0.004578
     8  C   -0.368680   0.033043   0.023490  -0.257443   0.001874   0.011891
     9  H   -0.000717   0.005002   0.003899  -0.031051  -0.032477   0.007619
    10  C   -0.002336   0.012196  -0.034886  -0.004896  -0.042391   0.060380
    11  C    0.002758   0.003196   0.015816  -0.010302   0.061555   0.249619
    12  C   -0.000545  -0.001100  -0.015027   0.001093  -0.225960   0.128363
    13  C    0.000217   0.001409   0.019039  -0.001056   0.128293  -0.143750
    14  H   -0.000051   0.000349  -0.000980  -0.000429  -0.083334   0.006817
    15  H    0.000057   0.000120  -0.000236  -0.000213   0.017002  -0.054034
    16  H   -0.000003  -0.000045  -0.000454   0.000026  -0.004703   0.015816
    17  H    0.000001   0.000027   0.000185  -0.000015   0.022148  -0.000824
    18  C    0.269599  -0.236657  -0.009603   0.250314   0.000562  -0.003409
    19  H    0.454432  -0.108991  -0.016505   0.036093   0.000198  -0.000474
    20  H   -0.035260  -0.015113   0.335132   0.012187   0.000049   0.002582
    21  H   -0.058808   0.021543   0.000078  -0.004427  -0.000006   0.000014
    22  H   -0.002783   0.026467   0.000021  -0.084138   0.000797   0.000033
    23  H    0.020208  -0.002385  -0.000040   0.028038   0.000009  -0.000010
    24  S    0.018986  -0.200466  -0.007513   0.409007   0.178161  -0.032382
               7          8          9         10         11         12
     1  C   -0.223970  -0.368680  -0.000717  -0.002336   0.002758  -0.000545
     2  C    0.296858   0.033043   0.005002   0.012196   0.003196  -0.001100
     3  S    0.049774   0.023490   0.003899  -0.034886   0.015816  -0.015027
     4  C   -0.328925  -0.257443  -0.031051  -0.004896  -0.010302   0.001093
     5  C   -0.001607   0.001874  -0.032477  -0.042391   0.061555  -0.225960
     6  C    0.004578   0.011891   0.007619   0.060380   0.249619   0.128363
     7  C    5.510067   0.278457   0.000428   0.000501  -0.000680   0.000093
     8  C    0.278457   5.920700  -0.001183  -0.001760  -0.003438   0.000271
     9  H    0.000428  -0.001183   0.557251  -0.001098  -0.000405  -0.000062
    10  C    0.000501  -0.001760  -0.001098   5.532812  -0.238195   0.131125
    11  C   -0.000680  -0.003438  -0.000405  -0.238195   5.242029   0.267403
    12  C    0.000093   0.000271  -0.000062   0.131125   0.267403   5.132616
    13  C   -0.000056   0.000089   0.003584   0.227797   0.155906   0.287257
    14  H    0.000006  -0.000119   0.000355   0.405910  -0.002312   0.012178
    15  H   -0.000012  -0.000068   0.000001   0.001195   0.402056  -0.040575
    16  H    0.000000   0.000001  -0.000002   0.016905  -0.050221   0.421935
    17  H   -0.000000  -0.000002   0.000003  -0.054179   0.012670  -0.044733
    18  C    0.164165   0.101613  -0.001669  -0.000348   0.000527  -0.000048
    19  H   -0.052251  -0.006601  -0.000014  -0.000041   0.000085  -0.000025
    20  H    0.003261   0.001150   0.000034  -0.000145  -0.000186   0.000098
    21  H    0.427670   0.021064   0.000002   0.000001  -0.000002   0.000000
    22  H    0.011770   0.394068   0.000515   0.000095  -0.000043   0.000002
    23  H   -0.061321  -0.073735  -0.000005  -0.000001   0.000002  -0.000000
    24  S   -0.005265  -0.030398   0.322151  -0.086001   0.006864   0.002126
              13         14         15         16         17         18
     1  C    0.000217  -0.000051   0.000057  -0.000003   0.000001   0.269599
     2  C    0.001409   0.000349   0.000120  -0.000045   0.000027  -0.236657
     3  S    0.019039  -0.000980  -0.000236  -0.000454   0.000185  -0.009603
     4  C   -0.001056  -0.000429  -0.000213   0.000026  -0.000015   0.250314
     5  C    0.128293  -0.083334   0.017002  -0.004703   0.022148   0.000562
     6  C   -0.143750   0.006817  -0.054034   0.015816  -0.000824  -0.003409
     7  C   -0.000056   0.000006  -0.000012   0.000000  -0.000000   0.164165
     8  C    0.000089  -0.000119  -0.000068   0.000001  -0.000002   0.101613
     9  H    0.003584   0.000355   0.000001  -0.000002   0.000003  -0.001669
    10  C    0.227797   0.405910   0.001195   0.016905  -0.054179  -0.000348
    11  C    0.155906  -0.002312   0.402056  -0.050221   0.012670   0.000527
    12  C    0.287257   0.012178  -0.040575   0.421935  -0.044733  -0.000048
    13  C    5.097629  -0.000793   0.011088  -0.053623   0.410980   0.000026
    14  H   -0.000793   0.502506   0.000025  -0.000095  -0.005290   0.000003
    15  H    0.011088   0.000025   0.491730  -0.007313  -0.000115   0.000008
    16  H   -0.053623  -0.000095  -0.007313   0.498270  -0.005068  -0.000000
    17  H    0.410980  -0.005290  -0.000115  -0.005068   0.498262   0.000000
    18  C    0.000026   0.000003   0.000008  -0.000000   0.000000   5.188729
    19  H    0.000011  -0.000001   0.000004  -0.000000   0.000000   0.019023
    20  H   -0.000245  -0.000000  -0.000009   0.000004   0.000001  -0.000740
    21  H   -0.000000   0.000000  -0.000000   0.000000  -0.000000  -0.060286
    22  H    0.000005   0.000001  -0.000000   0.000000  -0.000000  -0.010804
    23  H    0.000000  -0.000000   0.000000  -0.000000   0.000000   0.434846
    24  S    0.014984  -0.008324  -0.000549   0.000037  -0.000220   0.011455
              19         20         21         22         23         24
     1  C    0.454432  -0.035260  -0.058808  -0.002783   0.020208   0.018986
     2  C   -0.108991  -0.015113   0.021543   0.026467  -0.002385  -0.200466
     3  S   -0.016505   0.335132   0.000078   0.000021  -0.000040  -0.007513
     4  C    0.036093   0.012187  -0.004427  -0.084138   0.028038   0.409007
     5  C    0.000198   0.000049  -0.000006   0.000797   0.000009   0.178161
     6  C   -0.000474   0.002582   0.000014   0.000033  -0.000010  -0.032382
     7  C   -0.052251   0.003261   0.427670   0.011770  -0.061321  -0.005265
     8  C   -0.006601   0.001150   0.021064   0.394068  -0.073735  -0.030398
     9  H   -0.000014   0.000034   0.000002   0.000515  -0.000005   0.322151
    10  C   -0.000041  -0.000145   0.000001   0.000095  -0.000001  -0.086001
    11  C    0.000085  -0.000186  -0.000002  -0.000043   0.000002   0.006864
    12  C   -0.000025   0.000098   0.000000   0.000002  -0.000000   0.002126
    13  C    0.000011  -0.000245  -0.000000   0.000005   0.000000   0.014984
    14  H   -0.000001  -0.000000   0.000000   0.000001  -0.000000  -0.008324
    15  H    0.000004  -0.000009  -0.000000  -0.000000   0.000000  -0.000549
    16  H   -0.000000   0.000004   0.000000   0.000000  -0.000000   0.000037
    17  H    0.000000   0.000001  -0.000000  -0.000000   0.000000  -0.000220
[...]
     6  C    0.008180  -0.000394  -0.008706   0.000683   0.000408  -0.000770
     7  C   -0.000002  -0.000000  -0.000001  -0.000000   0.000000  -0.000015
     8  C   -0.000008   0.000018  -0.000000   0.000000  -0.000000  -0.001844
     9  H    0.000049  -0.000387  -0.000000  -0.000001   0.000006  -0.000047
    10  C   -0.001303  -0.012705  -0.001267  -0.002605   0.005325  -0.000041
    11  C   -0.010714   0.000677   0.014657   0.004485  -0.001632  -0.000005
    12  C   -0.001624  -0.001665  -0.012643  -0.009302   0.004087  -0.000002
    13  C   -0.050266   0.001892   0.001859   0.003288  -0.003450   0.000002
    14  H    0.001892   0.005051   0.000010  -0.000002   0.000105   0.000001
    15  H    0.001859   0.000010   0.027352   0.000821  -0.000026   0.000001
    16  H    0.003288  -0.000002   0.000821   0.004630   0.000027   0.000000
    17  H   -0.003450   0.000105  -0.000026   0.000027   0.002601  -0.000000
    18  C    0.000002   0.000001   0.000001   0.000000  -0.000000   0.002383
    19  H    0.000000   0.000000   0.000000   0.000000  -0.000000   0.000043
    20  H    0.000007  -0.000003  -0.000002  -0.000001   0.000001  -0.000003
    21  H   -0.000000  -0.000000  -0.000000  -0.000000   0.000000  -0.000325
    22  H   -0.000001  -0.000000  -0.000000  -0.000000  -0.000000   0.000019
    23  H    0.000000   0.000000   0.000000   0.000000  -0.000000   0.000094
    24  S    0.001841   0.001151   0.000083   0.000017  -0.000030  -0.000105
              19         20         21         22         23         24
     1  C    0.000417  -0.000652  -0.000284  -0.000022  -0.000004   0.000504
     2  C   -0.000538   0.001071   0.000294  -0.000001  -0.000020  -0.000298
     3  S    0.000085   0.000183   0.000000  -0.000001   0.000001  -0.000339
     4  C    0.000051   0.000065  -0.000112   0.000236  -0.000017   0.002366
     5  C    0.000032  -0.000470  -0.000001  -0.000104   0.000001   0.033730
     6  C   -0.000061   0.000187   0.000004   0.000171  -0.000002  -0.033388
     7  C    0.000055  -0.000089   0.000208  -0.000018   0.000013  -0.000027
     8  C   -0.000035  -0.000004   0.000167  -0.000092  -0.000038  -0.001927
     9  H   -0.000000   0.000007   0.000000   0.000023  -0.000000   0.000369
    10  C   -0.000005   0.000161   0.000000   0.000020  -0.000000  -0.017999
    11  C    0.000000  -0.000034   0.000000   0.000000  -0.000000  -0.001783
    12  C   -0.000001   0.000021   0.000000   0.000001  -0.000000  -0.001305
    13  C    0.000000   0.000007  -0.000000  -0.000001   0.000000   0.001841
    14  H    0.000000  -0.000003  -0.000000  -0.000000   0.000000   0.001151
    15  H    0.000000  -0.000002  -0.000000  -0.000000   0.000000   0.000083
    16  H    0.000000  -0.000001  -0.000000  -0.000000   0.000000   0.000017
    17  H   -0.000000   0.000001   0.000000  -0.000000  -0.000000  -0.000030
    18  C    0.000043  -0.000003  -0.000325   0.000019   0.000094  -0.000105
    19  H    0.000049  -0.000011  -0.000023  -0.000000  -0.000000   0.000004
    20  H   -0.000011   0.000122   0.000002   0.000000   0.000000  -0.000003
    21  H   -0.000023   0.000002   0.000032   0.000003  -0.000011   0.000000
    22  H   -0.000000   0.000000   0.000003  -0.000162   0.000008  -0.000060
    23  H   -0.000000   0.000000  -0.000011   0.000008  -0.000023  -0.000001
    24  S    0.000004  -0.000003   0.000000  -0.000060  -0.000001   0.033187
 Mulliken charges and spin densities:
               1          2
     1  C   -0.059524  -0.002248
     2  C    0.024868   0.003135
     3  S   -0.015287  -0.002102
     4  C   -0.301788   0.000606
     5  C   -0.303260  -0.063348
     6  C    0.103828   0.969208
     7  C   -0.073539   0.001718
     8  C   -0.044283  -0.000048
     9  H    0.167839   0.000307
    10  C    0.077361   0.061850
    11  C   -0.114701  -0.035027
    12  C   -0.056485   0.065563
    13  C   -0.158790  -0.053659
    14  H    0.173578   0.005132
    15  H    0.179837   0.024729
    16  H    0.168531   0.004138
    17  H    0.166167   0.003768
    18  C   -0.117306  -0.000301
    19  H    0.167880   0.000062
    20  H    0.137831   0.000553
    21  H    0.160054  -0.000046
    22  H    0.178002   0.000019
    23  H    0.158356  -0.000000
    24  S    0.380831   0.015989
 Sum of Mulliken charges =   1.00000   1.00000
 Mulliken charges and spin densities with hydrogens summed into heavy atoms:
               1          2
     1  C    0.108356  -0.002186
     2  C    0.024868   0.003135
     3  S    0.122544  -0.001548
     4  C   -0.301788   0.000606
     5  C   -0.303260  -0.063348
     6  C    0.103828   0.969208
     7  C    0.086515   0.001672
     8  C    0.133719  -0.000029
    10  C    0.250939   0.066982
    11  C    0.065135  -0.010298
    12  C    0.112046   0.069701
    13  C    0.007377  -0.049891
    18  C    0.041050  -0.000301
    24  S    0.548670   0.016295
 Electronic spatial extent (au):  <R**2>=           3271.4659
 Charge=              1.0000 electrons
 Dipole moment (field-independent basis, Debye):
    X=             -0.1585    Y=             -1.5645    Z=             -1.8119  Tot=              2.3991
 Quadrupole moment (field-independent basis, Debye-Ang):
   XX=            -49.3516   YY=            -76.3463   ZZ=            -85.9365
   XY=             -1.7518   XZ=              2.4903   YZ=              3.2078
 Traceless Quadrupole moment (field-independent basis, Debye-Ang):
   XX=             21.1932   YY=             -5.8015   ZZ=            -15.3917
   XY=             -1.7518   XZ=              2.4903   YZ=              3.2078
 Octapole moment (field-independent basis, Debye-Ang**2):
  XXX=              6.2587  YYY=              0.7741  ZZZ=             -9.6589  XYY=             19.8344
  XXY=             23.6320  XXZ=              6.7868  XZZ=            -21.1524  YZZ=             -1.0502
  YYZ=            -16.8395  XYZ=            -15.5129
 Hexadecapole moment (field-independent basis, Debye-Ang**3):
 XXXX=          -2410.6289 YYYY=           -799.7289 ZZZZ=           -350.7835 XXXY=            -80.8170
 XXXZ=             98.1726 YYYX=              3.8401 YYYZ=            -12.5321 ZZZX=             -4.5954
 ZZZY=             24.3874 XXYY=           -605.8082 XXZZ=           -571.1249 YYZZ=           -182.0827
 XXYZ=             26.5621 YYXZ=             -0.2778 ZZXY=             -8.2365
 N-N= 1.040642068320D+03 E-N=-5.029235263792D+03  KE= 1.254502525533D+03
                          Isotropic Fermi Contact Couplings
        Atom                 a.u.       MegaHertz       Gauss      10(-4) cm-1
     1  C(13)             -0.00027      -0.30268      -0.10801      -0.10096
     2  C(13)              0.00024       0.27430       0.09788       0.09150
     3  S(33)              0.00488       1.67700       0.59840       0.55939
     4  C(13)             -0.00063      -0.70954      -0.25318      -0.23668
     5  C(13)              0.00977      10.98674       3.92034       3.66478
     6  C(13)              0.51529     579.28445     206.70310     193.22849
     7  C(13)              0.00007       0.07793       0.02781       0.02599
     8  C(13)              0.00047       0.52803       0.18842       0.17613
     9  H(1)               0.00021       0.95011       0.33902       0.31692
    10  C(13)              0.02015      22.64757       8.08121       7.55441
    11  C(13)              0.01205      13.54797       4.83425       4.51912
    12  C(13)              0.02875      32.32045      11.53274      10.78094
    13  C(13)             -0.00486      -5.45890      -1.94787      -1.82089
    14  H(1)               0.00289      12.90864       4.60612       4.30586
    15  H(1)               0.01036      46.31729      16.52716      15.44978
    16  H(1)               0.00205       9.14715       3.26393       3.05116
    17  H(1)               0.00190       8.51188       3.03725       2.83926
    18  C(13)             -0.00004      -0.04567      -0.01629      -0.01523
    19  H(1)               0.00001       0.03244       0.01157       0.01082
    20  H(1)               0.00020       0.90632       0.32340       0.30232
    21  H(1)              -0.00002      -0.06741      -0.02405      -0.02249
    22  H(1)               0.00002       0.07653       0.02731       0.02553
    23  H(1)              -0.00001      -0.06563      -0.02342      -0.02189
    24  S(33)              0.03842      13.19627       4.70876       4.40180
 --------------------------------------------------------
       Center         ----  Spin Dipole Couplings  ----
                      3XX-RR        3YY-RR        3ZZ-RR
 --------------------------------------------------------
     1   Atom        0.002250     -0.000496     -0.001754
     2   Atom        0.002714     -0.004607      0.001894
     3   Atom       -0.007537      0.003966      0.003571
     4   Atom        0.002971     -0.004842      0.001871
     5   Atom       -0.047549     -0.069210      0.116759
     6   Atom        0.310495     -0.413016      0.102521
     7   Atom        0.000872     -0.001738      0.000867
     8   Atom        0.003247     -0.002061     -0.001186
     9   Atom       -0.001673     -0.001814      0.003487
    10   Atom        0.007314     -0.020847      0.013533
    11   Atom        0.070604     -0.051120     -0.019484
    12   Atom        0.021200     -0.023080      0.001880
    13   Atom        0.011430     -0.024366      0.012936
    14   Atom       -0.003874     -0.002593      0.006468
    15   Atom        0.003971      0.001123     -0.005094
    16   Atom        0.005651     -0.001356     -0.004295
    17   Atom        0.000272     -0.001142      0.000870
    18   Atom        0.002064     -0.001127     -0.000936
    19   Atom        0.000886     -0.000105     -0.000781
    20   Atom       -0.000920      0.000460      0.000461
    21   Atom        0.001070     -0.000517     -0.000553
    22   Atom        0.001784     -0.000451     -0.001333
    23   Atom        0.001247     -0.000617     -0.000629
    24   Atom        0.036950      0.006116     -0.043066
 --------------------------------------------------------
                        XY            XZ            YZ
 --------------------------------------------------------
     1   Atom        0.001610     -0.001181     -0.000814
     2   Atom        0.002480     -0.006792     -0.001465
     3   Atom        0.002153     -0.008456     -0.004413
     4   Atom       -0.004021     -0.006558      0.001470
     5   Atom       -0.026251      0.023095      0.098124
     6   Atom       -0.013153      0.657510     -0.108284
     7   Atom        0.000584     -0.000914      0.000114
     8   Atom       -0.001206     -0.002901      0.000492
     9   Atom       -0.001713     -0.002149      0.002977
    10   Atom        0.013219      0.039887     -0.008191
    11   Atom       -0.080293      0.050969      0.014445
    12   Atom        0.001716      0.044403     -0.021566
    13   Atom       -0.026265      0.019401      0.024425
    14   Atom        0.000014      0.001031      0.005046
    15   Atom       -0.015080     -0.009549      0.010146
    16   Atom       -0.006514     -0.000324      0.000630
    17   Atom       -0.001280      0.000846      0.001194
    18   Atom       -0.000184     -0.001135     -0.000142
    19   Atom        0.001517     -0.000890     -0.000659
    20   Atom        0.001189     -0.001273     -0.002042
    21   Atom        0.000559     -0.000348     -0.000080
    22   Atom       -0.002010     -0.000993      0.000664
    23   Atom       -0.000298     -0.000292      0.000023
    24   Atom       -0.069024     -0.028101      0.024512
 --------------------------------------------------------


 ---------------------------------------------------------------------------------
              Anisotropic Spin Dipole Couplings in Principal Axis System
 ---------------------------------------------------------------------------------

       Atom             a.u.   MegaHertz   Gauss  10(-4) cm-1        Axes

              Baa    -0.0022    -0.295    -0.105    -0.099  0.1319  0.3229  0.9372
     1 C(13)  Bbb    -0.0012    -0.159    -0.057    -0.053 -0.4764  0.8498 -0.2257
              Bcc     0.0034     0.454     0.162     0.151  0.8693  0.4167 -0.2660
 
              Baa    -0.0055    -0.743    -0.265    -0.248 -0.4711  0.8414 -0.2648
     2 C(13)  Bbb    -0.0041    -0.554    -0.198    -0.185  0.5093  0.5045  0.6972
              Bcc     0.0097     1.297     0.463     0.433  0.7202  0.1936 -0.6662
 
              Baa    -0.0121    -0.496    -0.177    -0.166  0.8784  0.0135  0.4777
     3 S(33)  Bbb     0.0007     0.030     0.011     0.010 -0.2736  0.8338  0.4795
              Bcc     0.0114     0.467     0.166     0.156 -0.3918 -0.5519  0.7361
 
              Baa    -0.0068    -0.917    -0.327    -0.306  0.4993  0.8338  0.2354
     4 C(13)  Bbb    -0.0032    -0.433    -0.155    -0.145  0.4655 -0.4873  0.7388
              Bcc     0.0101     1.351     0.482     0.451  0.7308 -0.2594 -0.6314
 
              Baa    -0.1256   -16.859    -6.016    -5.624  0.3934  0.8385 -0.3769
     5 C(13)  Bbb    -0.0339    -4.549    -1.623    -1.518  0.9178 -0.3820  0.1081
              Bcc     0.1595    21.408     7.639     7.141  0.0533  0.3885  0.9199
 
              Baa    -0.5151   -69.118   -24.663   -23.055 -0.4909  0.6035  0.6284
     6 C(13)  Bbb    -0.3621   -48.595   -17.340   -16.210  0.4320  0.7949 -0.4260
              Bcc     0.8772   117.713    42.003    39.265  0.7566 -0.0623  0.6509
 
              Baa    -0.0019    -0.255    -0.091    -0.085 -0.2423  0.9628 -0.1196
     7 C(13)  Bbb     0.0001     0.011     0.004     0.004  0.6474  0.2523  0.7192
              Bcc     0.0018     0.244     0.087     0.081  0.7226  0.0968 -0.6845
 
              Baa    -0.0026    -0.355    -0.127    -0.118  0.4687  0.2551  0.8457
     8 C(13)  Bbb    -0.0023    -0.306    -0.109    -0.102  0.0440  0.9495 -0.3108
              Bcc     0.0049     0.661     0.236     0.220  0.8823 -0.1829 -0.4338
 
              Baa    -0.0036    -1.913    -0.683    -0.638  0.5305  0.8268 -0.1869
     9 H(1)   Bbb    -0.0022    -1.170    -0.418    -0.390  0.7773 -0.3864  0.4966
              Bcc     0.0058     3.084     1.100     1.029 -0.3384  0.4087  0.8476
 
              Baa    -0.0411    -5.519    -1.969    -1.841 -0.5986  0.6031  0.5272
    10 C(13)  Bbb    -0.0094    -1.265    -0.452    -0.422  0.4161  0.7965 -0.4387
              Bcc     0.0506     6.785     2.421     2.263  0.6845  0.0432  0.7278
 
              Baa    -0.1068   -14.334    -5.115    -4.781  0.4710  0.7839 -0.4045
    11 C(13)  Bbb    -0.0150    -2.018    -0.720    -0.673 -0.0620  0.4869  0.8713
              Bcc     0.1219    16.352     5.835     5.454  0.8800 -0.3853  0.2780
 
              Baa    -0.0477    -6.398    -2.283    -2.134 -0.4404  0.6090  0.6596
    12 C(13)  Bbb    -0.0112    -1.503    -0.536    -0.501  0.4927  0.7782 -0.3895
              Bcc     0.0589     7.901     2.819     2.635  0.7505 -0.1534  0.6428
 
              Baa    -0.0527    -7.068    -2.522    -2.358  0.4504  0.7850 -0.4254
    13 C(13)  Bbb     0.0211     2.826     1.008     0.943 -0.5408  0.6190  0.5696
              Bcc     0.0316     4.242     1.514     1.415  0.7104 -0.0265  0.7033
 
              Baa    -0.0050    -2.668    -0.952    -0.890  0.3583  0.8423 -0.4028
    14 H(1)   Bbb    -0.0038    -2.022    -0.721    -0.674  0.9306 -0.3567  0.0819
              Bcc     0.0088     4.690     1.673     1.564  0.0747  0.4042  0.9116
 
              Baa    -0.0132    -7.052    -2.516    -2.352  0.4087  0.7731 -0.4851
    15 H(1)   Bbb    -0.0111    -5.898    -2.105    -1.968  0.6304  0.1452  0.7626
              Bcc     0.0243    12.951     4.621     4.320  0.6600 -0.6175 -0.4279
 
              Baa    -0.0054    -2.871    -1.024    -0.958  0.4723  0.8164 -0.3323
    16 H(1)   Bbb    -0.0042    -2.235    -0.798    -0.746  0.2060  0.2643  0.9422
              Bcc     0.0096     5.106     1.822     1.703  0.8570 -0.5135 -0.0434
 
              Baa    -0.0025    -1.347    -0.481    -0.449  0.4785  0.7842 -0.3951
    17 H(1)   Bbb     0.0010     0.535     0.191     0.178  0.7895 -0.5811 -0.1973
              Bcc     0.0015     0.812     0.290     0.271  0.3843  0.2175  0.8972
 
              Baa    -0.0014    -0.193    -0.069    -0.064  0.2861  0.5325  0.7966
    18 C(13)  Bbb    -0.0010    -0.136    -0.048    -0.045 -0.1396  0.8457 -0.5151
              Bcc     0.0024     0.329     0.117     0.110  0.9480 -0.0362 -0.3163
 
              Baa    -0.0012    -0.645    -0.230    -0.215 -0.5002  0.8317  0.2410
    19 H(1)   Bbb    -0.0012    -0.623    -0.222    -0.208  0.4090 -0.0184  0.9124
              Bcc     0.0024     1.267     0.452     0.423  0.7633  0.5549 -0.3309
 
              Baa    -0.0017    -0.896    -0.320    -0.299  0.8072  0.1056  0.5807
    20 H(1)   Bbb    -0.0016    -0.828    -0.295    -0.276 -0.4459  0.7537  0.4828
              Bcc     0.0032     1.724     0.615     0.575 -0.3867 -0.6486  0.6555
 
              Baa    -0.0007    -0.376    -0.134    -0.125 -0.3412  0.8855 -0.3153
    21 H(1)   Bbb    -0.0006    -0.326    -0.116    -0.109  0.0732  0.3594  0.9303
              Bcc     0.0013     0.702     0.250     0.234  0.9371  0.2943 -0.1875
 
              Baa    -0.0017    -0.909    -0.324    -0.303 -0.1921 -0.6819  0.7058
    22 H(1)   Bbb    -0.0016    -0.838    -0.299    -0.280  0.5194  0.5396  0.6626
              Bcc     0.0033     1.747     0.623     0.583  0.8326 -0.4939 -0.2506
 
              Baa    -0.0007    -0.369    -0.132    -0.123  0.2088  0.6067  0.7670
    23 H(1)   Bbb    -0.0006    -0.345    -0.123    -0.115  0.0262  0.7805 -0.6246
              Bcc     0.0013     0.713     0.254     0.238  0.9776 -0.1506 -0.1471
 
              Baa    -0.0532    -2.182    -0.778    -0.728 -0.0384 -0.4194  0.9070
    24 S(33)  Bbb    -0.0486    -1.994    -0.711    -0.665  0.6555  0.6745  0.3397
              Bcc     0.1018     4.175     1.490     1.393  0.7542 -0.6076 -0.2490
 

 ---------------------------------------------------------------------------------

 No NMR shielding tensors so no spin-rotation constants.
 Leave Link  601 at Mon Jan 25 23:57:35 2021, MaxMem=  4026531840 cpu:               2.9 elap:               0.4
 (Enter /opt/ohpc/pub/libs/gaussian/g16-A.03/sandybridge/g16/l9999.exe)

 Test job not archived.
 1\1\GINC-CNODE146\SP\ULC-wHPBE\TZVP\C12H10S2(1+,2)\RDU230\25-Jan-2021\
 0\\#P LC-wHPBE/TZVP iop(3/107=0218100000, 3/108=0218100000) scf=(conve
 r=6,fermi,ndamp=35,noincfock,novaracc,vshift=500,xqc)\\H10 C12 S2\\1,2
 \C,0,-2.574063,-1.434391,-0.049117\C,0,-1.368901,-0.745264,-0.216328\S
 ,0,0.093606,-1.678504,-0.585022\C,0,-1.397687,0.626896,-0.046009\C,0,1
 .500395,0.811934,0.077279\C,0,1.478004,0.220423,1.307027\C,0,-3.746915
 ,-0.783096,0.229547\C,0,-2.584351,1.293751,0.256604\H,0,-0.039943,1.86
 0892,-1.547006\C,0,2.473105,0.786527,-0.925649\C,0,2.645316,-0.559969,
 1.492438\C,0,3.655495,-0.649979,0.563531\C,0,3.583956,0.035098,-0.6567
 53\H,0,2.357645,1.302286,-1.874829\H,0,2.763398,-1.119309,2.419207\H,0
 ,4.527775,-1.262476,0.773175\H,0,4.391412,-0.038194,-1.378729\C,0,-3.7
 59914,0.597536,0.384558\H,0,-2.557315,-2.514169,-0.13851\H,0,-0.525974
 ,-2.528359,-1.4318\H,0,-4.665467,-1.345208,0.349638\H,0,-2.558102,2.36
 8477,0.406674\H,0,-4.681894,1.115025,0.619767\S,0,0.004008,1.738768,-0
 .20875\\Version=EM64L-G16RevA.03\State=2-A\HF=-1258.7436294\S2=0.76092
 8\S2-1=0.\S2A=0.750053\RMSD=2.883e-07\Dipole=0.0623411,0.6155162,-0.71
 28608\Quadrupole=15.7566185,-4.3132546,-11.4433639,-1.3024289,-1.85147
 49,-2.3848995\PG=C01 [X(C12H10S2)]\\@


 ART, GLORY, FREEDOM FAIL, BUT NATURE STILL IS FAIR.

                                           -- BYRON
 Job cpu time:       0 days  1 hours 28 minutes 59.6 seconds.
 Elapsed time:       0 days  0 hours 11 minutes  8.8 seconds.
 File lengths (MBytes):  RWF=    112 Int=      0 D2E=      0 Chk=     12 Scr=      8
 Normal termination of Gaussian 16 at Mon Jan 25 23:57:35 2021.
