 Entering Gaussian System, Link 0=g16
 Input=mol_ta_NN_frag_tune_c7.gjf
 Output=mol_ta_NN_frag_tune_c7.log
 Initial command:
 /opt/ohpc/pub/libs/gaussian/g16-A.03/sandybridge/g16/l1.exe "/mnt/gpfs2_4m/scratch/rdu230/ondemand/projects/init_structures/gaussian/wtuning/mol_ta_NN_frag/tuning_mol_ta_NN_frag_ocycle0/Gau-27035.inp" -scrdir="/mnt/gpfs2_4m/scratch/rdu230/ondemand/projects/init_structures/gaussian/wtuning/mol_ta_NN_frag/tuning_mol_ta_NN_frag_ocycle0/"
 Entering Link 1 = /opt/ohpc/pub/libs/gaussian/g16-A.03/sandybridge/g16/l1.exe PID=     27036.
  
 Copyright (c) 1988,1990,1992,1993,1995,1998,2003,2009,2016,
            Gaussian, Inc.  All Rights Reserved.
  
 This is part of the Gaussian(R) 16 program.  It is based on
 the Gaussian(R) 09 system (copyright 2009, Gaussian, Inc.),
 the Gaussian(R) 03 system (copyright 2003, Gaussian, Inc.),
 the Gaussian(R) 98 system (copyright 1998, Gaussian, Inc.),
 the Gaussian(R) 94 system (copyright 1995, Gaussian, Inc.),
 the Gaussian 92(TM) system (copyright 1992, Gaussian, Inc.),
 the Gaussian 90(TM) system (copyright 1990, Gaussian, Inc.),
 the Gaussian 88(TM) system (copyright 1988, Gaussian, Inc.),
 the Gaussian 86(TM) system (copyright 1986, Carnegie Mellon
 University), and the Gaussian 82(TM) system (copyright 1983,
 Carnegie Mellon University). Gaussian is a federally registered
 trademark of Gaussian, Inc.
  
 This software contains proprietary and confidential information,
 including trade secrets, belonging to Gaussian, Inc.
  
 This software is provided under written license and may be
 used, copied, transmitted, or stored only in accord with that
 written license.
  
 The following legend is applicable only to US Government
 contracts under FAR:
  
                    RESTRICTED RIGHTS LEGEND
  
 Use, reproduction and disclosure by the US Government is
 subject to restrictions as set forth in subparagraphs (a)
 and (c) of the Commercial Computer Software - Restricted
 Rights clause in FAR 52.227-19.
  
 Gaussian, Inc.
 340 Quinnipiac St., Bldg. 40, Wallingford CT 06492
  
  
 ---------------------------------------------------------------
 Warning -- This program may not be used in any manner that
 competes with the business of Gaussian, Inc. or will provide
 assistance to any competitor of Gaussian, Inc.  The licensee
 of this program is prohibited from giving any competitor of
 Gaussian, Inc. access to this program.  By using this program,
 the user acknowledges that Gaussian, Inc. is engaged in the
 business of creating and licensing software in the field of
 computational chemistry and represents and warrants to the
 licensee that it is not a competitor of Gaussian, Inc. and that
 it will not use this program in any manner prohibited above.
 ---------------------------------------------------------------
  

 Cite this work as:
 Gaussian 16, Revision A.03,
 M. J. Frisch, G. W. Trucks, H. B. Schlegel, G. E. Scuseria, 
 M. A. Robb, J. R. Cheeseman, G. Scalmani, V. Barone, 
 G. A. Petersson, H. Nakatsuji, X. Li, M. Caricato, A. V. Marenich, 
 J. Bloino, B. G. Janesko, R. Gomperts, B. Mennucci, H. P. Hratchian, 
 J. V. Ortiz, A. F. Izmaylov, J. L. Sonnenberg, D. Williams-Young, 
 F. Ding, F. Lipparini, F. Egidi, J. Goings, B. Peng, A. Petrone, 
 T. Henderson, D. Ranasinghe, V. G. Zakrzewski, J. Gao, N. Rega, 
 G. Zheng, W. Liang, M. Hada, M. Ehara, K. Toyota, R. Fukuda, 
 J. Hasegawa, M. Ishida, T. Nakajima, Y. Honda, O. Kitao, H. Nakai, 
 T. Vreven, K. Throssell, J. A. Montgomery, Jr., J. E. Peralta, 
 F. Ogliaro, M. J. Bearpark, J. J. Heyd, E. N. Brothers, K. N. Kudin, 
 V. N. Staroverov, T. A. Keith, R. Kobayashi, J. Normand, 
 K. Raghavachari, A. P. Rendell, J. C. Burant, S. S. Iyengar, 
 J. Tomasi, M. Cossi, J. M. Millam, M. Klene, C. Adamo, R. Cammi, 
 J. W. Ochterski, R. L. Martin, K. Morokuma, O. Farkas, 
 J. B. Foresman, and D. J. Fox, Gaussian, Inc., Wallingford CT, 2016.
 
 ******************************************
 Gaussian 16:  EM64L-G16RevA.03 25-Dec-2016
                26-Jan-2021 
 ******************************************
 %mem=30GB
 %nproc=8
 Will use up to    8 processors via shared memory.
 ----------------------------------------------------------------------
 #P LC-wHPBE/TZVP iop(3/107=0220000000, 3/108=0220000000) scf=(conver=6
 ,fermi,ndamp=35,noincfock,novaracc,vshift=500,xqc)
 ----------------------------------------------------------------------
 1/38=1,172=1/1;
 2/12=2,17=6,18=5,40=1/2;
 3/5=19,7=101,11=2,25=1,30=1,74=-71,107=220000000,108=220000000/1,2,3;
 4//1;
 5/5=100002,6=6,8=3,10=500,13=1,18=-1,22=13,38=1,93=35/2,8;
 6/7=2,8=2,9=2,10=2,28=1/1;
 99/5=1,9=1/99;
 Leave Link    1 at Tue Jan 26 00:01:07 2021, MaxMem=  4026531840 cpu:               2.1 elap:               0.3
 (Enter /opt/ohpc/pub/libs/gaussian/g16-A.03/sandybridge/g16/l101.exe)
 ----------
 H10 C12 S2
 ----------
 Symbolic Z-matrix:
 Charge =  1 Multiplicity = 2
 C                    -2.57406  -1.43439  -0.04912 
 C                    -1.3689   -0.74526  -0.21633 
 S                     0.09361  -1.6785   -0.58502 
 C                    -1.39769   0.6269   -0.04601 
 C                     1.5004    0.81193   0.07728 
 C                     1.478     0.22042   1.30703 
 C                    -3.74692  -0.7831    0.22955 
 C                    -2.58435   1.29375   0.2566 
 H                    -0.03994   1.86089  -1.54701 
 C                     2.47311   0.78653  -0.92565 
 C                     2.64532  -0.55997   1.49244 
 C                     3.6555   -0.64998   0.56353 
 C                     3.58396   0.0351   -0.65675 
 H                     2.35765   1.30229  -1.87483 
 H                     2.7634   -1.11931   2.41921 
 H                     4.52778  -1.26248   0.77318 
 H                     4.39141  -0.03819  -1.37873 
 C                    -3.75991   0.59754   0.38456 
 H                    -2.55732  -2.51417  -0.13851 
 H                    -0.52597  -2.52836  -1.4318 
 H                    -4.66547  -1.34521   0.34964 
 H                    -2.5581    2.36848   0.40667 
 H                    -4.68189   1.11503   0.61977 
 S                     0.00401   1.73877  -0.20875 
 
 ITRead=  0  0  0  0  0  0  0  0  0  0  0  0  0  0  0  0  0  0  0  0
 ITRead=  0  0  0  0
 MicOpt= -1 -1 -1 -1 -1 -1 -1 -1 -1 -1 -1 -1 -1 -1 -1 -1 -1 -1 -1 -1
 MicOpt= -1 -1 -1 -1
 NAtoms=     24 NQM=       24 NQMF=       0 NMMI=      0 NMMIF=      0
                NMic=       0 NMicF=      0.
                    Isotopes and Nuclear Properties:
 (Nuclear quadrupole moments (NQMom) in fm**2, nuclear magnetic moments (NMagM)
  in nuclear magnetons)

  Atom         1           2           3           4           5           6           7           8           9          10
 IAtWgt=          12          12          32          12          12          12          12          12           1          12
 AtmWgt=  12.0000000  12.0000000  31.9720718  12.0000000  12.0000000  12.0000000  12.0000000  12.0000000   1.0078250  12.0000000
 NucSpn=           0           0           0           0           0           0           0           0           1           0
 AtZEff=  -0.0000000  -0.0000000  -0.0000000  -0.0000000  -0.0000000  -0.0000000  -0.0000000  -0.0000000  -0.0000000  -0.0000000
 NQMom=    0.0000000   0.0000000   0.0000000   0.0000000   0.0000000   0.0000000   0.0000000   0.0000000   0.0000000   0.0000000
 NMagM=    0.0000000   0.0000000   0.0000000   0.0000000   0.0000000   0.0000000   0.0000000   0.0000000   2.7928460   0.0000000
 AtZNuc=   6.0000000   6.0000000  16.0000000   6.0000000   6.0000000   6.0000000   6.0000000   6.0000000   1.0000000   6.0000000

  Atom        11          12          13          14          15          16          17          18          19          20
 IAtWgt=          12          12          12           1           1           1           1          12           1           1
 AtmWgt=  12.0000000  12.0000000  12.0000000   1.0078250   1.0078250   1.0078250   1.0078250  12.0000000   1.0078250   1.0078250
 NucSpn=           0           0           0           1           1           1           1           0           1           1
 AtZEff=  -0.0000000  -0.0000000  -0.0000000  -0.0000000  -0.0000000  -0.0000000  -0.0000000  -0.0000000  -0.0000000  -0.0000000
 NQMom=    0.0000000   0.0000000   0.0000000   0.0000000   0.0000000   0.0000000   0.0000000   0.0000000   0.0000000   0.0000000
 NMagM=    0.0000000   0.0000000   0.0000000   2.7928460   2.7928460   2.7928460   2.7928460   0.0000000   2.7928460   2.7928460
 AtZNuc=   6.0000000   6.0000000   6.0000000   1.0000000   1.0000000   1.0000000   1.0000000   6.0000000   1.0000000   1.0000000

  Atom        21          22          23          24
 IAtWgt=           1           1           1          32
 AtmWgt=   1.0078250   1.0078250   1.0078250  31.9720718
 NucSpn=           1           1           1           0
 AtZEff=  -0.0000000  -0.0000000  -0.0000000  -0.0000000
 NQMom=    0.0000000   0.0000000   0.0000000   0.0000000
 NMagM=    2.7928460   2.7928460   2.7928460   0.0000000
 AtZNuc=   1.0000000   1.0000000   1.0000000  16.0000000
 Leave Link  101 at Tue Jan 26 00:01:07 2021, MaxMem=  4026531840 cpu:               0.7 elap:               0.1
 (Enter /opt/ohpc/pub/libs/gaussian/g16-A.03/sandybridge/g16/l202.exe)
                          Input orientation:                          
 ---------------------------------------------------------------------
 Center     Atomic      Atomic             Coordinates (Angstroms)
 Number     Number       Type             X           Y           Z
 ---------------------------------------------------------------------
      1          6           0       -2.574063   -1.434391   -0.049117
      2          6           0       -1.368901   -0.745264   -0.216328
      3         16           0        0.093606   -1.678504   -0.585022
      4          6           0       -1.397687    0.626896   -0.046009
      5          6           0        1.500395    0.811934    0.077279
      6          6           0        1.478004    0.220423    1.307027
      7          6           0       -3.746915   -0.783096    0.229547
      8          6           0       -2.584351    1.293751    0.256604
      9          1           0       -0.039943    1.860892   -1.547006
     10          6           0        2.473105    0.786527   -0.925649
     11          6           0        2.645316   -0.559969    1.492438
     12          6           0        3.655495   -0.649979    0.563531
     13          6           0        3.583956    0.035098   -0.656753
     14          1           0        2.357645    1.302286   -1.874829
     15          1           0        2.763398   -1.119309    2.419207
     16          1           0        4.527775   -1.262476    0.773175
     17          1           0        4.391412   -0.038194   -1.378729
     18          6           0       -3.759914    0.597536    0.384558
     19          1           0       -2.557315   -2.514169   -0.138510
     20          1           0       -0.525974   -2.528359   -1.431800
     21          1           0       -4.665467   -1.345208    0.349638
     22          1           0       -2.558102    2.368477    0.406674
     23          1           0       -4.681894    1.115025    0.619767
     24         16           0        0.004008    1.738768   -0.208750
 ---------------------------------------------------------------------
                    Distance matrix (angstroms):
                    1          2          3          4          5
     1  C    0.000000
     2  C    1.398310   0.000000
     3  S    2.731894   1.773640   0.000000
     4  C    2.373347   1.382990   2.798099   0.000000
     5  C    4.654370   3.277793   2.935980   2.906599   0.000000
     6  C    4.582225   3.370168   3.017007   3.203986   1.364796
     7  C    1.370190   2.419749   4.026770   2.753703   5.486490
     8  C    2.745238   2.420447   4.088287   1.394432   4.116972
     9  H    4.418634   3.213858   3.670228   2.370487   2.472095
    10  C    5.583430   4.196490   3.443025   3.972692   1.397381
    11  C    5.512071   4.366710   3.475368   4.485682   2.279394
    12  C    6.308568   5.085451   3.881249   5.247532   2.649167
    13  C    6.360017   5.033263   3.888974   5.053712   2.341688
    14  H    5.928269   4.564015   3.959114   4.231224   2.187704
    15  H    5.889006   4.915470   4.057817   5.142096   3.287781
    16  H    7.151351   6.001451   4.656139   6.273108   3.735302
    17  H    7.227384   5.918812   4.668161   5.977638   3.346738
    18  C    2.392288   2.807333   4.579308   2.401326   5.273636
    19  H    1.083601   2.132465   2.815154   3.349565   5.251146
    20  H    2.702452   2.316749   1.350247   3.554706   4.188203
    21  H    2.130946   3.398176   4.861425   3.837202   6.537989
    22  H    3.830118   3.390828   4.938934   2.141165   4.359212
    23  H    3.374890   3.890457   5.662219   3.386376   6.213441
    24  S    4.091561   2.838195   3.439092   1.796522   1.783258
                    6          7          8          9         10
     6  C    0.000000
     7  C    5.428424   0.000000
     8  C    4.331068   2.380248   0.000000
     9  H    3.625025   4.887582   3.169964   0.000000
    10  C    2.509092   6.518193   5.218511   2.802812   0.000000
    11  C    1.416335   6.519609   5.684451   4.723283   2.773058
    12  C    2.460051   7.411136   6.542780   4.941164   2.383118
    13  C    2.885448   7.429444   6.361324   4.154361   1.367823
    14  H    3.473961   6.785490   5.382045   2.483533   1.086407
    15  H    2.164270   6.876905   6.252850   5.698348   3.860640
    16  H    3.432942   8.306373   7.575188   6.000226   3.362452
    17  H    3.970908   8.329093   7.287638   4.824080   2.136667
    18  C    5.331880   1.389368   1.372238   4.377807   6.372039
    19  H    5.084424   2.132423   3.828459   5.240437   6.067892
    20  H    4.367254   4.022496   4.657912   4.417581   4.498792
    21  H    6.411710   1.083573   3.362113   5.939007   7.558430
    22  H    4.659927   3.372990   1.085470   3.227326   5.439733
    23  H    6.262346   2.151586   2.136239   5.176768   7.327362
    24  S    2.603001   4.541071   2.667245   1.344535   2.741742
                   11         12         13         14         15
    11  C    0.000000
    12  C    1.375293   0.000000
    13  C    2.419540   1.401264   0.000000
    14  H    3.858657   3.382507   2.143202   0.000000
    15  H    1.088901   2.111786   3.386370   4.946464   0.000000
    16  H    2.134129   1.086267   2.149229   4.277779   2.417218
    17  H    3.400691   2.165232   1.085636   2.485802   4.271248
    18  C    6.602589   7.521743   7.438622   6.559423   7.045634
    19  H    5.791913   6.524345   6.669524   6.460415   6.066097
    20  H    4.741604   4.999434   4.905460   4.815119   5.256962
    21  H    7.441111   8.352694   8.424432   7.828255   7.715062
    22  H    6.068792   6.909737   6.655855   5.523277   6.673328
    23  H    7.566714   8.522350   8.433269   7.470822   7.978885
    24  S    3.892909   4.431240   3.989890   2.916495   4.763297
                   16         17         18         19         20
    16  H    0.000000
    17  H    2.479547   0.000000
    18  C    8.502732   8.364057   0.000000
    19  H    7.252338   7.480201   3.376767   0.000000
    20  H    5.657274   5.512207   4.850644   2.408142   0.000000
    21  H    9.203365   9.312497   2.143712   2.459484   4.659267
    22  H    7.970433   7.568056   2.140344   4.912989   5.611464
    23  H    9.512836   9.362093   1.083128   4.273157   5.895324
    24  S    5.516893   4.876039   3.977629   4.965157   4.470470
                   21         22         23         24
    21  H    0.000000
    22  H    4.270327   0.000000
    23  H    2.475073   2.475286   0.000000
    24  S    5.623762   2.709186   4.799289   0.000000
 Stoichiometry    C12H10S2(1+,2)
 Framework group  C1[X(C12H10S2)]
 Deg. of freedom    66
 Full point group                 C1      NOp   1
 Largest Abelian subgroup         C1      NOp   1
 Largest concise Abelian subgroup C1      NOp   1
                         Standard orientation:                         
 ---------------------------------------------------------------------
 Center     Atomic      Atomic             Coordinates (Angstroms)
 Number     Number       Type             X           Y           Z
 ---------------------------------------------------------------------
      1          6           0        2.574063    1.434391   -0.049117
      2          6           0        1.368901    0.745264   -0.216328
      3         16           0       -0.093606    1.678504   -0.585022
      4          6           0        1.397687   -0.626896   -0.046009
      5          6           0       -1.500395   -0.811934    0.077279
      6          6           0       -1.478004   -0.220423    1.307027
      7          6           0        3.746915    0.783096    0.229547
      8          6           0        2.584351   -1.293751    0.256604
      9          1           0        0.039943   -1.860892   -1.547006
     10          6           0       -2.473105   -0.786527   -0.925649
     11          6           0       -2.645316    0.559969    1.492438
     12          6           0       -3.655495    0.649979    0.563531
     13          6           0       -3.583956   -0.035098   -0.656753
     14          1           0       -2.357645   -1.302286   -1.874829
     15          1           0       -2.763398    1.119309    2.419207
     16          1           0       -4.527775    1.262476    0.773175
     17          1           0       -4.391412    0.038194   -1.378729
     18          6           0        3.759914   -0.597536    0.384558
     19          1           0        2.557315    2.514169   -0.138510
     20          1           0        0.525974    2.528359   -1.431800
     21          1           0        4.665467    1.345208    0.349638
     22          1           0        2.558102   -2.368477    0.406674
     23          1           0        4.681894   -1.115025    0.619767
     24         16           0       -0.004008   -1.738768   -0.208750
 ---------------------------------------------------------------------
 Rotational constants (GHZ):           1.2365549           0.3949099           0.3394237
 Leave Link  202 at Tue Jan 26 00:01:07 2021, MaxMem=  4026531840 cpu:               0.1 elap:               0.0
 (Enter /opt/ohpc/pub/libs/gaussian/g16-A.03/sandybridge/g16/l301.exe)
 Standard basis: TZVP (5D, 7F)
 Ernie: Thresh=  0.10000D-02 Tol=  0.10000D-05 Strict=F.
 There are   346 symmetry adapted cartesian basis functions of A   symmetry.
 There are   332 symmetry adapted basis functions of A   symmetry.
   332 basis functions,   594 primitive gaussians,   346 cartesian basis functions
    57 alpha electrons       56 beta electrons
       nuclear repulsion energy      1040.6420683200 Hartrees.
 IExCor=33909 DFT=T Ex+Corr=LC-wHPBE ExCW=0 ScaHFX=  1.000000
 ScaDFX=  1.000000  1.000000  1.000000  1.000000 ScalE2=  1.000000  1.000000
 IRadAn=      5 IRanWt=     -1 IRanGd=            0 ICorTp=0 IEmpDi=  4
 HFx  wShort=  0.000000 wLong=  0.220000 cFull=  0.000000 cShort=  0.000000 cLong=  1.000000
 DFx  wShort=  0.000000 wLong=  0.220000 cFull=  0.000000 cShort=  1.000000 cLong=  0.000000
 NAtoms=   24 NActive=   24 NUniq=   24 SFac= 1.00D+00 NAtFMM=   60 NAOKFM=F Big=F
 Integral buffers will be    131072 words long.
 Raffenetti 2 integral format.
 Two-electron integral symmetry is turned on.
 Leave Link  301 at Tue Jan 26 00:01:07 2021, MaxMem=  4026531840 cpu:               0.5 elap:               0.1
 (Enter /opt/ohpc/pub/libs/gaussian/g16-A.03/sandybridge/g16/l302.exe)
 NPDir=0 NMtPBC=     1 NCelOv=     1 NCel=       1 NClECP=     1 NCelD=      1
         NCelK=      1 NCelE2=     1 NClLst=     1 CellRange=     0.0.
 One-electron integrals computed using PRISM.
 One-electron integral symmetry used in STVInt
 NBasis=   332 RedAO= T EigKep=  8.19D-06  NBF=   332
 NBsUse=   332 1.00D-06 EigRej= -1.00D+00 NBFU=   332
 Precomputing XC quadrature grid using
 IXCGrd= 4 IRadAn=           5 IRanWt=          -1 IRanGd=           0 AccXCQ= 0.00D+00.
 Generated NRdTot=       0 NPtTot=           0 NUsed=           0 NTot=          32
 NSgBfM=   338   338   338   338   338 MxSgAt=    24 MxSgA2=    24.
 Leave Link  302 at Tue Jan 26 00:01:08 2021, MaxMem=  4026531840 cpu:               3.1 elap:               0.4
 (Enter /opt/ohpc/pub/libs/gaussian/g16-A.03/sandybridge/g16/l303.exe)
 DipDrv:  MaxL=1.
 Leave Link  303 at Tue Jan 26 00:01:08 2021, MaxMem=  4026531840 cpu:               0.5 elap:               0.1
 (Enter /opt/ohpc/pub/libs/gaussian/g16-A.03/sandybridge/g16/l401.exe)
 ExpMin= 9.52D-02 ExpMax= 6.07D+04 ExpMxC= 2.07D+03 IAcc=3 IRadAn=         5 AccDes= 0.00D+00
 Harris functional with IExCor=33909 and IRadAn=       5 diagonalized for initial guess.
 HarFok:  IExCor=33909 AccDes= 0.00D+00 IRadAn=         5 IDoV= 1 UseB2=F ITyADJ=14
 ICtDFT=  3500011 ScaDFX=  1.000000  1.000000  1.000000  1.000000
 FoFCou: FMM=F IPFlag=           0 FMFlag=      100000 FMFlg1=           0
         NFxFlg=           0 DoJE=T BraDBF=F KetDBF=T FulRan=T
         wScrn=  0.000000 ICntrl=       500 IOpCl=  0 I1Cent=   200000004 NGrid=           0
         NMat0=    1 NMatS0=      1 NMatT0=    0 NMatD0=    1 NMtDS0=    0 NMtDT0=    0
 Petite list used in FoFCou.
 Harris En= -1245.50464775625    
 JPrj=0 DoOrth=F DoCkMO=F.
 Initial guess <Sx>= 0.0000 <Sy>= 0.0000 <Sz>= 0.5000 <S**2>= 0.7500 S= 0.5000
 Leave Link  401 at Tue Jan 26 00:01:10 2021, MaxMem=  4026531840 cpu:              19.5 elap:               2.5
 (Enter /opt/ohpc/pub/libs/gaussian/g16-A.03/sandybridge/g16/l502.exe)
 Integral symmetry usage will be decided dynamically.
 UHF open shell SCF:
 Using DIIS extrapolation, IDIIS=    10.
 NGot=  4026531840 LenX=  4026286196 LenY=  4026166039
 Requested convergence on RMS density matrix=1.00D-06 within  32 cycles.
 Requested convergence on MAX density matrix=1.00D-04.
 Requested convergence on             energy=1.00D-04.
 Virtual orbitals will be shifted by   0.500 hartree.
 No special actions if energy rises.
 Dynamic level shift is on during FON iterations.

 Cycle   1  Pass 1  IDiag  1:
 FoFJK:  IHMeth= 1 ICntrl=       0 DoSepK=T KAlg= 0 I1Cent=           0 FoldK=F
 IRaf=         1 NMat=       1 IRICut=       1 DoRegI=T DoRafI=F ISym2E= 0 IDoP0=0 IntGTp=1.
 FoFCou: FMM=F IPFlag=           0 FMFlag=      100000 FMFlg1=           0
         NFxFlg=           0 DoJE=T BraDBF=F KetDBF=F FulRan=T
         wScrn=  0.000000 ICntrl=       500 IOpCl=  0 I1Cent=           0 NGrid=           0
         NMat0=    1 NMatS0=      1 NMatT0=    0 NMatD0=    1 NMtDS0=    0 NMtDT0=    0
 Symmetry not used in FoFCou.
 E= -1258.19617083125    
 DIIS: error= 2.91D-02 at cycle   1 NSaved=   1.
 NSaved= 1 IEnMin= 1 EnMin= -1258.19617083125     IErMin= 1 ErrMin= 2.91D-02
 ErrMax= 2.91D-02  0.00D+00 EMaxC= 1.00D+00 BMatC= 1.66D+00 BMatP= 1.66D+00
 IDIUse=1 WtCom= 1.00D+00 WtEn= 0.00D+00
 Coeff-Com:  0.100D+01
 Coeff:      0.100D+01
 Gap=     0.646 Goal=   None    Shift=    0.500
 T= 1479. Gap= 0.472 NK=0 IS=   58 IE=  332 IFin=   57
          NO(<0.9)=   0  NV(>0.1)=   0     57.00e < EF      0.00e >EF  Err=0.0D+00
 Gap=    -0.191 Goal=   None    Shift=    0.500
 T= 1479. Gap= 0.258 NK=0 IS=   57 IE=  332 IFin=   56
          NO(<0.9)=   0  NV(>0.1)=   0     56.00e < EF      0.00e >EF  Err=0.0D+00
 GapD=   -0.191 DampG=0.250 DampE=0.500 DampFc=0.1250 IDamp=-1.
 Damping current iteration by 1.25D-01
 RMSDP=9.46D-03 MaxDP=6.29D-01              OVMax= 1.46D-01

 Cycle   2  Pass 1  IDiag  1:
 E= -1258.28388840109     Delta-E=       -0.087717569832 Rises=F Damp=T
 DIIS: error= 2.57D-02 at cycle   2 NSaved=   2.
 NSaved= 2 IEnMin= 2 EnMin= -1258.28388840109     IErMin= 2 ErrMin= 2.57D-02
 ErrMax= 2.57D-02  0.00D+00 EMaxC= 1.00D+00 BMatC= 1.17D+00 BMatP= 1.66D+00
 IDIUse=1 WtCom= 1.00D+00 WtEn= 0.00D+00
 Coeff-Com: -0.504D+01 0.604D+01
 Coeff:     -0.504D+01 0.604D+01
 Gap=     0.204 Goal=   None    Shift=    0.500
 T= 1455. Gap= 0.672 NK=0 IS=   58 IE=  332 IFin=   57
          NO(<0.9)=   0  NV(>0.1)=   0     57.00e < EF      0.00e >EF  Err=0.0D+00
 Gap=     0.011 Goal=   None    Shift=    0.500
 T= 1455. Gap= 0.505 NK=0 IS=   57 IE=  332 IFin=   56
          NO(<0.9)=   0  NV(>0.1)=   0     56.00e < EF      0.00e >EF  Err=0.0D+00
 GapD=    0.011 DampG=0.250 DampE=0.500 DampFc=0.1250 IDamp=-1.
 Damping current iteration by 1.25D-01
 RMSDP=8.52D-03 MaxDP=5.43D-01 DE=-8.77D-02 OVMax= 4.22D-02

 Cycle   3  Pass 1  IDiag  1:
 E= -1258.35166852248     Delta-E=       -0.067780121399 Rises=F Damp=T
 DIIS: error= 2.24D-02 at cycle   3 NSaved=   3.
 NSaved= 3 IEnMin= 3 EnMin= -1258.35166852248     IErMin= 3 ErrMin= 2.24D-02
 ErrMax= 2.24D-02  0.00D+00 EMaxC= 1.00D+00 BMatC= 8.67D-01 BMatP= 1.17D+00
 IDIUse=1 WtCom= 1.00D+00 WtEn= 0.00D+00
 Coeff-Com:  0.772D+00-0.785D+01 0.807D+01
 Coeff:      0.772D+00-0.785D+01 0.807D+01
 Gap=     0.205 Goal=   None    Shift=    0.500
 T= 1405. Gap= 0.704 NK=0 IS=   58 IE=  332 IFin=   57
          NO(<0.9)=   0  NV(>0.1)=   0     57.00e < EF      0.00e >EF  Err=0.0D+00
 Gap=     0.049 Goal=   None    Shift=    0.500
 T= 1405. Gap= 0.550 NK=0 IS=   57 IE=  332 IFin=   56
          NO(<0.9)=   0  NV(>0.1)=   0     56.00e < EF      0.00e >EF  Err=0.0D+00
 GapD=    0.049 DampG=0.250 DampE=0.500 DampFc=0.1250 IDamp=-1.
 Damping current iteration by 1.25D-01
 RMSDP=6.85D-03 MaxDP=4.13D-01 DE=-6.78D-02 OVMax= 3.61D-02

 Cycle   4  Pass 1  IDiag  1:
 E= -1258.40475539139     Delta-E=       -0.053086868901 Rises=F Damp=T
 DIIS: error= 1.95D-02 at cycle   4 NSaved=   4.
 NSaved= 4 IEnMin= 4 EnMin= -1258.40475539139     IErMin= 4 ErrMin= 1.95D-02
 ErrMax= 1.95D-02  0.00D+00 EMaxC= 1.00D+00 BMatC= 6.55D-01 BMatP= 8.67D-01
 IDIUse=1 WtCom= 1.00D+00 WtEn= 0.00D+00
 Large coefficients: NSaved=  4 BigCof=   13.07 CofMax=   10.00 Det=-1.27D-05
 Inversion failed.  Reducing to  3 matrices.
 Large coefficients: NSaved=  3 BigCof=   13.09 CofMax=   10.00 Det=-1.63D-05
 Inversion failed.  Reducing to  2 matrices.
 Coeff-Com: -0.653D+01 0.753D+01
 Coeff:     -0.653D+01 0.753D+01
 Gap=     0.211 Goal=   None    Shift=    0.500
 T= 1324. Gap= 0.711 NK=0 IS=   58 IE=  332 IFin=   57
          NO(<0.9)=   0  NV(>0.1)=   0     57.00e < EF      0.00e >EF  Err=0.0D+00
 Gap=     0.057 Goal=   None    Shift=    0.500
 T= 1324. Gap= 0.559 NK=0 IS=   57 IE=  332 IFin=   56
          NO(<0.9)=   0  NV(>0.1)=   0     56.00e < EF      0.00e >EF  Err=0.0D+00
 GapD=    0.057 DampG=0.500 DampE=0.500 DampFc=0.2500 IDamp=-1.
 Damping current iteration by 2.50D-01
 RMSDP=5.58D-03 MaxDP=3.43D-01 DE=-5.31D-02 OVMax= 3.82D-02

 Cycle   5  Pass 1  IDiag  1:
 E= -1258.48810216757     Delta-E=       -0.083346776180 Rises=F Damp=T
 DIIS: error= 1.51D-02 at cycle   5 NSaved=   3.
 NSaved= 3 IEnMin= 3 EnMin= -1258.48810216757     IErMin= 3 ErrMin= 1.51D-02
 ErrMax= 1.51D-02  0.00D+00 EMaxC= 1.00D+00 BMatC= 3.62D-01 BMatP= 6.55D-01
 IDIUse=1 WtCom= 1.00D+00 WtEn= 0.00D+00
 Large coefficients: NSaved=  3 BigCof=   17.96 CofMax=   10.00 Det=-7.46D-06
 Inversion failed.  Reducing to  2 matrices.
 Coeff-Com: -0.286D+01 0.386D+01
 Coeff:     -0.286D+01 0.386D+01
 Gap=     0.220 Goal=   None    Shift=    0.500
 T= 1221. Gap= 0.720 NK=0 IS=   58 IE=  332 IFin=   57
          NO(<0.9)=   0  NV(>0.1)=   0     57.00e < EF      0.00e >EF  Err=0.0D+00
 Gap=     0.067 Goal=   None    Shift=    0.500
 T= 1221. Gap= 0.570 NK=0 IS=   57 IE=  332 IFin=   56
          NO(<0.9)=   0  NV(>0.1)=   0     56.00e < EF      0.00e >EF  Err=0.0D+00
 GapD=    0.067 DampG=0.500 DampE=0.500 DampFc=0.2500 IDamp=-1.
 Damping current iteration by 2.50D-01
 RMSDP=3.90D-03 MaxDP=2.46D-01 DE=-8.33D-02 OVMax= 4.08D-02

 Cycle   6  Pass 1  IDiag  1:
 E= -1258.54364035623     Delta-E=       -0.055538188667 Rises=F Damp=T
 DIIS: error= 1.22D-02 at cycle   6 NSaved=   3.
 NSaved= 3 IEnMin= 3 EnMin= -1258.54364035623     IErMin= 3 ErrMin= 1.22D-02
 ErrMax= 1.22D-02  0.00D+00 EMaxC= 1.00D+00 BMatC= 2.01D-01 BMatP= 3.62D-01
 IDIUse=1 WtCom= 1.00D+00 WtEn= 0.00D+00
 Large coefficients: NSaved=  3 BigCof=   15.14 CofMax=   10.00 Det=-1.03D-05
 Inversion failed.  Reducing to  2 matrices.
 Coeff-Com: -0.287D+01 0.387D+01
 Coeff:     -0.287D+01 0.387D+01
 Gap=     0.227 Goal=   None    Shift=    0.500
 T= 1103. Gap= 0.727 NK=0 IS=   58 IE=  332 IFin=   57
          NO(<0.9)=   0  NV(>0.1)=   0     57.00e < EF      0.00e >EF  Err=0.0D+00
 Gap=     0.076 Goal=   None    Shift=    0.500
 T= 1103. Gap= 0.578 NK=0 IS=   57 IE=  332 IFin=   56
          NO(<0.9)=   0  NV(>0.1)=   0     56.00e < EF      0.00e >EF  Err=0.0D+00
 GapD=    0.076 DampG=0.500 DampE=0.500 DampFc=0.2500 IDamp=-1.
 Damping current iteration by 2.50D-01
 RMSDP=2.72D-03 MaxDP=1.71D-01 DE=-5.55D-02 OVMax= 4.36D-02

 Cycle   7  Pass 1  IDiag  1:
 E= -1258.58185700694     Delta-E=       -0.038216650706 Rises=F Damp=T
 DIIS: error= 9.84D-03 at cycle   7 NSaved=   3.
 NSaved= 3 IEnMin= 3 EnMin= -1258.58185700694     IErMin= 3 ErrMin= 9.84D-03
 ErrMax= 9.84D-03  0.00D+00 EMaxC= 1.00D+00 BMatC= 1.12D-01 BMatP= 2.01D-01
 IDIUse=1 WtCom= 1.00D+00 WtEn= 0.00D+00
 Large coefficients: NSaved=  3 BigCof=   15.93 CofMax=   10.00 Det=-4.15D-06
 Inversion failed.  Reducing to  2 matrices.
 Coeff-Com: -0.285D+01 0.385D+01
 Coeff:     -0.285D+01 0.385D+01
 Gap=     0.234 Goal=   None    Shift=    0.500
 T=  965. Gap= 0.734 NK=0 IS=   58 IE=  332 IFin=   57
          NO(<0.9)=   0  NV(>0.1)=   0     57.00e < EF      0.00e >EF  Err=0.0D+00
 Gap=     0.084 Goal=   None    Shift=    0.500
 T=  965. Gap= 0.586 NK=0 IS=   57 IE=  332 IFin=   56
          NO(<0.9)=   0  NV(>0.1)=   0     56.00e < EF      0.00e >EF  Err=0.0D+00
 GapD=    0.084 DampG=0.500 DampE=1.000 DampFc=0.5000 IDamp=-1.
 Damping current iteration by 5.00D-01
 RMSDP=1.91D-03 MaxDP=1.13D-01 DE=-3.82D-02 OVMax= 4.60D-02

 Cycle   8  Pass 1  IDiag  1:
 E= -1258.63431313846     Delta-E=       -0.052456131518 Rises=F Damp=T
 DIIS: error= 9.17D-03 at cycle   8 NSaved=   3.
 NSaved= 3 IEnMin= 3 EnMin= -1258.63431313846     IErMin= 3 ErrMin= 9.17D-03
 ErrMax= 9.17D-03  0.00D+00 EMaxC= 1.00D+00 BMatC= 2.77D-02 BMatP= 1.12D-01
 IDIUse=1 WtCom= 1.00D+00 WtEn= 0.00D+00
 Coeff-Com:  0.532D+01-0.978D+01 0.545D+01
 Coeff:      0.532D+01-0.978D+01 0.545D+01
 Gap=     0.255 Goal=   None    Shift=    0.500
 T=  861. Gap= 0.755 NK=0 IS=   58 IE=  332 IFin=   57
          NO(<0.9)=   0  NV(>0.1)=   0     57.00e < EF      0.00e >EF  Err=0.0D+00
 Gap=     0.097 Goal=   None    Shift=    0.500
 T=  861. Gap= 0.602 NK=0 IS=   57 IE=  332 IFin=   56
          NO(<0.9)=   0  NV(>0.1)=   0     56.00e < EF      0.00e >EF  Err=0.0D+00
 GapD=    0.097 DampG=0.500 DampE=1.000 DampFc=0.5000 IDamp=-1.
 Damping current iteration by 5.00D-01
 RMSDP=1.11D-03 MaxDP=6.41D-02 DE=-5.25D-02 OVMax= 6.46D-02

 Cycle   9  Pass 1  IDiag  1:
 E= -1258.65983411264     Delta-E=       -0.025520974180 Rises=F Damp=T
 DIIS: error= 9.67D-03 at cycle   9 NSaved=   4.
 NSaved= 4 IEnMin= 4 EnMin= -1258.65983411264     IErMin= 3 ErrMin= 9.17D-03
 ErrMax= 9.67D-03  0.00D+00 EMaxC= 1.00D+00 BMatC= 8.22D-03 BMatP= 2.77D-02
 IDIUse=1 WtCom= 1.00D+00 WtEn= 0.00D+00
 Coeff-Com:  0.461D+01-0.783D+01 0.268D+01 0.155D+01
 Coeff:      0.461D+01-0.783D+01 0.268D+01 0.155D+01
 Gap=     0.260 Goal=   None    Shift=    0.500
 T=  810. Gap= 0.760 NK=4 IS=   58 IE=   67 IFin=   57
          NO(<0.9)=   0  NV(>0.1)=   0     57.00e < EF      0.00e >EF  Err=0.0D+00
 Gap=     0.107 Goal=   None    Shift=    0.500
 T=  810. Gap= 0.612 NK=4 IS=   57 IE=   66 IFin=   56
          NO(<0.9)=   0  NV(>0.1)=   0     56.00e < EF      0.00e >EF  Err=0.0D+00
 GapD=    0.107 DampG=1.000 DampE=1.000 DampFc=1.0000 IDamp=-1.
 RMSDP=9.79D-04 MaxDP=6.21D-02 DE=-2.55D-02 OVMax= 6.31D-02

 Cycle  10  Pass 1  IDiag  1:
 E= -1258.68959693167     Delta-E=       -0.029762819033 Rises=F Damp=F
 DIIS: error= 9.93D-03 at cycle  10 NSaved=   5.
 NSaved= 5 IEnMin= 5 EnMin= -1258.68959693167     IErMin= 3 ErrMin= 9.17D-03
 ErrMax= 9.93D-03  0.00D+00 EMaxC= 1.00D+00 BMatC= 2.68D-03 BMatP= 8.22D-03
 IDIUse=1 WtCom= 1.00D+00 WtEn= 0.00D+00
 Coeff-Com:  0.457D+01-0.777D+01 0.265D+01 0.152D+01 0.196D-01
 Coeff:      0.457D+01-0.777D+01 0.265D+01 0.152D+01 0.196D-01
 Gap=     0.260 Goal=   None    Shift=    0.500
 T=  810. Gap= 0.760 NK=4 IS=   58 IE=   67 IFin=   57
          NO(<0.9)=   0  NV(>0.1)=   0     57.00e < EF      0.00e >EF  Err=0.0D+00
 Gap=     0.116 Goal=   None    Shift=    0.500
 T=  810. Gap= 0.619 NK=4 IS=   57 IE=   66 IFin=   56
          NO(<0.9)=   0  NV(>0.1)=   0     56.00e < EF      0.00e >EF  Err=0.0D+00
 GapD=    0.116 DampG=1.000 DampE=1.000 DampFc=1.0000 IDamp=-1.
 RMSDP=3.19D-04 MaxDP=2.19D-02 DE=-2.98D-02 OVMax= 5.09D-02

 Cycle  11  Pass 1  IDiag  1:
 E= -1258.69332457646     Delta-E=       -0.003727644792 Rises=F Damp=F
 DIIS: error= 9.53D-03 at cycle  11 NSaved=   6.
 NSaved= 6 IEnMin= 6 EnMin= -1258.69332457646     IErMin= 3 ErrMin= 9.17D-03
 ErrMax= 9.53D-03  0.00D+00 EMaxC= 1.00D+00 BMatC= 3.15D-03 BMatP= 2.68D-03
 IDIUse=1 WtCom= 1.00D+00 WtEn= 0.00D+00
 Large coefficients: NSaved=  6 BigCof=   13.56 CofMax=   10.00 Det=-1.42D-06
 Inversion failed.  Reducing to  5 matrices.
 Coeff-Com:  0.255D+00 0.118D+01-0.333D+01 0.400D+01-0.110D+01
 Coeff:      0.255D+00 0.118D+01-0.333D+01 0.400D+01-0.110D+01
 Gap=     0.275 Goal=   None    Shift=    0.500
 T=  810. Gap= 0.775 NK=4 IS=   58 IE=   67 IFin=   57
          NO(<0.9)=   0  NV(>0.1)=   0     57.00e < EF      0.00e >EF  Err=0.0D+00
 Gap=     0.126 Goal=   None    Shift=    0.500
 T=  810. Gap= 0.631 NK=4 IS=   57 IE=   66 IFin=   56
          NO(<0.9)=   0  NV(>0.1)=   0     56.00e < EF      0.00e >EF  Err=0.0D+00
 GapD=    0.126 DampG=1.000 DampE=1.000 DampFc=1.0000 IDamp=-1.
 RMSDP=5.81D-04 MaxDP=4.28D-02 DE=-3.73D-03 OVMax= 5.99D-02

 Cycle  12  Pass 1  IDiag  1:
 E= -1258.69805378496     Delta-E=       -0.004729208501 Rises=F Damp=F
 DIIS: error= 9.63D-03 at cycle  12 NSaved=   6.
 NSaved= 6 IEnMin= 6 EnMin= -1258.69805378496     IErMin= 2 ErrMin= 9.17D-03
 ErrMax= 9.63D-03  0.00D+00 EMaxC= 1.00D+00 BMatC= 3.16D-03 BMatP= 2.68D-03
 IDIUse=1 WtCom= 1.00D+00 WtEn= 0.00D+00
 Coeff-Com:  0.346D+00 0.943D+00-0.321D+01 0.395D+01-0.527D+00-0.499D+00
 Coeff:      0.346D+00 0.943D+00-0.321D+01 0.395D+01-0.527D+00-0.499D+00
 Gap=     0.271 Goal=   None    Shift=    0.500
 T=  810. Gap= 0.771 NK=4 IS=   58 IE=   67 IFin=   57
          NO(<0.9)=   0  NV(>0.1)=   0     57.00e < EF      0.00e >EF  Err=0.0D+00
 Gap=     0.135 Goal=   None    Shift=    0.500
 T=  810. Gap= 0.637 NK=4 IS=   57 IE=   66 IFin=   56
          NO(<0.9)=   0  NV(>0.1)=   0     56.00e < EF      0.00e >EF  Err=0.0D+00
 GapD=    0.135 DampG=1.000 DampE=1.000 DampFc=1.0000 IDamp=-1.
 RMSDP=2.41D-04 MaxDP=1.81D-02 DE=-4.73D-03 OVMax= 4.27D-02

 Cycle  13  Pass 1  IDiag  1:
 E= -1258.70093763797     Delta-E=       -0.002883853007 Rises=F Damp=F
 DIIS: error= 8.90D-03 at cycle  13 NSaved=   7.
 NSaved= 7 IEnMin= 7 EnMin= -1258.70093763797     IErMin= 7 ErrMin= 8.90D-03
 ErrMax= 8.90D-03  0.00D+00 EMaxC= 1.00D+00 BMatC= 4.13D-03 BMatP= 2.68D-03
 IDIUse=1 WtCom= 1.00D+00 WtEn= 0.00D+00
 Large coefficients: NSaved=  7 BigCof=   17.45 CofMax=   10.00 Det=-1.27D-06
 Inversion failed.  Reducing to  6 matrices.
 Large coefficients: NSaved=  6 BigCof=   19.51 CofMax=   10.00 Det=-2.94D-06
 Inversion failed.  Reducing to  5 matrices.
 Large coefficients: NSaved=  5 BigCof=   13.89 CofMax=   10.00 Det=-3.03D-06
 Inversion failed.  Reducing to  4 matrices.
 Large coefficients: NSaved=  4 BigCof=   14.11 CofMax=   10.00 Det=-3.03D-06
 Inversion failed.  Reducing to  3 matrices.
 Coeff-Com:  0.275D-01 0.210D+01-0.113D+01
 Coeff:      0.275D-01 0.210D+01-0.113D+01
 Gap=     0.275 Goal=   None    Shift=    0.500
 T=  797. Gap= 0.775 NK=4 IS=   58 IE=   67 IFin=   57
          NO(<0.9)=   0  NV(>0.1)=   0     57.00e < EF      0.00e >EF  Err=0.0D+00
 Gap=     0.135 Goal=   None    Shift=    0.500
 T=  797. Gap= 0.636 NK=4 IS=   57 IE=   66 IFin=   56
          NO(<0.9)=   0  NV(>0.1)=   0     56.00e < EF      0.00e >EF  Err=0.0D+00
 GapD=    0.135 DampG=1.000 DampE=1.000 DampFc=1.0000 IDamp=-1.
 RMSDP=2.09D-04 MaxDP=1.77D-02 DE=-2.88D-03 OVMax= 3.40D-02

 Cycle  14  Pass 1  IDiag  1:
 E= -1258.70320109362     Delta-E=       -0.002263455654 Rises=F Damp=F
 DIIS: error= 8.43D-03 at cycle  14 NSaved=   4.
 NSaved= 4 IEnMin= 4 EnMin= -1258.70320109362     IErMin= 4 ErrMin= 8.43D-03
 ErrMax= 8.43D-03  0.00D+00 EMaxC= 1.00D+00 BMatC= 4.81D-03 BMatP= 3.15D-03
 IDIUse=1 WtCom= 1.00D+00 WtEn= 0.00D+00
 Coeff-Com:  0.120D+00 0.257D+01-0.280D+01 0.111D+01
 Coeff:      0.120D+00 0.257D+01-0.280D+01 0.111D+01
 Gap=     0.276 Goal=   None    Shift=    0.500
 T=  773. Gap= 0.776 NK=4 IS=   58 IE=   67 IFin=   57
          NO(<0.9)=   0  NV(>0.1)=   0     57.00e < EF      0.00e >EF  Err=0.0D+00
 Gap=     0.137 Goal=   None    Shift=    0.500
 T=  773. Gap= 0.638 NK=4 IS=   57 IE=   66 IFin=   56
          NO(<0.9)=   0  NV(>0.1)=   0     56.00e < EF      0.00e >EF  Err=0.0D+00
 GapD=    0.137 DampG=1.000 DampE=1.000 DampFc=1.0000 IDamp=-1.
 RMSDP=1.66D-04 MaxDP=1.37D-02 DE=-2.26D-03 OVMax= 2.83D-02

 Cycle  15  Pass 1  IDiag  1:
 E= -1258.70496810460     Delta-E=       -0.001767010981 Rises=F Damp=F
 DIIS: error= 7.97D-03 at cycle  15 NSaved=   5.
 NSaved= 5 IEnMin= 5 EnMin= -1258.70496810460     IErMin= 5 ErrMin= 7.97D-03
 ErrMax= 7.97D-03  0.00D+00 EMaxC= 1.00D+00 BMatC= 5.63D-03 BMatP= 3.15D-03
 IDIUse=1 WtCom= 1.00D+00 WtEn= 0.00D+00
 Coeff-Com:  0.538D-01 0.517D+01-0.645D+01-0.181D+01 0.405D+01
 Coeff:      0.538D-01 0.517D+01-0.645D+01-0.181D+01 0.405D+01
 Gap=     0.285 Goal=   None    Shift=    0.500
 T=  735. Gap= 0.785 NK=4 IS=   58 IE=   67 IFin=   57
          NO(<0.9)=   0  NV(>0.1)=   0     57.00e < EF      0.00e >EF  Err=0.0D+00
 Gap=     0.135 Goal=   None    Shift=    0.500
 T=  735. Gap= 0.636 NK=4 IS=   57 IE=   66 IFin=   56
          NO(<0.9)=   0  NV(>0.1)=   0     56.00e < EF      0.00e >EF  Err=0.0D+00
 GapD=    0.135 DampG=1.000 DampE=1.000 DampFc=1.0000 IDamp=-1.
 RMSDP=2.79D-04 MaxDP=1.80D-02 DE=-1.77D-03 OVMax= 3.21D-02

 Cycle  16  Pass 1  IDiag  1:
 E= -1258.70736175701     Delta-E=       -0.002393652401 Rises=F Damp=F
 DIIS: error= 7.88D-03 at cycle  16 NSaved=   6.
 NSaved= 6 IEnMin= 6 EnMin= -1258.70736175701     IErMin= 6 ErrMin= 7.88D-03
 ErrMax= 7.88D-03  0.00D+00 EMaxC= 1.00D+00 BMatC= 5.50D-03 BMatP= 3.15D-03
 IDIUse=1 WtCom= 1.00D+00 WtEn= 0.00D+00
 Coeff-Com:  0.545D+00 0.306D+01-0.390D+01-0.734D+00-0.102D+01 0.306D+01
 Coeff:      0.545D+00 0.306D+01-0.390D+01-0.734D+00-0.102D+01 0.306D+01
 Gap=     0.293 Goal=   None    Shift=    0.500
 T=  710. Gap= 0.793 NK=4 IS=   58 IE=   66 IFin=   57
          NO(<0.9)=   0  NV(>0.1)=   0     57.00e < EF      0.00e >EF  Err=0.0D+00
 Gap=     0.137 Goal=   None    Shift=    0.500
 T=  710. Gap= 0.639 NK=4 IS=   57 IE=   66 IFin=   56
          NO(<0.9)=   0  NV(>0.1)=   0     56.00e < EF      0.00e >EF  Err=0.0D+00
 GapD=    0.137 DampG=1.000 DampE=1.000 DampFc=1.0000 IDamp=-1.
 RMSDP=3.39D-04 MaxDP=2.27D-02 DE=-2.39D-03 OVMax= 3.61D-02

 Cycle  17  Pass 1  IDiag  1:
 E= -1258.71015115047     Delta-E=       -0.002789393463 Rises=F Damp=F
 DIIS: error= 7.87D-03 at cycle  17 NSaved=   7.
 NSaved= 7 IEnMin= 7 EnMin= -1258.71015115047     IErMin= 7 ErrMin= 7.87D-03
 ErrMax= 7.87D-03  0.00D+00 EMaxC= 1.00D+00 BMatC= 5.14D-03 BMatP= 3.15D-03
 IDIUse=1 WtCom= 1.00D+00 WtEn= 0.00D+00
 Large coefficients: NSaved=  7 BigCof=   10.87 CofMax=   10.00 Det=-1.18D-06
 Inversion failed.  Reducing to  6 matrices.
 Coeff-Com: -0.538D+00 0.230D+01 0.163D+01-0.772D+01 0.248D+00 0.508D+01
 Coeff:     -0.538D+00 0.230D+01 0.163D+01-0.772D+01 0.248D+00 0.508D+01
 Gap=     0.339 Goal=   None    Shift=    0.500
 T=  600. Gap= 0.820 NK=4 IS=   58 IE=   66 IFin=   57
          NO(<0.9)=   0  NV(>0.1)=   0     57.00e < EF      0.00e >EF  Err=0.0D+00
 Gap=     0.153 Goal=   None    Shift=    0.500
 T=  600. Gap= 0.661 NK=4 IS=   57 IE=   66 IFin=   56
          NO(<0.9)=   0  NV(>0.1)=   0     56.00e < EF      0.00e >EF  Err=0.0D+00
 GapD=    0.153 DampG=1.000 DampE=1.000 DampFc=1.0000 IDamp=-1.
 RMSDP=1.20D-03 MaxDP=8.64D-02 DE=-2.79D-03 OVMax= 8.12D-02

 Cycle  18  Pass 1  IDiag  1:
 E= -1258.71756497373     Delta-E=       -0.007413823259 Rises=F Damp=F
 DIIS: error= 9.60D-03 at cycle  18 NSaved=   7.
 NSaved= 7 IEnMin= 7 EnMin= -1258.71756497373     IErMin= 6 ErrMin= 7.87D-03
 ErrMax= 9.60D-03  0.00D+00 EMaxC= 1.00D+00 BMatC= 2.39D-03 BMatP= 3.16D-03
 IDIUse=1 WtCom= 1.00D+00 WtEn= 0.00D+00
 Large coefficients: NSaved=  7 BigCof=   10.43 CofMax=   10.00 Det=-1.35D-06
 Inversion failed.  Reducing to  6 matrices.
 Large coefficients: NSaved=  6 BigCof=   14.37 CofMax=   10.00 Det=-1.74D-06
 Inversion failed.  Reducing to  5 matrices.
 Coeff-Com: -0.236D+01 0.382D+01-0.442D+01 0.266D+01 0.130D+01
 Coeff:     -0.236D+01 0.382D+01-0.442D+01 0.266D+01 0.130D+01
 Gap=     0.317 Goal=   None    Shift=    0.500
 T=  450. Gap= 0.816 NK=4 IS=   58 IE=   66 IFin=   57
          NO(<0.9)=   0  NV(>0.1)=   0     57.00e < EF      0.00e >EF  Err=0.0D+00
 Gap=     0.173 Goal=   None    Shift=    0.500
 T=  450. Gap= 0.680 NK=4 IS=   57 IE=   65 IFin=   56
          NO(<0.9)=   0  NV(>0.1)=   0     56.00e < EF      0.00e >EF  Err=0.0D+00
 GapD=    0.173 DampG=1.000 DampE=1.000 DampFc=1.0000 IDamp=-1.
 RMSDP=7.08D-04 MaxDP=3.96D-02 DE=-7.41D-03 OVMax= 7.43D-02

 Cycle  19  Pass 1  IDiag  1:
 E= -1258.72301499597     Delta-E=       -0.005450022247 Rises=F Damp=F
 DIIS: error= 1.00D-02 at cycle  19 NSaved=   6.
 NSaved= 6 IEnMin= 6 EnMin= -1258.72301499597     IErMin= 4 ErrMin= 7.87D-03
 ErrMax= 1.00D-02  0.00D+00 EMaxC= 1.00D+00 BMatC= 2.46D-03 BMatP= 2.39D-03
 IDIUse=1 WtCom= 1.00D+00 WtEn= 0.00D+00
 Coeff-Com: -0.882D+01 0.811D+01-0.601D+00 0.192D+01-0.438D+01 0.478D+01
 Coeff:     -0.882D+01 0.811D+01-0.601D+00 0.192D+01-0.438D+01 0.478D+01
 Gap=     0.292 Goal=   None    Shift=    0.500
 T=  300. Gap= 0.774 NK=4 IS=   58 IE=   67 IFin=   57
          NO(<0.9)=   0  NV(>0.1)=   0     57.00e < EF      0.00e >EF  Err=0.0D+00
 Gap=     0.213 Goal=   None    Shift=    0.500
 T=  300. Gap= 0.739 NK=4 IS=   57 IE=   65 IFin=   56
          NO(<0.9)=   0  NV(>0.1)=   0     56.00e < EF      0.00e >EF  Err=0.0D+00
 GapD=    0.213 DampG=1.000 DampE=0.500 DampFc=0.5000 IDamp=-1.
 Damping current iteration by 5.00D-01
 RMSDP=1.54D-03 MaxDP=6.27D-02 DE=-5.45D-03 OVMax= 1.26D-01

 Cycle  20  Pass 1  IDiag  1:
 E= -1258.72438025105     Delta-E=       -0.001365255078 Rises=F Damp=T
 DIIS: error= 1.10D-02 at cycle  20 NSaved=   7.
 NSaved= 7 IEnMin= 7 EnMin= -1258.72438025105     IErMin= 4 ErrMin= 7.87D-03
 ErrMax= 1.10D-02  0.00D+00 EMaxC= 1.00D+00 BMatC= 6.34D-03 BMatP= 2.39D-03
 IDIUse=1 WtCom= 1.00D+00 WtEn= 0.00D+00
 Coeff-Com: -0.707D+01 0.313D+01 0.470D+01 0.205D+01-0.660D+01 0.270D+01
 Coeff-Com:  0.207D+01
 Coeff:     -0.707D+01 0.313D+01 0.470D+01 0.205D+01-0.660D+01 0.270D+01
 Coeff:      0.207D+01
 Gap=     0.283 Goal=   None    Shift=    0.500
 T=  150. Gap= 0.783 NK=4 IS=   58 IE=   67 IFin=   57
          NO(<0.9)=   0  NV(>0.1)=   0     57.00e < EF      0.00e >EF  Err=0.0D+00
 Gap=     0.238 Goal=   None    Shift=    0.500
 T=  150. Gap= 0.748 NK=4 IS=   57 IE=   65 IFin=   56
          NO(<0.9)=   0  NV(>0.1)=   0     56.00e < EF      0.00e >EF  Err=0.0D+00
 GapD=    0.238 DampG=1.000 DampE=0.500 DampFc=0.5000 IDamp=-1.
 Damping current iteration by 5.00D-01
 RMSDP=1.24D-03 MaxDP=5.00D-02 DE=-1.37D-03 OVMax= 7.86D-02

 Cycle  21  Pass 1  IDiag  1:
 E= -1258.72688248841     Delta-E=       -0.002502237352 Rises=F Damp=T
 DIIS: error= 1.07D-02 at cycle  21 NSaved=   8.
 NSaved= 8 IEnMin= 8 EnMin= -1258.72688248841     IErMin= 4 ErrMin= 7.87D-03
 ErrMax= 1.07D-02  0.00D+00 EMaxC= 1.00D+00 BMatC= 9.88D-03 BMatP= 2.39D-03
 IDIUse=1 WtCom= 1.00D+00 WtEn= 0.00D+00
 Coeff-Com: -0.347D+00-0.634D+01 0.376D+01 0.522D+01-0.142D+01 0.231D+00
 Coeff-Com: -0.437D+01 0.427D+01
 Coeff:     -0.347D+00-0.634D+01 0.376D+01 0.522D+01-0.142D+01 0.231D+00
 Coeff:     -0.437D+01 0.427D+01
 Gap=     0.301 Goal=   None    Shift=    0.500
 Gap=     0.227 Goal=   None    Shift=    0.500
 GapD=    0.227 DampG=1.000 DampE=0.500 DampFc=0.5000 IDamp=-1.
 Damping current iteration by 5.00D-01
 RMSDP=7.40D-04 MaxDP=4.52D-02 DE=-2.50D-03 OVMax= 4.90D-02

 Cycle  22  Pass 1  IDiag  1:
 E= -1258.73113174175     Delta-E=       -0.004249253342 Rises=F Damp=T
 DIIS: error= 9.26D-03 at cycle  22 NSaved=   9.
 NSaved= 9 IEnMin= 9 EnMin= -1258.73113174175     IErMin= 4 ErrMin= 7.87D-03
 ErrMax= 9.26D-03  0.00D+00 EMaxC= 1.00D+00 BMatC= 7.94D-03 BMatP= 2.39D-03
 IDIUse=1 WtCom= 1.00D+00 WtEn= 0.00D+00
 Coeff-Com:  0.126D+01-0.497D+01-0.445D+00 0.454D+01 0.153D+01-0.102D+01
 Coeff-Com: -0.175D+01-0.215D+01 0.400D+01
 Coeff:      0.126D+01-0.497D+01-0.445D+00 0.454D+01 0.153D+01-0.102D+01
 Coeff:     -0.175D+01-0.215D+01 0.400D+01
 Gap=     0.298 Goal=   None    Shift=    0.500
 Gap=     0.231 Goal=   None    Shift=    0.500
 GapD=    0.231 DampG=1.000 DampE=1.000 DampFc=1.0000 IDamp=-1.
 RMSDP=6.50D-04 MaxDP=4.41D-02 DE=-4.25D-03 OVMax= 4.89D-02

 Cycle  23  Pass 1  IDiag  1:
 E= -1258.73952520537     Delta-E=       -0.008393463620 Rises=F Damp=F
 DIIS: error= 6.37D-03 at cycle  23 NSaved=  10.
 NSaved=10 IEnMin=10 EnMin= -1258.73952520537     IErMin=10 ErrMin= 6.37D-03
 ErrMax= 6.37D-03  0.00D+00 EMaxC= 1.00D+00 BMatC= 3.92D-03 BMatP= 2.39D-03
 IDIUse=1 WtCom= 1.00D+00 WtEn= 0.00D+00
 Coeff-Com: -0.364D+01 0.348D+01 0.542D+00 0.156D+00-0.243D+01 0.123D+01
 Coeff-Com:  0.206D+01-0.521D-01-0.333D+01 0.299D+01
 Coeff:     -0.364D+01 0.348D+01 0.542D+00 0.156D+00-0.243D+01 0.123D+01
 Coeff:      0.206D+01-0.521D-01-0.333D+01 0.299D+01
 Gap=     0.287 Goal=   None    Shift=    0.500
 Gap=     0.249 Goal=   None    Shift=    0.500
 GapD=    0.249 DampG=1.000 DampE=1.000 DampFc=1.0000 IDamp=-1.
 RMSDP=4.29D-04 MaxDP=1.95D-02 DE=-8.39D-03 OVMax= 5.41D-02

 Cycle  24  Pass 1  IDiag  1:
 E= -1258.74051058591     Delta-E=       -0.000985380545 Rises=F Damp=F
 DIIS: error= 5.27D-03 at cycle  24 NSaved=  11.
 NSaved=11 IEnMin=11 EnMin= -1258.74051058591     IErMin=11 ErrMin= 5.27D-03
 ErrMax= 5.27D-03  0.00D+00 EMaxC= 1.00D+00 BMatC= 6.32D-03 BMatP= 2.39D-03
 IDIUse=1 WtCom= 1.00D+00 WtEn= 0.00D+00
 Coeff-Com: -0.364D+01 0.466D+01 0.217D+00-0.109D+01-0.201D+01 0.186D+01
 Coeff-Com:  0.170D+01-0.232D+00-0.330D+01 0.178D+01 0.105D+01
 Coeff:     -0.364D+01 0.466D+01 0.217D+00-0.109D+01-0.201D+01 0.186D+01
 Coeff:      0.170D+01-0.232D+00-0.330D+01 0.178D+01 0.105D+01
 Gap=     0.295 Goal=   None    Shift=    0.500
 Gap=     0.237 Goal=   None    Shift=    0.500
 GapD=    0.237 DampG=1.000 DampE=1.000 DampFc=1.0000 IDamp=-1.
 RMSDP=2.71D-04 MaxDP=1.38D-02 DE=-9.85D-04 OVMax= 3.31D-02

 Cycle  25  Pass 1  IDiag  1:
 E= -1258.74215362444     Delta-E=       -0.001643038527 Rises=F Damp=F
 DIIS: error= 4.09D-03 at cycle  25 NSaved=  12.
 NSaved=12 IEnMin=12 EnMin= -1258.74215362444     IErMin=12 ErrMin= 4.09D-03
 ErrMax= 4.09D-03  0.00D+00 EMaxC= 1.00D+00 BMatC= 3.56D-03 BMatP= 2.39D-03
 IDIUse=1 WtCom= 1.00D+00 WtEn= 0.00D+00
 Coeff-Com: -0.280D+01 0.241D+01 0.114D+01-0.717D+00-0.131D+01 0.108D+01
 Coeff-Com:  0.167D+01-0.459D+00-0.183D+01 0.457D+00-0.101D+01 0.237D+01
 Coeff:     -0.280D+01 0.241D+01 0.114D+01-0.717D+00-0.131D+01 0.108D+01
 Coeff:      0.167D+01-0.459D+00-0.183D+01 0.457D+00-0.101D+01 0.237D+01
 Gap=     0.293 Goal=   None    Shift=    0.500
 Gap=     0.240 Goal=   None    Shift=    0.500
 GapD=    0.240 DampG=1.000 DampE=1.000 DampFc=1.0000 IDamp=-1.
 RMSDP=2.08D-04 MaxDP=1.13D-02 DE=-1.64D-03 OVMax= 2.86D-02

 Cycle  26  Pass 1  IDiag  1:
 E= -1258.74290663992     Delta-E=       -0.000753015482 Rises=F Damp=F
 DIIS: error= 3.23D-03 at cycle  26 NSaved=  13.
 NSaved=13 IEnMin=13 EnMin= -1258.74290663992     IErMin=13 ErrMin= 3.23D-03
 ErrMax= 3.23D-03  0.00D+00 EMaxC= 1.00D+00 BMatC= 3.05D-03 BMatP= 2.39D-03
 IDIUse=1 WtCom= 1.00D+00 WtEn= 0.00D+00
 Coeff-Com: -0.500D+00-0.638D+00 0.944D+00 0.475D+00-0.548D+00-0.505D-01
 Coeff-Com:  0.114D+01-0.324D+00-0.580D+00 0.570D-01-0.186D+01 0.109D+01
 Coeff-Com:  0.179D+01
 Coeff:     -0.500D+00-0.638D+00 0.944D+00 0.475D+00-0.548D+00-0.505D-01
 Coeff:      0.114D+01-0.324D+00-0.580D+00 0.570D-01-0.186D+01 0.109D+01
 Coeff:      0.179D+01
 Gap=     0.301 Goal=   None    Shift=    0.500
 Gap=     0.223 Goal=   None    Shift=    0.500
 GapD=    0.223 DampG=1.000 DampE=1.000 DampFc=1.0000 IDamp=-1.
 RMSDP=2.77D-04 MaxDP=1.16D-02 DE=-7.53D-04 OVMax= 2.12D-02

 Cycle  27  Pass 1  IDiag  1:
 E= -1258.74396742528     Delta-E=       -0.001060785355 Rises=F Damp=F
 DIIS: error= 2.43D-03 at cycle  27 NSaved=  14.
 NSaved=14 IEnMin=14 EnMin= -1258.74396742528     IErMin=14 ErrMin= 2.43D-03
 ErrMax= 2.43D-03  0.00D+00 EMaxC= 1.00D+00 BMatC= 9.62D-04 BMatP= 2.39D-03
 IDIUse=1 WtCom= 1.00D+00 WtEn= 0.00D+00
 Coeff-Com: -0.874D+00-0.552D-01 0.842D+00 0.642D+00-0.114D+01-0.435D-01
 Coeff-Com:  0.721D+00 0.106D+01-0.144D+01 0.218D+00-0.329D+00-0.510D+00
 Coeff-Com: -0.268D+00 0.218D+01
 Coeff:     -0.874D+00-0.552D-01 0.842D+00 0.642D+00-0.114D+01-0.435D-01
 Coeff:      0.721D+00 0.106D+01-0.144D+01 0.218D+00-0.329D+00-0.510D+00
 Coeff:     -0.268D+00 0.218D+01
 Gap=     0.296 Goal=   None    Shift=    0.500
 Gap=     0.233 Goal=   None    Shift=    0.500
 GapD=    0.233 DampG=1.000 DampE=1.000 DampFc=1.0000 IDamp=-1.
 RMSDP=1.66D-04 MaxDP=8.34D-03 DE=-1.06D-03 OVMax= 2.37D-02

 Cycle  28  Pass 1  IDiag  1:
 E= -1258.74423749895     Delta-E=       -0.000270073671 Rises=F Damp=F
 DIIS: error= 1.82D-03 at cycle  28 NSaved=  15.
 NSaved=15 IEnMin=15 EnMin= -1258.74423749895     IErMin=15 ErrMin= 1.82D-03
 ErrMax= 1.82D-03  0.00D+00 EMaxC= 1.00D+00 BMatC= 1.12D-03 BMatP= 9.62D-04
 IDIUse=1 WtCom= 1.00D+00 WtEn= 0.00D+00
 Coeff-Com: -0.993D+00 0.141D+01-0.688D+00 0.426D+00-0.576D+00 0.308D+00
 Coeff-Com: -0.319D-01 0.684D+00-0.705D+00 0.216D+00 0.567D+00-0.776D+00
 Coeff-Com: -0.182D+01 0.119D+01 0.179D+01
 Coeff:     -0.993D+00 0.141D+01-0.688D+00 0.426D+00-0.576D+00 0.308D+00
 Coeff:     -0.319D-01 0.684D+00-0.705D+00 0.216D+00 0.567D+00-0.776D+00
 Coeff:     -0.182D+01 0.119D+01 0.179D+01
 Gap=     0.298 Goal=   None    Shift=    0.500
 Gap=     0.229 Goal=   None    Shift=    0.500
 GapD=    0.229 DampG=1.000 DampE=1.000 DampFc=1.0000 IDamp=-1.
 RMSDP=1.26D-04 MaxDP=6.00D-03 DE=-2.70D-04 OVMax= 1.77D-02

 Cycle  29  Pass 1  IDiag  1:
 E= -1258.74453449424     Delta-E=       -0.000296995296 Rises=F Damp=F
 DIIS: error= 1.31D-03 at cycle  29 NSaved=  16.
 NSaved=16 IEnMin=16 EnMin= -1258.74453449424     IErMin=16 ErrMin= 1.31D-03
 ErrMax= 1.31D-03  0.00D+00 EMaxC= 1.00D+00 BMatC= 7.67D-04 BMatP= 9.62D-04
 IDIUse=1 WtCom= 1.00D+00 WtEn= 0.00D+00
 Coeff-Com: -0.125D+01 0.176D+01-0.362D+00-0.131D+00-0.623D+00 0.476D+00
 Coeff-Com:  0.451D+00 0.135D+00-0.781D+00 0.433D+00 0.500D+00-0.294D+00
 Coeff-Com: -0.145D+01 0.560D+00-0.596D+00 0.218D+01
 Coeff:     -0.125D+01 0.176D+01-0.362D+00-0.131D+00-0.623D+00 0.476D+00
 Coeff:      0.451D+00 0.135D+00-0.781D+00 0.433D+00 0.500D+00-0.294D+00
 Coeff:     -0.145D+01 0.560D+00-0.596D+00 0.218D+01
 Gap=     0.298 Goal=   None    Shift=    0.500
 Gap=     0.228 Goal=   None    Shift=    0.500
 GapD=    0.228 DampG=1.000 DampE=1.000 DampFc=1.0000 IDamp=-1.
 RMSDP=8.00D-05 MaxDP=3.43D-03 DE=-2.97D-04 OVMax= 1.24D-02

 Cycle  30  Pass 1  IDiag  1:
 E= -1258.74469323448     Delta-E=       -0.000158740239 Rises=F Damp=F
 DIIS: error= 9.65D-04 at cycle  30 NSaved=  17.
 NSaved=17 IEnMin=17 EnMin= -1258.74469323448     IErMin=17 ErrMin= 9.65D-04
 ErrMax= 9.65D-04  0.00D+00 EMaxC= 1.00D+00 BMatC= 5.82D-04 BMatP= 7.67D-04
 IDIUse=1 WtCom= 1.00D+00 WtEn= 0.00D+00
 Coeff-Com: -0.792D+00 0.854D+00 0.353D+00-0.315D+00-0.567D+00 0.160D+00
 Coeff-Com:  0.901D+00-0.128D+00-0.813D+00 0.442D+00 0.703D-01-0.491D-01
 Coeff-Com: -0.372D+00 0.536D+00-0.149D+01 0.113D+00 0.210D+01
 Coeff:     -0.792D+00 0.854D+00 0.353D+00-0.315D+00-0.567D+00 0.160D+00
 Coeff:      0.901D+00-0.128D+00-0.813D+00 0.442D+00 0.703D-01-0.491D-01
 Coeff:     -0.372D+00 0.536D+00-0.149D+01 0.113D+00 0.210D+01
 Gap=     0.301 Goal=   None    Shift=    0.500
 Gap=     0.222 Goal=   None    Shift=    0.500
 RMSDP=9.61D-05 MaxDP=3.22D-03 DE=-1.59D-04 OVMax= 8.29D-03

 Cycle  31  Pass 1  IDiag  1:
 E= -1258.74487137749     Delta-E=       -0.000178143004 Rises=F Damp=F
 DIIS: error= 7.24D-04 at cycle  31 NSaved=  18.
 NSaved=18 IEnMin=18 EnMin= -1258.74487137749     IErMin=18 ErrMin= 7.24D-04
 ErrMax= 7.24D-04  0.00D+00 EMaxC= 1.00D+00 BMatC= 2.19D-04 BMatP= 5.82D-04
 IDIUse=1 WtCom= 1.00D+00 WtEn= 0.00D+00
 Coeff-Com: -0.370D+00 0.407D-01 0.524D+00-0.953D-01-0.191D+00-0.180D+00
 Coeff-Com:  0.481D+00 0.131D+00-0.497D+00 0.593D-01 0.150D-01-0.787D-01
 Coeff-Com:  0.258D+00 0.227D+00-0.137D-01-0.149D+01-0.266D+00 0.245D+01
 Coeff:     -0.370D+00 0.407D-01 0.524D+00-0.953D-01-0.191D+00-0.180D+00
 Coeff:      0.481D+00 0.131D+00-0.497D+00 0.593D-01 0.150D-01-0.787D-01
 Coeff:      0.258D+00 0.227D+00-0.137D-01-0.149D+01-0.266D+00 0.245D+01
 Gap=     0.300 Goal=   None    Shift=    0.500
 Gap=     0.222 Goal=   None    Shift=    0.500
 RMSDP=5.14D-05 MaxDP=2.01D-03 DE=-1.78D-04 OVMax= 7.67D-03

 Cycle  32  Pass 1  IDiag  1:
 E= -1258.74494118000     Delta-E=       -0.000069802517 Rises=F Damp=F
 DIIS: error= 5.23D-04 at cycle  32 NSaved=  19.
 NSaved=19 IEnMin=19 EnMin= -1258.74494118000     IErMin=19 ErrMin= 5.23D-04
 ErrMax= 5.23D-04  0.00D+00 EMaxC= 1.00D+00 BMatC= 1.26D-04 BMatP= 2.19D-04
 IDIUse=1 WtCom= 1.00D+00 WtEn= 0.00D+00
 Coeff-Com: -0.177D+00 0.138D+00-0.142D+00 0.207D+00-0.891D-01 0.704D-01
 Coeff-Com: -0.822D-01 0.165D+00-0.574D-01-0.839D-01-0.290D-01 0.240D-01
 Coeff-Com: -0.462D-01 0.130D+00 0.346D+00-0.250D+00-0.734D+00-0.128D+01
 Coeff-Com:  0.289D+01
 Coeff:     -0.177D+00 0.138D+00-0.142D+00 0.207D+00-0.891D-01 0.704D-01
 Coeff:     -0.822D-01 0.165D+00-0.574D-01-0.839D-01-0.290D-01 0.240D-01
 Coeff:     -0.462D-01 0.130D+00 0.346D+00-0.250D+00-0.734D+00-0.128D+01
 Coeff:      0.289D+01
 Gap=     0.301 Goal=   None    Shift=    0.500
 Gap=     0.222 Goal=   None    Shift=    0.500
 RMSDP=3.44D-05 MaxDP=1.46D-03 DE=-6.98D-05 OVMax= 5.81D-03

 >>>>>>>>>> Convergence criterion not met.
 SCF Done:  E(ULC-wHPBE) =  -1258.74494118     A.U. after   33 cycles
            NFock= 32  Conv=0.34D-04     -V/T= 2.0034
 <Sx>= 0.0000 <Sy>= 0.0000 <Sz>= 0.5000 <S**2>= 0.7624 S= 0.5062
 <L.S>= 0.000000000000E+00
 KE= 1.254492476266D+03 PE=-5.029216813389D+03 EE= 1.475337327623D+03
 Annihilation of the first spin contaminant:
 S**2 before annihilation     0.7624,   after     0.7501
 Leave Link  502 at Tue Jan 26 00:08:28 2021, MaxMem=  4026531840 cpu:            3495.3 elap:             437.4
 (Enter /opt/ohpc/pub/libs/gaussian/g16-A.03/sandybridge/g16/l508.exe)
 Integral symmetry usage will be decided dynamically.
 Tight linear equation convergence will be used.
 ULC-wHPBE wavefunction.
 Quadratic Convergence SCF Method.
 Line search only if initial step raises energy.
 FoFJK:  IHMeth= 1 ICntrl=       0 DoSepK=T KAlg= 0 I1Cent=           0 FoldK=F
 IRaf=         1 NMat=       1 IRICut=       1 DoRegI=T DoRafI=F ISym2E= 1 IDoP0=0 IntGTp=1.
 FoFCou: FMM=F IPFlag=           0 FMFlag=      100000 FMFlg1=           0
         NFxFlg=           0 DoJE=T BraDBF=F KetDBF=F FulRan=T
         wScrn=  0.000000 ICntrl=       500 IOpCl=  0 I1Cent=           0 NGrid=           0
         NMat0=    1 NMatS0=      1 NMatT0=    0 NMatD0=    1 NMtDS0=    0 NMtDT0=    0
 Petite list used in FoFCou.
 Iteration   1 EE= -1258.74497538597                                    Grad=6.614D-03 Max rot=    0.0692 deg.
 QCNR:  CnvC1=6.61D-08 CnvC2=6.61D-07
 LinEq1:  Iter=  0 NonCon=     1 RMS=6.49D-05 Max=5.46D-03 NDo=     1
 AX will form     1 AO Fock derivatives at one time.
 LinEq1:  Iter=  1 NonCon=     1 RMS=5.01D-05 Max=5.91D-03 NDo=     1
 LinEq1:  Iter=  2 NonCon=     1 RMS=2.48D-05 Max=1.39D-03 NDo=     1
 LinEq1:  Iter=  3 NonCon=     1 RMS=1.12D-05 Max=3.89D-04 NDo=     1
 LinEq1:  Iter=  4 NonCon=     1 RMS=6.93D-06 Max=2.40D-04 NDo=     1
 LinEq1:  Iter=  5 NonCon=     1 RMS=4.24D-06 Max=1.39D-04 NDo=     1
 LinEq1:  Iter=  6 NonCon=     1 RMS=2.31D-06 Max=7.61D-05 NDo=     1
 LinEq1:  Iter=  7 NonCon=     1 RMS=1.33D-06 Max=3.89D-05 NDo=     1
 LinEq1:  Iter=  8 NonCon=     1 RMS=6.98D-07 Max=3.13D-05 NDo=     1
 LinEq1:  Iter=  9 NonCon=     1 RMS=3.29D-07 Max=1.77D-05 NDo=     1
 LinEq1:  Iter= 10 NonCon=     1 RMS=1.84D-07 Max=9.40D-06 NDo=     1
 LinEq1:  Iter= 11 NonCon=     1 RMS=8.82D-08 Max=3.98D-06 NDo=     1
 LinEq1:  Iter= 12 NonCon=     1 RMS=5.67D-08 Max=2.12D-06 NDo=     1
 LinEq1:  Iter= 13 NonCon=     1 RMS=3.03D-08 Max=8.44D-07 NDo=     1
 LinEq1:  Iter= 14 NonCon=     0 RMS=1.15D-08 Max=4.30D-07 NDo=     1
 Linear equations converged to 6.614D-08 6.614D-07 after    14 iterations.
 Angle between quadratic step and gradient=  62.65 degrees.
     ILin= 1 X=0.000D+00 Y=-1.258744975386D+03 DE= 0.00D+00 F= -1.09D-04
     ILin= 2 X=1.000D+00 Y=-1.258745030679D+03 DE=-5.53D-05
 Iteration   2 EE= -1258.74503067876     Delta-E=       -0.000055292790 Grad=1.054D-04 Max rot=    0.0031 deg.
 Rotation gradient small -- convergence achieved.
 SCF Done:  E(ULC-wHPBE) =  -1258.74503068     a.u. after    2 cycles
            Convg  =    0.1054D-03                    16 Fock formations.
              S**2 =  0.7610                  -V/T =  2.0034
 <Sx>= 0.0000 <Sy>= 0.0000 <Sz>= 0.5000 <S**2>= 0.7610 S= 0.5055
 <L.S>= 0.000000000000E+00
 Annihilation of the first spin contaminant:
 S**2 before annihilation     0.7610,   after     0.7501
 Leave Link  508 at Tue Jan 26 00:12:04 2021, MaxMem=  4026531840 cpu:            1727.1 elap:             216.5
 (Enter /opt/ohpc/pub/libs/gaussian/g16-A.03/sandybridge/g16/l601.exe)
 Copying SCF densities to generalized density rwf, IOpCl= 1 IROHF=0.

 **********************************************************************

            Population analysis using the SCF density.

 **********************************************************************

 Orbital symmetries:
 Alpha Orbitals:
       Occupied  (A) (A) (A) (A) (A) (A) (A) (A) (A) (A) (A) (A)
                 (A) (A) (A) (A) (A) (A) (A) (A) (A) (A) (A) (A)
                 (A) (A) (A) (A) (A) (A) (A) (A) (A) (A) (A) (A)
                 (A) (A) (A) (A) (A) (A) (A) (A) (A) (A) (A) (A)
                 (A) (A) (A) (A) (A) (A) (A) (A) (A)
       Virtual   (A) (A) (A) (A) (A) (A) (A) (A) (A) (A) (A) (A)
                 (A) (A) (A) (A) (A) (A) (A) (A) (A) (A) (A) (A)
                 (A) (A) (A) (A) (A) (A) (A) (A) (A) (A) (A) (A)
                 (A) (A) (A) (A) (A) (A) (A) (A) (A) (A) (A) (A)
                 (A) (A) (A) (A) (A) (A) (A) (A) (A) (A) (A) (A)
                 (A) (A) (A) (A) (A) (A) (A) (A) (A) (A) (A) (A)
                 (A) (A) (A) (A) (A) (A) (A) (A) (A) (A) (A) (A)
                 (A) (A) (A) (A) (A) (A) (A) (A) (A) (A) (A) (A)
                 (A) (A) (A) (A) (A) (A) (A) (A) (A) (A) (A) (A)
                 (A) (A) (A) (A) (A) (A) (A) (A) (A) (A) (A) (A)
                 (A) (A) (A) (A) (A) (A) (A) (A) (A) (A) (A) (A)
                 (A) (A) (A) (A) (A) (A) (A) (A) (A) (A) (A) (A)
                 (A) (A) (A) (A) (A) (A) (A) (A) (A) (A) (A) (A)
                 (A) (A) (A) (A) (A) (A) (A) (A) (A) (A) (A) (A)
                 (A) (A) (A) (A) (A) (A) (A) (A) (A) (A) (A) (A)
                 (A) (A) (A) (A) (A) (A) (A) (A) (A) (A) (A) (A)
                 (A) (A) (A) (A) (A) (A) (A) (A) (A) (A) (A) (A)
                 (A) (A) (A) (A) (A) (A) (A) (A) (A) (A) (A) (A)
                 (A) (A) (A) (A) (A) (A) (A) (A) (A) (A) (A) (A)
                 (A) (A) (A) (A) (A) (A) (A) (A) (A) (A) (A) (A)
                 (A) (A) (A) (A) (A) (A) (A) (A) (A) (A) (A) (A)
                 (A) (A) (A) (A) (A) (A) (A) (A) (A) (A) (A) (A)
                 (A) (A) (A) (A) (A) (A) (A) (A) (A) (A) (A)
 Beta  Orbitals:
       Occupied  (A) (A) (A) (A) (A) (A) (A) (A) (A) (A) (A) (A)
                 (A) (A) (A) (A) (A) (A) (A) (A) (A) (A) (A) (A)
                 (A) (A) (A) (A) (A) (A) (A) (A) (A) (A) (A) (A)
                 (A) (A) (A) (A) (A) (A) (A) (A) (A) (A) (A) (A)
                 (A) (A) (A) (A) (A) (A) (A) (A)
       Virtual   (A) (A) (A) (A) (A) (A) (A) (A) (A) (A) (A) (A)
                 (A) (A) (A) (A) (A) (A) (A) (A) (A) (A) (A) (A)
                 (A) (A) (A) (A) (A) (A) (A) (A) (A) (A) (A) (A)
                 (A) (A) (A) (A) (A) (A) (A) (A) (A) (A) (A) (A)
                 (A) (A) (A) (A) (A) (A) (A) (A) (A) (A) (A) (A)
                 (A) (A) (A) (A) (A) (A) (A) (A) (A) (A) (A) (A)
                 (A) (A) (A) (A) (A) (A) (A) (A) (A) (A) (A) (A)
                 (A) (A) (A) (A) (A) (A) (A) (A) (A) (A) (A) (A)
                 (A) (A) (A) (A) (A) (A) (A) (A) (A) (A) (A) (A)
                 (A) (A) (A) (A) (A) (A) (A) (A) (A) (A) (A) (A)
                 (A) (A) (A) (A) (A) (A) (A) (A) (A) (A) (A) (A)
                 (A) (A) (A) (A) (A) (A) (A) (A) (A) (A) (A) (A)
                 (A) (A) (A) (A) (A) (A) (A) (A) (A) (A) (A) (A)
                 (A) (A) (A) (A) (A) (A) (A) (A) (A) (A) (A) (A)
                 (A) (A) (A) (A) (A) (A) (A) (A) (A) (A) (A) (A)
                 (A) (A) (A) (A) (A) (A) (A) (A) (A) (A) (A) (A)
                 (A) (A) (A) (A) (A) (A) (A) (A) (A) (A) (A) (A)
                 (A) (A) (A) (A) (A) (A) (A) (A) (A) (A) (A) (A)
                 (A) (A) (A) (A) (A) (A) (A) (A) (A) (A) (A) (A)
                 (A) (A) (A) (A) (A) (A) (A) (A) (A) (A) (A) (A)
                 (A) (A) (A) (A) (A) (A) (A) (A) (A) (A) (A) (A)
                 (A) (A) (A) (A) (A) (A) (A) (A) (A) (A) (A) (A)
                 (A) (A) (A) (A) (A) (A) (A) (A) (A) (A) (A) (A)
 The electronic state is 2-A.
 Alpha  occ. eigenvalues --  -88.47665 -88.35431 -10.22867 -10.21914 -10.21672
 Alpha  occ. eigenvalues --  -10.20894 -10.18289 -10.17236 -10.17204 -10.16598
 Alpha  occ. eigenvalues --  -10.16518 -10.15814 -10.15584 -10.15387  -8.06711
 Alpha  occ. eigenvalues --   -7.94749  -6.08610  -6.08553  -6.07824  -5.96927
 Alpha  occ. eigenvalues --   -5.96434  -5.95659  -1.12573  -1.08387  -1.05051
 Alpha  occ. eigenvalues --   -0.99775  -0.97495  -0.97218  -0.93836  -0.91042
 Alpha  occ. eigenvalues --   -0.84026  -0.82969  -0.82616  -0.79858  -0.75478
 Alpha  occ. eigenvalues --   -0.73994  -0.70764  -0.69243  -0.68590  -0.67496
 Alpha  occ. eigenvalues --   -0.65729  -0.65198  -0.64159  -0.63172  -0.62263
 Alpha  occ. eigenvalues --   -0.61184  -0.59171  -0.58606  -0.56499  -0.56173
 Alpha  occ. eigenvalues --   -0.54445  -0.51777  -0.50667  -0.49743  -0.49114
 Alpha  occ. eigenvalues --   -0.47981  -0.43723
 Alpha virt. eigenvalues --   -0.13550  -0.13204  -0.11641  -0.10227  -0.09168
 Alpha virt. eigenvalues --   -0.07388  -0.05309  -0.03965  -0.00754   0.00536
 Alpha virt. eigenvalues --    0.01463   0.02811   0.03067   0.04287   0.04748
 Alpha virt. eigenvalues --    0.05549   0.06141   0.06256   0.07541   0.08004
 Alpha virt. eigenvalues --    0.08774   0.09409   0.10133   0.10635   0.12896
 Alpha virt. eigenvalues --    0.13120   0.14269   0.15236   0.15776   0.15888
 Alpha virt. eigenvalues --    0.16646   0.16956   0.17309   0.17707   0.17964
 Alpha virt. eigenvalues --    0.18423   0.19230   0.19755   0.20133   0.21131
 Alpha virt. eigenvalues --    0.21462   0.22238   0.23433   0.23886   0.24591
 Alpha virt. eigenvalues --    0.25904   0.27214   0.27322   0.28432   0.28463
 Alpha virt. eigenvalues --    0.29222   0.29536   0.30509   0.30981   0.32053
 Alpha virt. eigenvalues --    0.32590   0.32936   0.33377   0.34797   0.35272
 Alpha virt. eigenvalues --    0.36493   0.36720   0.37236   0.38045   0.38222
 Alpha virt. eigenvalues --    0.38397   0.39563   0.40058   0.40668   0.41601
 Alpha virt. eigenvalues --    0.42221   0.42515   0.43004   0.43564   0.44392
 Alpha virt. eigenvalues --    0.45294   0.46161   0.47493   0.48168   0.49386
 Alpha virt. eigenvalues --    0.50594   0.52087   0.54544   0.55839   0.57381
 Alpha virt. eigenvalues --    0.58379   0.59202   0.60238   0.61486   0.62033
 Alpha virt. eigenvalues --    0.63299   0.65130   0.65774   0.67222   0.69370
 Alpha virt. eigenvalues --    0.70612   0.74702   0.76400   0.76656   0.77863
 Alpha virt. eigenvalues --    0.80225   0.80658   0.82474   0.84371   0.85418
 Alpha virt. eigenvalues --    0.93559   0.95651   1.06153   1.10139   1.10570
 Alpha virt. eigenvalues --    1.12308   1.13335   1.13918   1.14453   1.15811
 Alpha virt. eigenvalues --    1.16353   1.17196   1.18330   1.18854   1.20011
 Alpha virt. eigenvalues --    1.20545   1.21221   1.21881   1.22620   1.24487
 Alpha virt. eigenvalues --    1.25576   1.26785   1.28607   1.30129   1.30535
 Alpha virt. eigenvalues --    1.31865   1.33184   1.33621   1.33984   1.34429
 Alpha virt. eigenvalues --    1.35111   1.35778   1.36042   1.36138   1.37634
 Alpha virt. eigenvalues --    1.37821   1.39351   1.40069   1.40906   1.41611
 Alpha virt. eigenvalues --    1.42328   1.42991   1.43878   1.44531   1.45938
 Alpha virt. eigenvalues --    1.46390   1.46654   1.48148   1.48682   1.50554
 Alpha virt. eigenvalues --    1.51727   1.52257   1.53786   1.54072   1.54686
 Alpha virt. eigenvalues --    1.58146   1.60502   1.63464   1.65247   1.65817
 Alpha virt. eigenvalues --    1.67164   1.67594   1.68878   1.69630   1.69916
 Alpha virt. eigenvalues --    1.70545   1.71769   1.72642   1.74522   1.75565
 Alpha virt. eigenvalues --    1.77467   1.78508   1.78944   1.79291   1.79504
 Alpha virt. eigenvalues --    1.81194   1.81683   1.82714   1.86230   1.86447
 Alpha virt. eigenvalues --    1.87526   1.88312   1.88931   1.89185   1.89953
 Alpha virt. eigenvalues --    1.91703   1.94323   1.96054   1.98151   2.00771
 Alpha virt. eigenvalues --    2.04038   2.07083   2.11408   2.11895   2.14253
 Alpha virt. eigenvalues --    2.15262   2.16803   2.17626   2.18788   2.19502
 Alpha virt. eigenvalues --    2.20269   2.21003   2.22837   2.23055   2.23698
 Alpha virt. eigenvalues --    2.24848   2.25661   2.27887   2.28965   2.31405
 Alpha virt. eigenvalues --    2.32301   2.37629   2.38457   2.40841   2.41353
 Alpha virt. eigenvalues --    2.41958   2.44058   2.46215   2.47372   2.49606
 Alpha virt. eigenvalues --    2.50130   2.51711   2.52756   2.53737   2.54435
 Alpha virt. eigenvalues --    2.55078   2.55787   2.56011   2.57826   2.62988
 Alpha virt. eigenvalues --    2.66698   2.69466   2.70091   2.71655   2.77348
 Alpha virt. eigenvalues --    2.87412   2.90252   2.92275   2.93387   2.97454
 Alpha virt. eigenvalues --    2.98315   2.99725   3.01161   3.02055   3.03399
 Alpha virt. eigenvalues --    3.05705   3.07603   3.10269   3.17312   3.18271
 Alpha virt. eigenvalues --    3.20864   3.28240   3.37242   3.42515   3.55604
 Alpha virt. eigenvalues --    3.60682  18.82447  18.90149  20.93471  21.14638
 Alpha virt. eigenvalues --   21.46041  21.51457  21.54474  21.57451  21.74156
 Alpha virt. eigenvalues --   21.78725  21.80819  21.82289  21.93905  21.97418
  Beta  occ. eigenvalues --  -88.47651 -88.35431 -10.22866 -10.21676 -10.20891
  Beta  occ. eigenvalues --  -10.20352 -10.18191 -10.17242 -10.17203 -10.16588
  Beta  occ. eigenvalues --  -10.16471 -10.15816 -10.15582 -10.15387  -8.06695
  Beta  occ. eigenvalues --   -7.94748  -6.08589  -6.08534  -6.07806  -5.96927
  Beta  occ. eigenvalues --   -5.96433  -5.95658  -1.12330  -1.08122  -1.04905
  Beta  occ. eigenvalues --   -0.99763  -0.97160  -0.96532  -0.93623  -0.90990
  Beta  occ. eigenvalues --   -0.83594  -0.82618  -0.82532  -0.79502  -0.75007
  Beta  occ. eigenvalues --   -0.73918  -0.70595  -0.69012  -0.68092  -0.67296
  Beta  occ. eigenvalues --   -0.65600  -0.64899  -0.64034  -0.62973  -0.62134
  Beta  occ. eigenvalues --   -0.60124  -0.59015  -0.58298  -0.56425  -0.55842
  Beta  occ. eigenvalues --   -0.54444  -0.50849  -0.49519  -0.48649  -0.47829
  Beta  occ. eigenvalues --   -0.43720
  Beta virt. eigenvalues --   -0.21915  -0.13392  -0.12593  -0.11431  -0.10037
  Beta virt. eigenvalues --   -0.08670  -0.07287  -0.05167  -0.03767  -0.00735
  Beta virt. eigenvalues --    0.00673   0.01490   0.03023   0.03144   0.04703
  Beta virt. eigenvalues --    0.05037   0.05588   0.06297   0.06580   0.07605
  Beta virt. eigenvalues --    0.08116   0.08906   0.09669   0.10266   0.11150
  Beta virt. eigenvalues --    0.13143   0.13455   0.14462   0.15332   0.15935
  Beta virt. eigenvalues --    0.16081   0.16878   0.17147   0.17749   0.17976
  Beta virt. eigenvalues --    0.18242   0.18733   0.19628   0.19891   0.20513
  Beta virt. eigenvalues --    0.21335   0.21621   0.22264   0.23598   0.24194
  Beta virt. eigenvalues --    0.24890   0.26585   0.27270   0.27384   0.28571
  Beta virt. eigenvalues --    0.28914   0.29397   0.29668   0.30764   0.31041
  Beta virt. eigenvalues --    0.32379   0.32797   0.33218   0.33495   0.35135
  Beta virt. eigenvalues --    0.35323   0.36570   0.36827   0.37408   0.38132
  Beta virt. eigenvalues --    0.38380   0.38527   0.39716   0.40234   0.40887
  Beta virt. eigenvalues --    0.41778   0.42695   0.42901   0.43112   0.43697
  Beta virt. eigenvalues --    0.44627   0.45375   0.46284   0.47800   0.48668
  Beta virt. eigenvalues --    0.49575   0.50957   0.52188   0.54669   0.56074
  Beta virt. eigenvalues --    0.57600   0.59013   0.59641   0.60597   0.61676
  Beta virt. eigenvalues --    0.62101   0.63496   0.65201   0.65915   0.67323
  Beta virt. eigenvalues --    0.69419   0.70821   0.74915   0.76516   0.76865
  Beta virt. eigenvalues --    0.77915   0.80332   0.80799   0.82556   0.84455
  Beta virt. eigenvalues --    0.85485   0.93693   0.95752   1.06188   1.10355
  Beta virt. eigenvalues --    1.10961   1.12495   1.13575   1.14233   1.14706
  Beta virt. eigenvalues --    1.16009   1.16601   1.17221   1.18391   1.19086
  Beta virt. eigenvalues --    1.20220   1.20644   1.21450   1.22259   1.22658
  Beta virt. eigenvalues --    1.25736   1.26479   1.27985   1.29107   1.30272
  Beta virt. eigenvalues --    1.30845   1.32393   1.33664   1.34288   1.34568
  Beta virt. eigenvalues --    1.35023   1.35340   1.35894   1.36118   1.36806
  Beta virt. eigenvalues --    1.37663   1.38244   1.39733   1.40386   1.41696
  Beta virt. eigenvalues --    1.42042   1.42556   1.43376   1.44544   1.45046
  Beta virt. eigenvalues --    1.46116   1.47131   1.47619   1.48935   1.50029
  Beta virt. eigenvalues --    1.50864   1.51917   1.53294   1.53929   1.54943
  Beta virt. eigenvalues --    1.55214   1.59064   1.61003   1.63911   1.65886
  Beta virt. eigenvalues --    1.65949   1.67192   1.67797   1.68925   1.69722
  Beta virt. eigenvalues --    1.69984   1.70609   1.72064   1.72971   1.74874
  Beta virt. eigenvalues --    1.76105   1.77668   1.78643   1.79042   1.79528
  Beta virt. eigenvalues --    1.79592   1.81208   1.81720   1.82809   1.86571
  Beta virt. eigenvalues --    1.86875   1.87733   1.88508   1.89121   1.89322
  Beta virt. eigenvalues --    1.90349   1.91826   1.94471   1.96184   1.99029
  Beta virt. eigenvalues --    2.00923   2.04169   2.07282   2.12198   2.12743
  Beta virt. eigenvalues --    2.14398   2.15642   2.17467   2.17921   2.19021
  Beta virt. eigenvalues --    2.20132   2.20470   2.21249   2.23002   2.23177
  Beta virt. eigenvalues --    2.23758   2.24910   2.25756   2.28047   2.29955
  Beta virt. eigenvalues --    2.32405   2.32448   2.37685   2.38641   2.40963
  Beta virt. eigenvalues --    2.41812   2.42187   2.44206   2.46598   2.47523
  Beta virt. eigenvalues --    2.49680   2.50298   2.51933   2.53366   2.53807
  Beta virt. eigenvalues --    2.54504   2.55513   2.55887   2.56516   2.57955
  Beta virt. eigenvalues --    2.63010   2.67282   2.69523   2.70879   2.71670
  Beta virt. eigenvalues --    2.78648   2.87415   2.90778   2.92278   2.94402
  Beta virt. eigenvalues --    2.98081   2.98335   2.99982   3.01176   3.02114
  Beta virt. eigenvalues --    3.04184   3.05909   3.07646   3.11626   3.17322
  Beta virt. eigenvalues --    3.18703   3.21190   3.28248   3.39045   3.42537
  Beta virt. eigenvalues --    3.56099   3.60685  18.82451  18.90183  20.93474
  Beta virt. eigenvalues --   21.14995  21.46809  21.52063  21.54715  21.57455
  Beta virt. eigenvalues --   21.74638  21.78737  21.80873  21.82334  21.94157
  Beta virt. eigenvalues --   21.97470
          Condensed to atoms (all electrons):
               1          2          3          4          5          6
     1  C    6.021382  -0.152802  -0.101646   0.231091   0.004682  -0.016666
     2  C   -0.152802   6.242354   0.476107  -0.398189  -0.014315  -0.013485
     3  S   -0.101646   0.476107  15.469203  -0.184852   0.058645  -0.064551
     4  C    0.231091  -0.398189  -0.184852   6.666925  -0.049787   0.021457
     5  C    0.004682  -0.014315   0.058645  -0.049787   6.244482   0.037961
     6  C   -0.016666  -0.013485  -0.064551   0.021457   0.037961   5.678534
     7  C   -0.223427   0.296522   0.049738  -0.328397  -0.001614   0.004583
     8  C   -0.368664   0.033046   0.023455  -0.256232   0.001876   0.011903
     9  H   -0.000718   0.005013   0.003882  -0.031025  -0.032414   0.007613
    10  C   -0.002335   0.012113  -0.034968  -0.004803  -0.041142   0.060672
    11  C    0.002766   0.003233   0.015866  -0.010334   0.061369   0.249467
    12  C   -0.000546  -0.001119  -0.015055   0.001110  -0.225668   0.128455
    13  C    0.000217   0.001428   0.019062  -0.001077   0.127837  -0.143773
    14  H   -0.000051   0.000346  -0.000982  -0.000424  -0.083118   0.006790
    15  H    0.000057   0.000120  -0.000235  -0.000213   0.016982  -0.053931
    16  H   -0.000003  -0.000045  -0.000454   0.000026  -0.004693   0.015768
    17  H    0.000001   0.000028   0.000186  -0.000015   0.022075  -0.000822
    18  C    0.269534  -0.236289  -0.009609   0.249745   0.000570  -0.003412
    19  H    0.454384  -0.108767  -0.016512   0.036014   0.000198  -0.000475
    20  H   -0.035259  -0.015124   0.335328   0.012195   0.000048   0.002582
    21  H   -0.058661   0.021479   0.000080  -0.004418  -0.000006   0.000014
    22  H   -0.002766   0.026366   0.000022  -0.083854   0.000797   0.000032
    23  H    0.020154  -0.002383  -0.000040   0.027964   0.000009  -0.000010
    24  S    0.018954  -0.200269  -0.007480   0.409002   0.178582  -0.032507
               7          8          9         10         11         12
     1  C   -0.223427  -0.368664  -0.000718  -0.002335   0.002766  -0.000546
     2  C    0.296522   0.033046   0.005013   0.012113   0.003233  -0.001119
     3  S    0.049738   0.023455   0.003882  -0.034968   0.015866  -0.015055
     4  C   -0.328397  -0.256232  -0.031025  -0.004803  -0.010334   0.001110
     5  C   -0.001614   0.001876  -0.032414  -0.041142   0.061369  -0.225668
     6  C    0.004583   0.011903   0.007613   0.060672   0.249467   0.128455
     7  C    5.509226   0.278302   0.000430   0.000501  -0.000681   0.000093
     8  C    0.278302   5.919418  -0.001192  -0.001750  -0.003440   0.000271
     9  H    0.000430  -0.001192   0.556968  -0.001132  -0.000404  -0.000062
    10  C    0.000501  -0.001750  -0.001132   5.530922  -0.237937   0.130903
    11  C   -0.000681  -0.003440  -0.000404  -0.237937   5.241876   0.267679
    12  C    0.000093   0.000271  -0.000062   0.130903   0.267679   5.132096
    13  C   -0.000056   0.000087   0.003577   0.228496   0.155732   0.287528
    14  H    0.000006  -0.000118   0.000340   0.405767  -0.002301   0.012123
    15  H   -0.000012  -0.000068   0.000001   0.001171   0.402092  -0.040496
    16  H    0.000000   0.000001  -0.000002   0.016852  -0.050081   0.421866
    17  H   -0.000000  -0.000002   0.000003  -0.054009   0.012621  -0.044574
    18  C    0.164541   0.102104  -0.001672  -0.000347   0.000527  -0.000048
    19  H   -0.052145  -0.006600  -0.000014  -0.000041   0.000085  -0.000025
    20  H    0.003253   0.001145   0.000034  -0.000146  -0.000186   0.000098
    21  H    0.427587   0.021001   0.000002   0.000001  -0.000002   0.000000
    22  H    0.011704   0.393930   0.000517   0.000095  -0.000043   0.000002
    23  H   -0.061140  -0.073528  -0.000005  -0.000001   0.000002  -0.000000
    24  S   -0.005268  -0.030477   0.322357  -0.085990   0.006879   0.002099
              13         14         15         16         17         18
     1  C    0.000217  -0.000051   0.000057  -0.000003   0.000001   0.269534
     2  C    0.001428   0.000346   0.000120  -0.000045   0.000028  -0.236289
     3  S    0.019062  -0.000982  -0.000235  -0.000454   0.000186  -0.009609
     4  C   -0.001077  -0.000424  -0.000213   0.000026  -0.000015   0.249745
     5  C    0.127837  -0.083118   0.016982  -0.004693   0.022075   0.000570
     6  C   -0.143773   0.006790  -0.053931   0.015768  -0.000822  -0.003412
     7  C   -0.000056   0.000006  -0.000012   0.000000  -0.000000   0.164541
     8  C    0.000087  -0.000118  -0.000068   0.000001  -0.000002   0.102104
     9  H    0.003577   0.000340   0.000001  -0.000002   0.000003  -0.001672
    10  C    0.228496   0.405767   0.001171   0.016852  -0.054009  -0.000347
    11  C    0.155732  -0.002301   0.402092  -0.050081   0.012621   0.000527
    12  C    0.287528   0.012123  -0.040496   0.421866  -0.044574  -0.000048
    13  C    5.097216  -0.000628   0.011070  -0.053468   0.410901   0.000026
    14  H   -0.000628   0.502117   0.000024  -0.000094  -0.005264   0.000003
    15  H    0.011070   0.000024   0.491405  -0.007287  -0.000114   0.000008
    16  H   -0.053468  -0.000094  -0.007287   0.497902  -0.005046  -0.000000
    17  H    0.410901  -0.005264  -0.000114  -0.005046   0.497897   0.000000
    18  C    0.000026   0.000003   0.000008  -0.000000   0.000000   5.188176
    19  H    0.000011  -0.000001   0.000004  -0.000000   0.000000   0.018977
    20  H   -0.000244  -0.000000  -0.000009   0.000004   0.000001  -0.000737
    21  H   -0.000000   0.000000  -0.000000   0.000000  -0.000000  -0.060100
    22  H    0.000005   0.000001  -0.000000   0.000000  -0.000000  -0.010618
    23  H    0.000000  -0.000000   0.000000  -0.000000   0.000000   0.434721
    24  S    0.014980  -0.008316  -0.000546   0.000037  -0.000218   0.011465
              19         20         21         22         23         24
     1  C    0.454384  -0.035259  -0.058661  -0.002766   0.020154   0.018954
     2  C   -0.108767  -0.015124   0.021479   0.026366  -0.002383  -0.200269
     3  S   -0.016512   0.335328   0.000080   0.000022  -0.000040  -0.007480
     4  C    0.036014   0.012195  -0.004418  -0.083854   0.027964   0.409002
     5  C    0.000198   0.000048  -0.000006   0.000797   0.000009   0.178582
     6  C   -0.000475   0.002582   0.000014   0.000032  -0.000010  -0.032507
     7  C   -0.052145   0.003253   0.427587   0.011704  -0.061140  -0.005268
     8  C   -0.006600   0.001145   0.021001   0.393930  -0.073528  -0.030477
     9  H   -0.000014   0.000034   0.000002   0.000517  -0.000005   0.322357
    10  C   -0.000041  -0.000146   0.000001   0.000095  -0.000001  -0.085990
    11  C    0.000085  -0.000186  -0.000002  -0.000043   0.000002   0.006879
    12  C   -0.000025   0.000098   0.000000   0.000002  -0.000000   0.002099
    13  C    0.000011  -0.000244  -0.000000   0.000005   0.000000   0.014980
    14  H   -0.000001  -0.000000   0.000000   0.000001  -0.000000  -0.008316
    15  H    0.000004  -0.000009  -0.000000  -0.000000   0.000000  -0.000546
    16  H   -0.000000   0.000004   0.000000   0.000000  -0.000000   0.000037
    17  H    0.000000   0.000001  -0.000000  -0.000000   0.000000  -0.000218
    18  C    0.018977  -0.000737  -0.060100  -0.010618   0.434721   0.011465
    19  H    0.515967  -0.002233  -0.006875  -0.000067  -0.000112   0.000130
    20  H   -0.002233   0.561528   0.000020   0.000006  -0.000004  -0.000158
[...]
     6  C    0.008229  -0.000396  -0.008706   0.000677   0.000409  -0.000768
     7  C   -0.000002  -0.000000  -0.000001  -0.000000   0.000000   0.000022
     8  C   -0.000007   0.000018  -0.000000   0.000000  -0.000000  -0.001812
     9  H    0.000048  -0.000385  -0.000000  -0.000001   0.000006  -0.000047
    10  C   -0.001460  -0.012656  -0.001264  -0.002599   0.005300  -0.000041
    11  C   -0.010692   0.000676   0.014648   0.004479  -0.001627  -0.000005
    12  C   -0.001667  -0.001660  -0.012609  -0.009278   0.004072  -0.000002
    13  C   -0.050569   0.001884   0.001857   0.003284  -0.003436   0.000002
    14  H    0.001884   0.005016   0.000010  -0.000002   0.000106   0.000001
    15  H    0.001857   0.000010   0.027333   0.000817  -0.000026   0.000000
    16  H    0.003284  -0.000002   0.000817   0.004596   0.000029   0.000000
    17  H   -0.003436   0.000106  -0.000026   0.000029   0.002600  -0.000000
    18  C    0.000002   0.000001   0.000000   0.000000  -0.000000   0.002310
    19  H    0.000000   0.000000   0.000000   0.000000  -0.000000   0.000043
    20  H    0.000007  -0.000003  -0.000002  -0.000001   0.000001  -0.000003
    21  H   -0.000000  -0.000000  -0.000000  -0.000000   0.000000  -0.000324
    22  H   -0.000001  -0.000000  -0.000000  -0.000000  -0.000000   0.000020
    23  H    0.000000   0.000000   0.000000   0.000000  -0.000000   0.000091
    24  S    0.001840   0.001144   0.000083   0.000017  -0.000030  -0.000103
              19         20         21         22         23         24
     1  C    0.000413  -0.000650  -0.000281  -0.000021  -0.000006   0.000503
     2  C   -0.000537   0.001069   0.000293  -0.000001  -0.000019  -0.000303
     3  S    0.000086   0.000182   0.000000  -0.000000   0.000001  -0.000346
     4  C    0.000051   0.000065  -0.000112   0.000236  -0.000017   0.002370
     5  C    0.000032  -0.000470  -0.000001  -0.000104   0.000001   0.033747
     6  C   -0.000060   0.000187   0.000004   0.000170  -0.000002  -0.033389
     7  C    0.000057  -0.000090   0.000206  -0.000019   0.000015  -0.000027
     8  C   -0.000035  -0.000004   0.000166  -0.000093  -0.000036  -0.001927
     9  H   -0.000000   0.000007   0.000000   0.000023  -0.000000   0.000363
    10  C   -0.000005   0.000160   0.000000   0.000020  -0.000000  -0.017971
    11  C    0.000000  -0.000034   0.000000   0.000000  -0.000000  -0.001788
    12  C   -0.000001   0.000021   0.000000   0.000001  -0.000000  -0.001301
    13  C    0.000000   0.000007  -0.000000  -0.000001   0.000000   0.001840
    14  H    0.000000  -0.000003  -0.000000  -0.000000   0.000000   0.001144
    15  H    0.000000  -0.000002  -0.000000  -0.000000   0.000000   0.000083
    16  H    0.000000  -0.000001  -0.000000  -0.000000   0.000000   0.000017
    17  H   -0.000000   0.000001   0.000000  -0.000000  -0.000000  -0.000030
    18  C    0.000043  -0.000003  -0.000324   0.000020   0.000091  -0.000103
    19  H    0.000050  -0.000011  -0.000023  -0.000000  -0.000000   0.000004
    20  H   -0.000011   0.000125   0.000002   0.000000   0.000000  -0.000003
    21  H   -0.000023   0.000002   0.000031   0.000003  -0.000011   0.000000
    22  H   -0.000000   0.000000   0.000003  -0.000163   0.000008  -0.000061
    23  H   -0.000000   0.000000  -0.000011   0.000008  -0.000022  -0.000001
    24  S    0.000004  -0.000003   0.000000  -0.000061  -0.000001   0.033156
 Mulliken charges and spin densities:
               1          2
     1  C   -0.059678  -0.002258
     2  C    0.024633   0.003124
     3  S   -0.015190  -0.002095
     4  C   -0.301909   0.000604
     5  C   -0.303355  -0.063701
     6  C    0.103801   0.969794
     7  C   -0.073745   0.001721
     8  C   -0.044468  -0.000033
     9  H    0.167902   0.000313
    10  C    0.077106   0.062090
    11  C   -0.114784  -0.035358
    12  C   -0.056733   0.065806
    13  C   -0.158926  -0.053960
    14  H    0.173779   0.005107
    15  H    0.179977   0.024726
    16  H    0.168717   0.004111
    17  H    0.166351   0.003766
    18  C   -0.117564  -0.000325
    19  H    0.168098   0.000063
    20  H    0.137858   0.000555
    21  H    0.160265  -0.000046
    22  H    0.178226   0.000018
    23  H    0.158565   0.000001
    24  S    0.381074   0.015975
 Sum of Mulliken charges =   1.00000   1.00000
 Mulliken charges and spin densities with hydrogens summed into heavy atoms:
               1          2
     1  C    0.108421  -0.002195
     2  C    0.024633   0.003124
     3  S    0.122668  -0.001539
     4  C   -0.301909   0.000604
     5  C   -0.303355  -0.063701
     6  C    0.103801   0.969794
     7  C    0.086520   0.001676
     8  C    0.133758  -0.000015
    10  C    0.250885   0.067197
    11  C    0.065192  -0.010632
    12  C    0.111985   0.069917
    13  C    0.007425  -0.050194
    18  C    0.041001  -0.000323
    24  S    0.548975   0.016288
 Electronic spatial extent (au):  <R**2>=           3271.4583
 Charge=              1.0000 electrons
 Dipole moment (field-independent basis, Debye):
    X=             -0.1565    Y=             -1.5664    Z=             -1.8129  Tot=              2.4010
 Quadrupole moment (field-independent basis, Debye-Ang):
   XX=            -49.3528   YY=            -76.3398   ZZ=            -85.9316
   XY=             -1.7508   XZ=              2.4913   YZ=              3.2087
 Traceless Quadrupole moment (field-independent basis, Debye-Ang):
   XX=             21.1886   YY=             -5.7984   ZZ=            -15.3902
   XY=             -1.7508   XZ=              2.4913   YZ=              3.2087
 Octapole moment (field-independent basis, Debye-Ang**2):
  XXX=              6.2838  YYY=              0.7694  ZZZ=             -9.6623  XYY=             19.8431
  XXY=             23.6368  XXZ=              6.7846  XZZ=            -21.1528  YZZ=             -1.0541
  YYZ=            -16.8469  XYZ=            -15.5151
 Hexadecapole moment (field-independent basis, Debye-Ang**3):
 XXXX=          -2410.4622 YYYY=           -799.6513 ZZZZ=           -350.7396 XXXY=            -80.8215
 XXXZ=             98.2015 YYYX=              3.8463 YYYZ=            -12.5322 ZZZX=             -4.5942
 ZZZY=             24.3952 XXYY=           -605.7629 XXZZ=           -571.1078 YYZZ=           -182.0584
 XXYZ=             26.5632 YYXZ=             -0.2775 ZZXY=             -8.2344
 N-N= 1.040642068320D+03 E-N=-5.029231442730D+03  KE= 1.254498846674D+03
                          Isotropic Fermi Contact Couplings
        Atom                 a.u.       MegaHertz       Gauss      10(-4) cm-1
     1  C(13)             -0.00027      -0.30262      -0.10798      -0.10094
     2  C(13)              0.00025       0.27726       0.09893       0.09248
     3  S(33)              0.00487       1.67196       0.59660       0.55771
     4  C(13)             -0.00064      -0.71476      -0.25505      -0.23842
     5  C(13)              0.00980      11.01181       3.92929       3.67314
     6  C(13)              0.51540     579.41113     206.74830     193.27075
     7  C(13)              0.00007       0.07922       0.02827       0.02643
     8  C(13)              0.00047       0.52817       0.18846       0.17618
     9  H(1)               0.00022       0.96202       0.34327       0.32089
    10  C(13)              0.02018      22.68693       8.09526       7.56754
    11  C(13)              0.01207      13.56526       4.84042       4.52488
    12  C(13)              0.02879      32.36651      11.54917      10.79630
    13  C(13)             -0.00487      -5.47366      -1.95314      -1.82582
    14  H(1)               0.00288      12.85757       4.58790       4.28882
    15  H(1)               0.01035      46.27734      16.51291      15.43646
    16  H(1)               0.00203       9.09443       3.24512       3.03357
    17  H(1)               0.00190       8.48808       3.02876       2.83132
    18  C(13)             -0.00004      -0.04670      -0.01666      -0.01558
    19  H(1)               0.00001       0.03357       0.01198       0.01120
    20  H(1)               0.00020       0.90800       0.32400       0.30288
    21  H(1)              -0.00002      -0.06745      -0.02407      -0.02250
    22  H(1)               0.00002       0.07554       0.02696       0.02520
    23  H(1)              -0.00001      -0.06386      -0.02279      -0.02130
    24  S(33)              0.03848      13.21734       4.71628       4.40883
 --------------------------------------------------------
       Center         ----  Spin Dipole Couplings  ----
                      3XX-RR        3YY-RR        3ZZ-RR
 --------------------------------------------------------
     1   Atom        0.002256     -0.000490     -0.001766
     2   Atom        0.002723     -0.004605      0.001882
     3   Atom       -0.007576      0.003996      0.003580
     4   Atom        0.002974     -0.004829      0.001855
     5   Atom       -0.047485     -0.069275      0.116760
     6   Atom        0.310485     -0.413018      0.102532
     7   Atom        0.000871     -0.001739      0.000868
     8   Atom        0.003237     -0.002069     -0.001168
     9   Atom       -0.001673     -0.001813      0.003486
    10   Atom        0.007205     -0.020698      0.013493
    11   Atom        0.070599     -0.051139     -0.019460
    12   Atom        0.021168     -0.022931      0.001763
    13   Atom        0.011475     -0.024465      0.012990
    14   Atom       -0.003884     -0.002589      0.006473
    15   Atom        0.003991      0.001125     -0.005116
    16   Atom        0.005655     -0.001349     -0.004305
    17   Atom        0.000266     -0.001135      0.000869
    18   Atom        0.002073     -0.001116     -0.000957
    19   Atom        0.000887     -0.000106     -0.000781
    20   Atom       -0.000921      0.000460      0.000461
    21   Atom        0.001070     -0.000518     -0.000552
    22   Atom        0.001782     -0.000450     -0.001332
    23   Atom        0.001247     -0.000617     -0.000630
    24   Atom        0.036987      0.006041     -0.043028
 --------------------------------------------------------
                        XY            XZ            YZ
 --------------------------------------------------------
     1   Atom        0.001611     -0.001177     -0.000816
     2   Atom        0.002483     -0.006788     -0.001475
     3   Atom        0.002150     -0.008459     -0.004360
     4   Atom       -0.004034     -0.006548      0.001473
     5   Atom       -0.026371      0.023164      0.098313
     6   Atom       -0.013091      0.657703     -0.108579
     7   Atom        0.000584     -0.000913      0.000112
     8   Atom       -0.001207     -0.002907      0.000496
     9   Atom       -0.001712     -0.002148      0.002977
    10   Atom        0.013314      0.039771     -0.008326
    11   Atom       -0.080460      0.050958      0.014548
    12   Atom        0.001891      0.044246     -0.021631
    13   Atom       -0.026398      0.019463      0.024539
    14   Atom        0.000021      0.001031      0.005046
    15   Atom       -0.015087     -0.009542      0.010132
    16   Atom       -0.006514     -0.000327      0.000624
    17   Atom       -0.001282      0.000832      0.001201
    18   Atom       -0.000183     -0.001127     -0.000144
    19   Atom        0.001517     -0.000890     -0.000659
    20   Atom        0.001189     -0.001273     -0.002042
    21   Atom        0.000559     -0.000349     -0.000080
    22   Atom       -0.002010     -0.000994      0.000664
    23   Atom       -0.000296     -0.000293      0.000023
    24   Atom       -0.068883     -0.028180      0.024543
 --------------------------------------------------------


 ---------------------------------------------------------------------------------
              Anisotropic Spin Dipole Couplings in Principal Axis System
 ---------------------------------------------------------------------------------

       Atom             a.u.   MegaHertz   Gauss  10(-4) cm-1        Axes

              Baa    -0.0022    -0.297    -0.106    -0.099  0.1306  0.3226  0.9375
     1 C(13)  Bbb    -0.0012    -0.158    -0.056    -0.053 -0.4763  0.8497 -0.2260
              Bcc     0.0034     0.455     0.162     0.152  0.8695  0.4170 -0.2647
 
              Baa    -0.0055    -0.742    -0.265    -0.247 -0.4695  0.8431 -0.2623
     2 C(13)  Bbb    -0.0041    -0.555    -0.198    -0.185  0.5102  0.5015  0.6987
              Bcc     0.0097     1.297     0.463     0.432  0.7206  0.1942 -0.6656
 
              Baa    -0.0121    -0.497    -0.177    -0.166  0.8791  0.0116  0.4765
     3 S(33)  Bbb     0.0008     0.032     0.012     0.011 -0.2713  0.8341  0.4802
              Bcc     0.0113     0.465     0.166     0.155 -0.3919 -0.5515  0.7364
 
              Baa    -0.0068    -0.917    -0.327    -0.306  0.5001  0.8333  0.2356
     4 C(13)  Bbb    -0.0032    -0.433    -0.154    -0.144  0.4640 -0.4876  0.7396
              Bcc     0.0101     1.350     0.482     0.450  0.7312 -0.2605 -0.6305
 
              Baa    -0.1259   -16.893    -6.028    -5.635  0.3934  0.8384 -0.3772
     5 C(13)  Bbb    -0.0338    -4.533    -1.617    -1.512  0.9178 -0.3820  0.1083
              Bcc     0.1597    21.425     7.645     7.147  0.0534  0.3888  0.9198
 
              Baa    -0.5155   -69.169   -24.681   -23.072 -0.4909  0.6034  0.6284
     6 C(13)  Bbb    -0.3620   -48.572   -17.332   -16.202  0.4320  0.7950 -0.4259
              Bcc     0.8774   117.741    42.013    39.274  0.7566 -0.0624  0.6509
 
              Baa    -0.0019    -0.255    -0.091    -0.085 -0.2421  0.9629 -0.1189
     7 C(13)  Bbb     0.0001     0.011     0.004     0.004  0.6477  0.2517  0.7191
              Bcc     0.0018     0.244     0.087     0.081  0.7224  0.0971 -0.6846
 
              Baa    -0.0026    -0.354    -0.126    -0.118  0.4708  0.2649  0.8415
     8 C(13)  Bbb    -0.0023    -0.307    -0.109    -0.102  0.0387  0.9467 -0.3197
              Bcc     0.0049     0.661     0.236     0.220  0.8814 -0.1830 -0.4355
 
              Baa    -0.0036    -1.913    -0.682    -0.638  0.5306  0.8268 -0.1869
     9 H(1)   Bbb    -0.0022    -1.170    -0.418    -0.390  0.7772 -0.3866  0.4965
              Bcc     0.0058     3.083     1.100     1.028 -0.3383  0.4087  0.8477
 
              Baa    -0.0412    -5.530    -1.973    -1.844 -0.5989  0.6028  0.5272
    10 C(13)  Bbb    -0.0092    -1.230    -0.439    -0.410  0.4163  0.7967 -0.4381
              Bcc     0.0504     6.759     2.412     2.255  0.6841  0.0429  0.7281
 
              Baa    -0.1070   -14.360    -5.124    -4.790  0.4711  0.7838 -0.4045
    11 C(13)  Bbb    -0.0149    -2.003    -0.715    -0.668 -0.0614  0.4866  0.8715
              Bcc     0.1219    16.363     5.839     5.458  0.8799 -0.3857  0.2774
 
              Baa    -0.0477    -6.406    -2.286    -2.137 -0.4404  0.6089  0.6598
    12 C(13)  Bbb    -0.0109    -1.463    -0.522    -0.488  0.4921  0.7783 -0.3899
              Bcc     0.0586     7.868     2.808     2.625  0.7509 -0.1530  0.6424
 
              Baa    -0.0529    -7.100    -2.533    -2.368  0.4504  0.7850 -0.4253
    13 C(13)  Bbb     0.0212     2.842     1.014     0.948 -0.5405  0.6189  0.5699
              Bcc     0.0317     4.257     1.519     1.420  0.7106 -0.0268  0.7031
 
              Baa    -0.0050    -2.664    -0.951    -0.889  0.3582  0.8422 -0.4028
    14 H(1)   Bbb    -0.0038    -2.028    -0.724    -0.677  0.9306 -0.3567  0.0818
              Bcc     0.0088     4.693     1.674     1.565  0.0748  0.4042  0.9116
 
              Baa    -0.0132    -7.050    -2.516    -2.352  0.4081  0.7728 -0.4860
    15 H(1)   Bbb    -0.0111    -5.900    -2.105    -1.968  0.6304  0.1466  0.7623
              Bcc     0.0243    12.950     4.621     4.320  0.6604 -0.6175 -0.4273
 
              Baa    -0.0054    -2.867    -1.023    -0.956  0.4724  0.8163 -0.3324
    16 H(1)   Bbb    -0.0042    -2.242    -0.800    -0.748  0.2060  0.2644  0.9422
              Bcc     0.0096     5.108     1.823     1.704  0.8570 -0.5135 -0.0432
 
              Baa    -0.0025    -1.346    -0.480    -0.449  0.4785  0.7842 -0.3951
    17 H(1)   Bbb     0.0010     0.538     0.192     0.180  0.8006 -0.5744 -0.1705
              Bcc     0.0015     0.808     0.288     0.269  0.3606  0.2347  0.9027
 
              Baa    -0.0014    -0.194    -0.069    -0.065  0.2860  0.5122  0.8098
    18 C(13)  Bbb    -0.0010    -0.135    -0.048    -0.045 -0.1307  0.8581 -0.4966
              Bcc     0.0025     0.329     0.117     0.110  0.9493 -0.0362 -0.3123
 
              Baa    -0.0012    -0.645    -0.230    -0.215 -0.4979  0.8318  0.2454
    19 H(1)   Bbb    -0.0012    -0.623    -0.222    -0.208  0.4114 -0.0226  0.9112
              Bcc     0.0024     1.268     0.452     0.423  0.7634  0.5547 -0.3309
 
              Baa    -0.0017    -0.897    -0.320    -0.299  0.8096  0.1017  0.5781
    20 H(1)   Bbb    -0.0016    -0.828    -0.295    -0.276 -0.4416  0.7543  0.4858
              Bcc     0.0032     1.725     0.615     0.575 -0.3867 -0.6486  0.6556
 
              Baa    -0.0007    -0.376    -0.134    -0.125 -0.3409  0.8865 -0.3130
    21 H(1)   Bbb    -0.0006    -0.326    -0.116    -0.109  0.0742  0.3573  0.9310
              Bcc     0.0013     0.702     0.250     0.234  0.9372  0.2942 -0.1876
 
              Baa    -0.0017    -0.909    -0.324    -0.303 -0.1916 -0.6815  0.7063
    22 H(1)   Bbb    -0.0016    -0.838    -0.299    -0.280  0.5198  0.5400  0.6620
              Bcc     0.0033     1.747     0.623     0.583  0.8325 -0.4940 -0.2508
 
              Baa    -0.0007    -0.368    -0.131    -0.123  0.2083  0.5963  0.7753
    23 H(1)   Bbb    -0.0006    -0.345    -0.123    -0.115  0.0284  0.7886 -0.6142
              Bcc     0.0013     0.713     0.254     0.238  0.9776 -0.1500 -0.1474
 
              Baa    -0.0532    -2.181    -0.778    -0.728 -0.0319 -0.4140  0.9097
    24 S(33)  Bbb    -0.0485    -1.990    -0.710    -0.664  0.6556  0.6783  0.3317
              Bcc     0.1017     4.171     1.488     1.391  0.7544 -0.6070 -0.2498
 

 ---------------------------------------------------------------------------------

 No NMR shielding tensors so no spin-rotation constants.
 Leave Link  601 at Tue Jan 26 00:12:04 2021, MaxMem=  4026531840 cpu:               2.9 elap:               0.4
 (Enter /opt/ohpc/pub/libs/gaussian/g16-A.03/sandybridge/g16/l9999.exe)

 Test job not archived.
 1\1\GINC-CNODE146\SP\ULC-wHPBE\TZVP\C12H10S2(1+,2)\RDU230\26-Jan-2021\
 0\\#P LC-wHPBE/TZVP iop(3/107=0220000000, 3/108=0220000000) scf=(conve
 r=6,fermi,ndamp=35,noincfock,novaracc,vshift=500,xqc)\\H10 C12 S2\\1,2
 \C,0,-2.574063,-1.434391,-0.049117\C,0,-1.368901,-0.745264,-0.216328\S
 ,0,0.093606,-1.678504,-0.585022\C,0,-1.397687,0.626896,-0.046009\C,0,1
 .500395,0.811934,0.077279\C,0,1.478004,0.220423,1.307027\C,0,-3.746915
 ,-0.783096,0.229547\C,0,-2.584351,1.293751,0.256604\H,0,-0.039943,1.86
 0892,-1.547006\C,0,2.473105,0.786527,-0.925649\C,0,2.645316,-0.559969,
 1.492438\C,0,3.655495,-0.649979,0.563531\C,0,3.583956,0.035098,-0.6567
 53\H,0,2.357645,1.302286,-1.874829\H,0,2.763398,-1.119309,2.419207\H,0
 ,4.527775,-1.262476,0.773175\H,0,4.391412,-0.038194,-1.378729\C,0,-3.7
 59914,0.597536,0.384558\H,0,-2.557315,-2.514169,-0.13851\H,0,-0.525974
 ,-2.528359,-1.4318\H,0,-4.665467,-1.345208,0.349638\H,0,-2.558102,2.36
 8477,0.406674\H,0,-4.681894,1.115025,0.619767\S,0,0.004008,1.738768,-0
 .20875\\Version=EM64L-G16RevA.03\State=2-A\HF=-1258.7450307\S2=0.76099
 6\S2-1=0.\S2A=0.750053\RMSD=5.971e-07\Dipole=0.0615686,0.616277,-0.713
 2367\Quadrupole=15.7532011,-4.3109615,-11.4422396,-1.3016996,-1.852228
 1,-2.3856259\PG=C01 [X(C12H10S2)]\\@


 We make a living by what we get,
 we make a life by what we give.
                   -- Sir Winston Churchill
 Job cpu time:       0 days  1 hours 27 minutes 32.2 seconds.
 Elapsed time:       0 days  0 hours 10 minutes 57.8 seconds.
 File lengths (MBytes):  RWF=    112 Int=      0 D2E=      0 Chk=     12 Scr=      8
 Normal termination of Gaussian 16 at Tue Jan 26 00:12:05 2021.
