 Entering Gaussian System, Link 0=g16
 Input=mol_ta_NN_frag_tune_n7.gjf
 Output=mol_ta_NN_frag_tune_n7.log
 Initial command:
 /opt/ohpc/pub/libs/gaussian/g16-A.03/sandybridge/g16/l1.exe "/mnt/gpfs2_4m/scratch/rdu230/ondemand/projects/init_structures/gaussian/wtuning/mol_ta_NN_frag/tuning_mol_ta_NN_frag_ocycle0/Gau-26762.inp" -scrdir="/mnt/gpfs2_4m/scratch/rdu230/ondemand/projects/init_structures/gaussian/wtuning/mol_ta_NN_frag/tuning_mol_ta_NN_frag_ocycle0/"
 Entering Link 1 = /opt/ohpc/pub/libs/gaussian/g16-A.03/sandybridge/g16/l1.exe PID=     26763.
  
 Copyright (c) 1988,1990,1992,1993,1995,1998,2003,2009,2016,
            Gaussian, Inc.  All Rights Reserved.
  
 This is part of the Gaussian(R) 16 program.  It is based on
 the Gaussian(R) 09 system (copyright 2009, Gaussian, Inc.),
 the Gaussian(R) 03 system (copyright 2003, Gaussian, Inc.),
 the Gaussian(R) 98 system (copyright 1998, Gaussian, Inc.),
 the Gaussian(R) 94 system (copyright 1995, Gaussian, Inc.),
 the Gaussian 92(TM) system (copyright 1992, Gaussian, Inc.),
 the Gaussian 90(TM) system (copyright 1990, Gaussian, Inc.),
 the Gaussian 88(TM) system (copyright 1988, Gaussian, Inc.),
 the Gaussian 86(TM) system (copyright 1986, Carnegie Mellon
 University), and the Gaussian 82(TM) system (copyright 1983,
 Carnegie Mellon University). Gaussian is a federally registered
 trademark of Gaussian, Inc.
  
 This software contains proprietary and confidential information,
 including trade secrets, belonging to Gaussian, Inc.
  
 This software is provided under written license and may be
 used, copied, transmitted, or stored only in accord with that
 written license.
  
 The following legend is applicable only to US Government
 contracts under FAR:
  
                    RESTRICTED RIGHTS LEGEND
  
 Use, reproduction and disclosure by the US Government is
 subject to restrictions as set forth in subparagraphs (a)
 and (c) of the Commercial Computer Software - Restricted
 Rights clause in FAR 52.227-19.
  
 Gaussian, Inc.
 340 Quinnipiac St., Bldg. 40, Wallingford CT 06492
  
  
 ---------------------------------------------------------------
 Warning -- This program may not be used in any manner that
 competes with the business of Gaussian, Inc. or will provide
 assistance to any competitor of Gaussian, Inc.  The licensee
 of this program is prohibited from giving any competitor of
 Gaussian, Inc. access to this program.  By using this program,
 the user acknowledges that Gaussian, Inc. is engaged in the
 business of creating and licensing software in the field of
 computational chemistry and represents and warrants to the
 licensee that it is not a competitor of Gaussian, Inc. and that
 it will not use this program in any manner prohibited above.
 ---------------------------------------------------------------
  

 Cite this work as:
 Gaussian 16, Revision A.03,
 M. J. Frisch, G. W. Trucks, H. B. Schlegel, G. E. Scuseria, 
 M. A. Robb, J. R. Cheeseman, G. Scalmani, V. Barone, 
 G. A. Petersson, H. Nakatsuji, X. Li, M. Caricato, A. V. Marenich, 
 J. Bloino, B. G. Janesko, R. Gomperts, B. Mennucci, H. P. Hratchian, 
 J. V. Ortiz, A. F. Izmaylov, J. L. Sonnenberg, D. Williams-Young, 
 F. Ding, F. Lipparini, F. Egidi, J. Goings, B. Peng, A. Petrone, 
 T. Henderson, D. Ranasinghe, V. G. Zakrzewski, J. Gao, N. Rega, 
 G. Zheng, W. Liang, M. Hada, M. Ehara, K. Toyota, R. Fukuda, 
 J. Hasegawa, M. Ishida, T. Nakajima, Y. Honda, O. Kitao, H. Nakai, 
 T. Vreven, K. Throssell, J. A. Montgomery, Jr., J. E. Peralta, 
 F. Ogliaro, M. J. Bearpark, J. J. Heyd, E. N. Brothers, K. N. Kudin, 
 V. N. Staroverov, T. A. Keith, R. Kobayashi, J. Normand, 
 K. Raghavachari, A. P. Rendell, J. C. Burant, S. S. Iyengar, 
 J. Tomasi, M. Cossi, J. M. Millam, M. Klene, C. Adamo, R. Cammi, 
 J. W. Ochterski, R. L. Martin, K. Morokuma, O. Farkas, 
 J. B. Foresman, and D. J. Fox, Gaussian, Inc., Wallingford CT, 2016.
 
 ******************************************
 Gaussian 16:  EM64L-G16RevA.03 25-Dec-2016
                25-Jan-2021 
 ******************************************
 %mem=30GB
 %nproc=8
 Will use up to    8 processors via shared memory.
 ----------------------------------------------------------------------
 #P LC-wHPBE/TZVP iop(3/107=0220000000, 3/108=0220000000) scf=(conver=6
 ,fermi,ndamp=35,noincfock,novaracc,vshift=500,xqc)
 ----------------------------------------------------------------------
 1/38=1,172=1/1;
 2/12=2,17=6,18=5,40=1/2;
 3/5=19,7=101,11=2,25=1,30=1,74=-71,107=220000000,108=220000000/1,2,3;
 4//1;
 5/5=100002,6=6,8=3,10=500,13=1,18=-1,22=13,38=1,93=35/2,8;
 6/7=2,8=2,9=2,10=2,28=1/1;
 99/5=1,9=1/99;
 Leave Link    1 at Mon Jan 25 23:57:35 2021, MaxMem=  4026531840 cpu:               1.7 elap:               0.3
 (Enter /opt/ohpc/pub/libs/gaussian/g16-A.03/sandybridge/g16/l101.exe)
 ----------
 H10 C12 S2
 ----------
 Symbolic Z-matrix:
 Charge =  0 Multiplicity = 1
 C                    -2.57406  -1.43439  -0.04912 
 C                    -1.3689   -0.74526  -0.21633 
 S                     0.09361  -1.6785   -0.58502 
 C                    -1.39769   0.6269   -0.04601 
 C                     1.5004    0.81193   0.07728 
 C                     1.478     0.22042   1.30703 
 C                    -3.74692  -0.7831    0.22955 
 C                    -2.58435   1.29375   0.2566 
 H                    -0.03994   1.86089  -1.54701 
 C                     2.47311   0.78653  -0.92565 
 C                     2.64532  -0.55997   1.49244 
 C                     3.6555   -0.64998   0.56353 
 C                     3.58396   0.0351   -0.65675 
 H                     2.35765   1.30229  -1.87483 
 H                     2.7634   -1.11931   2.41921 
 H                     4.52778  -1.26248   0.77318 
 H                     4.39141  -0.03819  -1.37873 
 C                    -3.75991   0.59754   0.38456 
 H                    -2.55732  -2.51417  -0.13851 
 H                    -0.52597  -2.52836  -1.4318 
 H                    -4.66547  -1.34521   0.34964 
 H                    -2.5581    2.36848   0.40667 
 H                    -4.68189   1.11503   0.61977 
 S                     0.00401   1.73877  -0.20875 
 
 ITRead=  0  0  0  0  0  0  0  0  0  0  0  0  0  0  0  0  0  0  0  0
 ITRead=  0  0  0  0
 MicOpt= -1 -1 -1 -1 -1 -1 -1 -1 -1 -1 -1 -1 -1 -1 -1 -1 -1 -1 -1 -1
 MicOpt= -1 -1 -1 -1
 NAtoms=     24 NQM=       24 NQMF=       0 NMMI=      0 NMMIF=      0
                NMic=       0 NMicF=      0.
                    Isotopes and Nuclear Properties:
 (Nuclear quadrupole moments (NQMom) in fm**2, nuclear magnetic moments (NMagM)
  in nuclear magnetons)

  Atom         1           2           3           4           5           6           7           8           9          10
 IAtWgt=          12          12          32          12          12          12          12          12           1          12
 AtmWgt=  12.0000000  12.0000000  31.9720718  12.0000000  12.0000000  12.0000000  12.0000000  12.0000000   1.0078250  12.0000000
 NucSpn=           0           0           0           0           0           0           0           0           1           0
 AtZEff=  -0.0000000  -0.0000000  -0.0000000  -0.0000000  -0.0000000  -0.0000000  -0.0000000  -0.0000000  -0.0000000  -0.0000000
 NQMom=    0.0000000   0.0000000   0.0000000   0.0000000   0.0000000   0.0000000   0.0000000   0.0000000   0.0000000   0.0000000
 NMagM=    0.0000000   0.0000000   0.0000000   0.0000000   0.0000000   0.0000000   0.0000000   0.0000000   2.7928460   0.0000000
 AtZNuc=   6.0000000   6.0000000  16.0000000   6.0000000   6.0000000   6.0000000   6.0000000   6.0000000   1.0000000   6.0000000

  Atom        11          12          13          14          15          16          17          18          19          20
 IAtWgt=          12          12          12           1           1           1           1          12           1           1
 AtmWgt=  12.0000000  12.0000000  12.0000000   1.0078250   1.0078250   1.0078250   1.0078250  12.0000000   1.0078250   1.0078250
 NucSpn=           0           0           0           1           1           1           1           0           1           1
 AtZEff=  -0.0000000  -0.0000000  -0.0000000  -0.0000000  -0.0000000  -0.0000000  -0.0000000  -0.0000000  -0.0000000  -0.0000000
 NQMom=    0.0000000   0.0000000   0.0000000   0.0000000   0.0000000   0.0000000   0.0000000   0.0000000   0.0000000   0.0000000
 NMagM=    0.0000000   0.0000000   0.0000000   2.7928460   2.7928460   2.7928460   2.7928460   0.0000000   2.7928460   2.7928460
 AtZNuc=   6.0000000   6.0000000   6.0000000   1.0000000   1.0000000   1.0000000   1.0000000   6.0000000   1.0000000   1.0000000

  Atom        21          22          23          24
 IAtWgt=           1           1           1          32
 AtmWgt=   1.0078250   1.0078250   1.0078250  31.9720718
 NucSpn=           1           1           1           0
 AtZEff=  -0.0000000  -0.0000000  -0.0000000  -0.0000000
 NQMom=    0.0000000   0.0000000   0.0000000   0.0000000
 NMagM=    2.7928460   2.7928460   2.7928460   0.0000000
 AtZNuc=   1.0000000   1.0000000   1.0000000  16.0000000
 Leave Link  101 at Mon Jan 25 23:57:35 2021, MaxMem=  4026531840 cpu:               0.7 elap:               0.1
 (Enter /opt/ohpc/pub/libs/gaussian/g16-A.03/sandybridge/g16/l202.exe)
                          Input orientation:                          
 ---------------------------------------------------------------------
 Center     Atomic      Atomic             Coordinates (Angstroms)
 Number     Number       Type             X           Y           Z
 ---------------------------------------------------------------------
      1          6           0       -2.574063   -1.434391   -0.049117
      2          6           0       -1.368901   -0.745264   -0.216328
      3         16           0        0.093606   -1.678504   -0.585022
      4          6           0       -1.397687    0.626896   -0.046009
      5          6           0        1.500395    0.811934    0.077279
      6          6           0        1.478004    0.220423    1.307027
      7          6           0       -3.746915   -0.783096    0.229547
      8          6           0       -2.584351    1.293751    0.256604
      9          1           0       -0.039943    1.860892   -1.547006
     10          6           0        2.473105    0.786527   -0.925649
     11          6           0        2.645316   -0.559969    1.492438
     12          6           0        3.655495   -0.649979    0.563531
     13          6           0        3.583956    0.035098   -0.656753
     14          1           0        2.357645    1.302286   -1.874829
     15          1           0        2.763398   -1.119309    2.419207
     16          1           0        4.527775   -1.262476    0.773175
     17          1           0        4.391412   -0.038194   -1.378729
     18          6           0       -3.759914    0.597536    0.384558
     19          1           0       -2.557315   -2.514169   -0.138510
     20          1           0       -0.525974   -2.528359   -1.431800
     21          1           0       -4.665467   -1.345208    0.349638
     22          1           0       -2.558102    2.368477    0.406674
     23          1           0       -4.681894    1.115025    0.619767
     24         16           0        0.004008    1.738768   -0.208750
 ---------------------------------------------------------------------
                    Distance matrix (angstroms):
                    1          2          3          4          5
     1  C    0.000000
     2  C    1.398310   0.000000
     3  S    2.731894   1.773640   0.000000
     4  C    2.373347   1.382990   2.798099   0.000000
     5  C    4.654370   3.277793   2.935980   2.906599   0.000000
     6  C    4.582225   3.370168   3.017007   3.203986   1.364796
     7  C    1.370190   2.419749   4.026770   2.753703   5.486490
     8  C    2.745238   2.420447   4.088287   1.394432   4.116972
     9  H    4.418634   3.213858   3.670228   2.370487   2.472095
    10  C    5.583430   4.196490   3.443025   3.972692   1.397381
    11  C    5.512071   4.366710   3.475368   4.485682   2.279394
    12  C    6.308568   5.085451   3.881249   5.247532   2.649167
    13  C    6.360017   5.033263   3.888974   5.053712   2.341688
    14  H    5.928269   4.564015   3.959114   4.231224   2.187704
    15  H    5.889006   4.915470   4.057817   5.142096   3.287781
    16  H    7.151351   6.001451   4.656139   6.273108   3.735302
    17  H    7.227384   5.918812   4.668161   5.977638   3.346738
    18  C    2.392288   2.807333   4.579308   2.401326   5.273636
    19  H    1.083601   2.132465   2.815154   3.349565   5.251146
    20  H    2.702452   2.316749   1.350247   3.554706   4.188203
    21  H    2.130946   3.398176   4.861425   3.837202   6.537989
    22  H    3.830118   3.390828   4.938934   2.141165   4.359212
    23  H    3.374890   3.890457   5.662219   3.386376   6.213441
    24  S    4.091561   2.838195   3.439092   1.796522   1.783258
                    6          7          8          9         10
     6  C    0.000000
     7  C    5.428424   0.000000
     8  C    4.331068   2.380248   0.000000
     9  H    3.625025   4.887582   3.169964   0.000000
    10  C    2.509092   6.518193   5.218511   2.802812   0.000000
    11  C    1.416335   6.519609   5.684451   4.723283   2.773058
    12  C    2.460051   7.411136   6.542780   4.941164   2.383118
    13  C    2.885448   7.429444   6.361324   4.154361   1.367823
    14  H    3.473961   6.785490   5.382045   2.483533   1.086407
    15  H    2.164270   6.876905   6.252850   5.698348   3.860640
    16  H    3.432942   8.306373   7.575188   6.000226   3.362452
    17  H    3.970908   8.329093   7.287638   4.824080   2.136667
    18  C    5.331880   1.389368   1.372238   4.377807   6.372039
    19  H    5.084424   2.132423   3.828459   5.240437   6.067892
    20  H    4.367254   4.022496   4.657912   4.417581   4.498792
    21  H    6.411710   1.083573   3.362113   5.939007   7.558430
    22  H    4.659927   3.372990   1.085470   3.227326   5.439733
    23  H    6.262346   2.151586   2.136239   5.176768   7.327362
    24  S    2.603001   4.541071   2.667245   1.344535   2.741742
                   11         12         13         14         15
    11  C    0.000000
    12  C    1.375293   0.000000
    13  C    2.419540   1.401264   0.000000
    14  H    3.858657   3.382507   2.143202   0.000000
    15  H    1.088901   2.111786   3.386370   4.946464   0.000000
    16  H    2.134129   1.086267   2.149229   4.277779   2.417218
    17  H    3.400691   2.165232   1.085636   2.485802   4.271248
    18  C    6.602589   7.521743   7.438622   6.559423   7.045634
    19  H    5.791913   6.524345   6.669524   6.460415   6.066097
    20  H    4.741604   4.999434   4.905460   4.815119   5.256962
    21  H    7.441111   8.352694   8.424432   7.828255   7.715062
    22  H    6.068792   6.909737   6.655855   5.523277   6.673328
    23  H    7.566714   8.522350   8.433269   7.470822   7.978885
    24  S    3.892909   4.431240   3.989890   2.916495   4.763297
                   16         17         18         19         20
    16  H    0.000000
    17  H    2.479547   0.000000
    18  C    8.502732   8.364057   0.000000
    19  H    7.252338   7.480201   3.376767   0.000000
    20  H    5.657274   5.512207   4.850644   2.408142   0.000000
    21  H    9.203365   9.312497   2.143712   2.459484   4.659267
    22  H    7.970433   7.568056   2.140344   4.912989   5.611464
    23  H    9.512836   9.362093   1.083128   4.273157   5.895324
    24  S    5.516893   4.876039   3.977629   4.965157   4.470470
                   21         22         23         24
    21  H    0.000000
    22  H    4.270327   0.000000
    23  H    2.475073   2.475286   0.000000
    24  S    5.623762   2.709186   4.799289   0.000000
 Stoichiometry    C12H10S2
 Framework group  C1[X(C12H10S2)]
 Deg. of freedom    66
 Full point group                 C1      NOp   1
 Largest Abelian subgroup         C1      NOp   1
 Largest concise Abelian subgroup C1      NOp   1
                         Standard orientation:                         
 ---------------------------------------------------------------------
 Center     Atomic      Atomic             Coordinates (Angstroms)
 Number     Number       Type             X           Y           Z
 ---------------------------------------------------------------------
      1          6           0        2.574063    1.434391   -0.049117
      2          6           0        1.368901    0.745264   -0.216328
      3         16           0       -0.093606    1.678504   -0.585022
      4          6           0        1.397687   -0.626896   -0.046009
      5          6           0       -1.500395   -0.811934    0.077279
      6          6           0       -1.478004   -0.220423    1.307027
      7          6           0        3.746915    0.783096    0.229547
      8          6           0        2.584351   -1.293751    0.256604
      9          1           0        0.039943   -1.860892   -1.547006
     10          6           0       -2.473105   -0.786527   -0.925649
     11          6           0       -2.645316    0.559969    1.492438
     12          6           0       -3.655495    0.649979    0.563531
     13          6           0       -3.583956   -0.035098   -0.656753
     14          1           0       -2.357645   -1.302286   -1.874829
     15          1           0       -2.763398    1.119309    2.419207
     16          1           0       -4.527775    1.262476    0.773175
     17          1           0       -4.391412    0.038194   -1.378729
     18          6           0        3.759914   -0.597536    0.384558
     19          1           0        2.557315    2.514169   -0.138510
     20          1           0        0.525974    2.528359   -1.431800
     21          1           0        4.665467    1.345208    0.349638
     22          1           0        2.558102   -2.368477    0.406674
     23          1           0        4.681894   -1.115025    0.619767
     24         16           0       -0.004008   -1.738768   -0.208750
 ---------------------------------------------------------------------
 Rotational constants (GHZ):           1.2365549           0.3949099           0.3394237
 Leave Link  202 at Mon Jan 25 23:57:35 2021, MaxMem=  4026531840 cpu:               0.1 elap:               0.0
 (Enter /opt/ohpc/pub/libs/gaussian/g16-A.03/sandybridge/g16/l301.exe)
 Standard basis: TZVP (5D, 7F)
 Ernie: Thresh=  0.10000D-02 Tol=  0.10000D-05 Strict=F.
 There are   346 symmetry adapted cartesian basis functions of A   symmetry.
 There are   332 symmetry adapted basis functions of A   symmetry.
   332 basis functions,   594 primitive gaussians,   346 cartesian basis functions
    57 alpha electrons       57 beta electrons
       nuclear repulsion energy      1040.6420683200 Hartrees.
 IExCor=33909 DFT=T Ex+Corr=LC-wHPBE ExCW=0 ScaHFX=  1.000000
 ScaDFX=  1.000000  1.000000  1.000000  1.000000 ScalE2=  1.000000  1.000000
 IRadAn=      5 IRanWt=     -1 IRanGd=            0 ICorTp=0 IEmpDi=  4
 HFx  wShort=  0.000000 wLong=  0.220000 cFull=  0.000000 cShort=  0.000000 cLong=  1.000000
 DFx  wShort=  0.000000 wLong=  0.220000 cFull=  0.000000 cShort=  1.000000 cLong=  0.000000
 NAtoms=   24 NActive=   24 NUniq=   24 SFac= 1.00D+00 NAtFMM=   60 NAOKFM=F Big=F
 Integral buffers will be    131072 words long.
 Raffenetti 2 integral format.
 Two-electron integral symmetry is turned on.
 Leave Link  301 at Mon Jan 25 23:57:35 2021, MaxMem=  4026531840 cpu:               0.4 elap:               0.1
 (Enter /opt/ohpc/pub/libs/gaussian/g16-A.03/sandybridge/g16/l302.exe)
 NPDir=0 NMtPBC=     1 NCelOv=     1 NCel=       1 NClECP=     1 NCelD=      1
         NCelK=      1 NCelE2=     1 NClLst=     1 CellRange=     0.0.
 One-electron integrals computed using PRISM.
 One-electron integral symmetry used in STVInt
 NBasis=   332 RedAO= T EigKep=  8.19D-06  NBF=   332
 NBsUse=   332 1.00D-06 EigRej= -1.00D+00 NBFU=   332
 Precomputing XC quadrature grid using
 IXCGrd= 4 IRadAn=           5 IRanWt=          -1 IRanGd=           0 AccXCQ= 0.00D+00.
 Generated NRdTot=       0 NPtTot=           0 NUsed=           0 NTot=          32
 NSgBfM=   338   338   338   338   338 MxSgAt=    24 MxSgA2=    24.
 Leave Link  302 at Mon Jan 25 23:57:36 2021, MaxMem=  4026531840 cpu:               3.2 elap:               0.4
 (Enter /opt/ohpc/pub/libs/gaussian/g16-A.03/sandybridge/g16/l303.exe)
 DipDrv:  MaxL=1.
 Leave Link  303 at Mon Jan 25 23:57:36 2021, MaxMem=  4026531840 cpu:               0.5 elap:               0.1
 (Enter /opt/ohpc/pub/libs/gaussian/g16-A.03/sandybridge/g16/l401.exe)
 ExpMin= 9.52D-02 ExpMax= 6.07D+04 ExpMxC= 2.07D+03 IAcc=3 IRadAn=         5 AccDes= 0.00D+00
 Harris functional with IExCor=33909 and IRadAn=       5 diagonalized for initial guess.
 HarFok:  IExCor=33909 AccDes= 0.00D+00 IRadAn=         5 IDoV= 1 UseB2=F ITyADJ=14
 ICtDFT=  3500011 ScaDFX=  1.000000  1.000000  1.000000  1.000000
 FoFCou: FMM=F IPFlag=           0 FMFlag=      100000 FMFlg1=           0
         NFxFlg=           0 DoJE=T BraDBF=F KetDBF=T FulRan=T
         wScrn=  0.000000 ICntrl=       500 IOpCl=  0 I1Cent=   200000004 NGrid=           0
         NMat0=    1 NMatS0=      1 NMatT0=    0 NMatD0=    1 NMtDS0=    0 NMtDT0=    0
 Petite list used in FoFCou.
 Harris En= -1245.65648126438    
 JPrj=0 DoOrth=F DoCkMO=F.
 Leave Link  401 at Mon Jan 25 23:57:38 2021, MaxMem=  4026531840 cpu:              19.4 elap:               2.4
 (Enter /opt/ohpc/pub/libs/gaussian/g16-A.03/sandybridge/g16/l502.exe)
 Integral symmetry usage will be decided dynamically.
 Closed shell SCF:
 Using DIIS extrapolation, IDIIS=    10.
 NGot=  4026531840 LenX=  4026286196 LenY=  4026166039
 Requested convergence on RMS density matrix=1.00D-06 within  32 cycles.
 Requested convergence on MAX density matrix=1.00D-04.
 Requested convergence on             energy=1.00D-04.
 Virtual orbitals will be shifted by   0.500 hartree.
 No special actions if energy rises.
 Dynamic level shift is on during FON iterations.

 Cycle   1  Pass 1  IDiag  1:
 FoFJK:  IHMeth= 1 ICntrl=       0 DoSepK=T KAlg= 0 I1Cent=           0 FoldK=F
 IRaf=         1 NMat=       1 IRICut=       1 DoRegI=T DoRafI=F ISym2E= 0 IDoP0=0 IntGTp=1.
 FoFCou: FMM=F IPFlag=           0 FMFlag=      100000 FMFlg1=           0
         NFxFlg=           0 DoJE=T BraDBF=F KetDBF=F FulRan=T
         wScrn=  0.000000 ICntrl=       500 IOpCl=  0 I1Cent=           0 NGrid=           0
         NMat0=    1 NMatS0=      1 NMatT0=    0 NMatD0=    1 NMtDS0=    0 NMtDT0=    0
 Symmetry not used in FoFCou.
 E= -1258.56887009899    
 DIIS: error= 2.20D-02 at cycle   1 NSaved=   1.
 NSaved= 1 IEnMin= 1 EnMin= -1258.56887009899     IErMin= 1 ErrMin= 2.20D-02
 ErrMax= 2.20D-02  0.00D+00 EMaxC= 1.00D+00 BMatC= 3.78D-01 BMatP= 3.78D-01
 IDIUse=1 WtCom= 1.00D+00 WtEn= 0.00D+00
 Coeff-Com:  0.100D+01
 Coeff:      0.100D+01
 Gap=     0.461 Goal=   None    Shift=    0.500
 T= 1311. Gap= 0.491 NK=0 IS=   58 IE=  332 IFin=   57
          NO(<0.9)=   0  NV(>0.1)=   0     57.00e < EF      0.00e >EF  Err=0.0D+00
 GapD=    0.461 DampG=2.000 DampE=0.500 DampFc=1.0000 IDamp=-1.
 RMSDP=6.34D-03 MaxDP=4.14D-01              OVMax= 1.24D-01

 Cycle   2  Pass 1  IDiag  1:
 E= -1258.93351592188     Delta-E=       -0.364645822895 Rises=F Damp=F
 DIIS: error= 6.34D-03 at cycle   2 NSaved=   2.
 NSaved= 2 IEnMin= 2 EnMin= -1258.93351592188     IErMin= 2 ErrMin= 6.34D-03
 ErrMax= 6.34D-03  0.00D+00 EMaxC= 1.00D+00 BMatC= 4.64D-02 BMatP= 3.78D-01
 IDIUse=1 WtCom= 1.00D+00 WtEn= 0.00D+00
 Coeff-Com:  0.236D+00 0.764D+00
 Coeff:      0.236D+00 0.764D+00
 Gap=     0.241 Goal=   None    Shift=    0.500
 T= 1148. Gap= 0.706 NK=0 IS=   58 IE=  332 IFin=   57
          NO(<0.9)=   0  NV(>0.1)=   0     57.00e < EF      0.00e >EF  Err=0.0D+00
 GapD=    0.241 DampG=1.000 DampE=1.000 DampFc=1.0000 IDamp=-1.
 RMSDP=1.26D-03 MaxDP=5.94D-02 DE=-3.65D-01 OVMax= 1.71D-02

 Cycle   3  Pass 1  IDiag  1:
 E= -1258.96466877648     Delta-E=       -0.031152854604 Rises=F Damp=F
 DIIS: error= 2.23D-03 at cycle   3 NSaved=   3.
 NSaved= 3 IEnMin= 3 EnMin= -1258.96466877648     IErMin= 3 ErrMin= 2.23D-03
 ErrMax= 2.23D-03  0.00D+00 EMaxC= 1.00D+00 BMatC= 5.04D-03 BMatP= 4.64D-02
 IDIUse=1 WtCom= 1.00D+00 WtEn= 0.00D+00
 Coeff-Com:  0.723D-01-0.107D+00 0.103D+01
 Coeff:      0.723D-01-0.107D+00 0.103D+01
 Gap=     0.225 Goal=   None    Shift=    0.500
 T=  849. Gap= 0.724 NK=0 IS=   58 IE=  332 IFin=   57
          NO(<0.9)=   0  NV(>0.1)=   0     57.00e < EF      0.00e >EF  Err=0.0D+00
 GapD=    0.225 DampG=1.000 DampE=1.000 DampFc=1.0000 IDamp=-1.
 RMSDP=9.94D-04 MaxDP=6.65D-02 DE=-3.12D-02 OVMax= 9.94D-03

 Cycle   4  Pass 1  IDiag  1:
 E= -1258.96990808257     Delta-E=       -0.005239306088 Rises=F Damp=F
 DIIS: error= 1.35D-03 at cycle   4 NSaved=   4.
 NSaved= 4 IEnMin= 4 EnMin= -1258.96990808257     IErMin= 4 ErrMin= 1.35D-03
 ErrMax= 1.35D-03  0.00D+00 EMaxC= 1.00D+00 BMatC= 6.06D-04 BMatP= 5.04D-03
 IDIUse=1 WtCom= 1.00D+00 WtEn= 0.00D+00
 Coeff-Com:  0.247D-02-0.256D-01-0.310D+00 0.133D+01
 Coeff:      0.247D-02-0.256D-01-0.310D+00 0.133D+01
 Gap=     0.228 Goal=   None    Shift=    0.500
 T=  173. Gap= 0.728 NK=0 IS=   58 IE=  332 IFin=   57
          NO(<0.9)=   0  NV(>0.1)=   0     57.00e < EF      0.00e >EF  Err=0.0D+00
 GapD=    0.228 DampG=1.000 DampE=1.000 DampFc=1.0000 IDamp=-1.
 RMSDP=6.15D-04 MaxDP=4.70D-02 DE=-5.24D-03 OVMax= 7.19D-03

 Cycle   5  Pass 1  IDiag  1:
 E= -1258.97090577350     Delta-E=       -0.000997690926 Rises=F Damp=F
 DIIS: error= 1.04D-03 at cycle   5 NSaved=   5.
 NSaved= 5 IEnMin= 5 EnMin= -1258.97090577350     IErMin= 5 ErrMin= 1.04D-03
 ErrMax= 1.04D-03  0.00D+00 EMaxC= 1.00D+00 BMatC= 1.10D-04 BMatP= 6.06D-04
 IDIUse=1 WtCom= 1.00D+00 WtEn= 0.00D+00
 Coeff-Com: -0.754D-02 0.108D-01-0.142D+00-0.263D+00 0.140D+01
 Coeff:     -0.754D-02 0.108D-01-0.142D+00-0.263D+00 0.140D+01
 Gap=     0.229 Goal=   None    Shift=    0.500
 GapD=    0.229 DampG=1.000 DampE=1.000 DampFc=1.0000 IDamp=-1.
 RMSDP=3.33D-04 MaxDP=2.55D-02 DE=-9.98D-04 OVMax= 6.15D-03

 Cycle   6  Pass 1  IDiag  1:
 E= -1258.97122763035     Delta-E=       -0.000321856847 Rises=F Damp=F
 DIIS: error= 7.84D-04 at cycle   6 NSaved=   6.
 NSaved= 6 IEnMin= 6 EnMin= -1258.97122763035     IErMin= 6 ErrMin= 7.84D-04
 ErrMax= 7.84D-04  0.00D+00 EMaxC= 1.00D+00 BMatC= 3.54D-05 BMatP= 1.10D-04
 IDIUse=1 WtCom= 1.00D+00 WtEn= 0.00D+00
 Coeff-Com: -0.516D-02 0.536D-02 0.794D-01-0.576D+00-0.118D-01 0.151D+01
 Coeff:     -0.516D-02 0.536D-02 0.794D-01-0.576D+00-0.118D-01 0.151D+01
 Gap=     0.230 Goal=   None    Shift=    0.500
 RMSDP=2.02D-04 MaxDP=1.52D-02 DE=-3.22D-04 OVMax= 4.53D-03

 Cycle   7  Pass 1  IDiag  1:
 E= -1258.97137189745     Delta-E=       -0.000144267104 Rises=F Damp=F
 DIIS: error= 5.56D-04 at cycle   7 NSaved=   7.
 NSaved= 7 IEnMin= 7 EnMin= -1258.97137189745     IErMin= 7 ErrMin= 5.56D-04
 ErrMax= 5.56D-04  0.00D+00 EMaxC= 1.00D+00 BMatC= 1.23D-05 BMatP= 3.54D-05
 IDIUse=1 WtCom= 1.00D+00 WtEn= 0.00D+00
 Coeff-Com: -0.111D-03-0.378D-02 0.476D-01 0.398D-01-0.525D+00-0.415D+00
 Coeff-Com:  0.186D+01
 Coeff:     -0.111D-03-0.378D-02 0.476D-01 0.398D-01-0.525D+00-0.415D+00
 Coeff:      0.186D+01
 Gap=     0.229 Goal=   None    Shift=    0.500
 RMSDP=1.11D-04 MaxDP=7.04D-03 DE=-1.44D-04 OVMax= 3.39D-03

 Cycle   8  Pass 1  IDiag  1:
 E= -1258.97143521910     Delta-E=       -0.000063321648 Rises=F Damp=F
 DIIS: error= 3.80D-04 at cycle   8 NSaved=   8.
 NSaved= 8 IEnMin= 8 EnMin= -1258.97143521910     IErMin= 8 ErrMin= 3.80D-04
 ErrMax= 3.80D-04  0.00D+00 EMaxC= 1.00D+00 BMatC= 5.15D-06 BMatP= 1.23D-05
 IDIUse=1 WtCom= 1.00D+00 WtEn= 0.00D+00
 Coeff-Com:  0.498D-03-0.260D-02-0.231D-01 0.228D+00-0.236D+00-0.542D+00
 Coeff-Com: -0.327D+00 0.190D+01
 Coeff:      0.498D-03-0.260D-02-0.231D-01 0.228D+00-0.236D+00-0.542D+00
 Coeff:     -0.327D+00 0.190D+01
 Gap=     0.230 Goal=   None    Shift=    0.500
 RMSDP=6.27D-05 MaxDP=2.83D-03 DE=-6.33D-05 OVMax= 2.39D-03

 Cycle   9  Pass 1  IDiag  1:
 E= -1258.97146336979     Delta-E=       -0.000028150690 Rises=F Damp=F
 DIIS: error= 2.61D-04 at cycle   9 NSaved=   9.
 NSaved= 9 IEnMin= 9 EnMin= -1258.97146336979     IErMin= 9 ErrMin= 2.61D-04
 ErrMax= 2.61D-04  0.00D+00 EMaxC= 1.00D+00 BMatC= 2.21D-06 BMatP= 5.15D-06
 IDIUse=1 WtCom= 1.00D+00 WtEn= 0.00D+00
 Coeff-Com: -0.166D-03-0.344D-03-0.168D-01 0.379D-01 0.914D-01 0.108D+00
 Coeff-Com: -0.113D+01 0.511D-01 0.186D+01
 Coeff:     -0.166D-03-0.344D-03-0.168D-01 0.379D-01 0.914D-01 0.108D+00
 Coeff:     -0.113D+01 0.511D-01 0.186D+01
 Gap=     0.230 Goal=   None    Shift=    0.500
 RMSDP=3.84D-05 MaxDP=1.31D-03 DE=-2.82D-05 OVMax= 1.67D-03

 Cycle  10  Pass 1  IDiag  1:
 E= -1258.97147565356     Delta-E=       -0.000012283773 Rises=F Damp=F
 DIIS: error= 1.68D-04 at cycle  10 NSaved=  10.
 NSaved=10 IEnMin=10 EnMin= -1258.97147565356     IErMin=10 ErrMin= 1.68D-04
 ErrMax= 1.68D-04  0.00D+00 EMaxC= 1.00D+00 BMatC= 9.25D-07 BMatP= 2.21D-06
 IDIUse=1 WtCom= 1.00D+00 WtEn= 0.00D+00
 Coeff-Com: -0.324D-03 0.307D-03 0.279D-02-0.476D-01 0.933D-01 0.235D+00
 Coeff-Com: -0.508D+00-0.497D+00-0.562D-02 0.173D+01
 Coeff:     -0.324D-03 0.307D-03 0.279D-02-0.476D-01 0.933D-01 0.235D+00
 Coeff:     -0.508D+00-0.497D+00-0.562D-02 0.173D+01
 Gap=     0.230 Goal=   None    Shift=    0.500
 RMSDP=2.38D-05 MaxDP=8.86D-04 DE=-1.23D-05 OVMax= 1.09D-03

 Cycle  11  Pass 1  IDiag  1:
 E= -1258.97148074781     Delta-E=       -0.000005094246 Rises=F Damp=F
 DIIS: error= 1.12D-04 at cycle  11 NSaved=  11.
 NSaved=11 IEnMin=11 EnMin= -1258.97148074781     IErMin=11 ErrMin= 1.12D-04
 ErrMax= 1.12D-04  0.00D+00 EMaxC= 1.00D+00 BMatC= 4.03D-07 BMatP= 9.25D-07
 IDIUse=1 WtCom= 1.00D+00 WtEn= 0.00D+00
 Coeff-Com: -0.171D-03 0.318D-03 0.525D-02-0.120D-01-0.223D-01 0.172D-01
 Coeff-Com:  0.276D+00-0.114D+00-0.109D+01-0.130D+00 0.207D+01
 Coeff:     -0.171D-03 0.318D-03 0.525D-02-0.120D-01-0.223D-01 0.172D-01
 Coeff:      0.276D+00-0.114D+00-0.109D+01-0.130D+00 0.207D+01
 Gap=     0.230 Goal=   None    Shift=    0.500
 RMSDP=1.49D-05 MaxDP=5.61D-04 DE=-5.09D-06 OVMax= 7.22D-04

 Cycle  12  Pass 1  IDiag  1:
 E= -1258.97148289037     Delta-E=       -0.000002142560 Rises=F Damp=F
 DIIS: error= 6.99D-05 at cycle  12 NSaved=  12.
 NSaved=12 IEnMin=12 EnMin= -1258.97148289037     IErMin=12 ErrMin= 6.99D-05
 ErrMax= 6.99D-05  0.00D+00 EMaxC= 1.00D+00 BMatC= 1.78D-07 BMatP= 4.03D-07
 IDIUse=1 WtCom= 1.00D+00 WtEn= 0.00D+00
 Coeff-Com: -0.378D-04 0.379D-04 0.139D-02 0.910D-02-0.367D-01-0.411D-01
 Coeff-Com:  0.228D+00 0.124D+00-0.566D+00-0.559D+00 0.188D-01 0.182D+01
 Coeff:     -0.378D-04 0.379D-04 0.139D-02 0.910D-02-0.367D-01-0.411D-01
 Coeff:      0.228D+00 0.124D+00-0.566D+00-0.559D+00 0.188D-01 0.182D+01
 Gap=     0.230 Goal=   None    Shift=    0.500
 RMSDP=9.69D-06 MaxDP=3.65D-04 DE=-2.14D-06 OVMax= 4.59D-04

 Cycle  13  Pass 1  IDiag  1:
 E= -1258.97148378603     Delta-E=       -0.000000895664 Rises=F Damp=F
 DIIS: error= 4.42D-05 at cycle  13 NSaved=  13.
 NSaved=13 IEnMin=13 EnMin= -1258.97148378603     IErMin=13 ErrMin= 4.42D-05
 ErrMax= 4.42D-05  0.00D+00 EMaxC= 1.00D+00 BMatC= 7.34D-08 BMatP= 1.78D-07
 IDIUse=1 WtCom= 1.00D+00 WtEn= 0.00D+00
 Coeff-Com:  0.509D-05-0.207D-03-0.145D-02 0.639D-02-0.193D-02-0.347D-02
 Coeff-Com: -0.784D-01 0.114D+00 0.275D+00-0.155D+00-0.110D+01-0.301D+00
 Coeff-Com:  0.225D+01
 Coeff:      0.509D-05-0.207D-03-0.145D-02 0.639D-02-0.193D-02-0.347D-02
 Coeff:     -0.784D-01 0.114D+00 0.275D+00-0.155D+00-0.110D+01-0.301D+00
 Coeff:      0.225D+01
 Gap=     0.230 Goal=   None    Shift=    0.500
 RMSDP=6.15D-06 MaxDP=2.18D-04 DE=-8.96D-07 OVMax= 3.06D-04

 Cycle  14  Pass 1  IDiag  1:
 E= -1258.97148415842     Delta-E=       -0.000000372387 Rises=F Damp=F
 DIIS: error= 2.73D-05 at cycle  14 NSaved=  14.
 NSaved=14 IEnMin=14 EnMin= -1258.97148415842     IErMin=14 ErrMin= 2.73D-05
 ErrMax= 2.73D-05  0.00D+00 EMaxC= 1.00D+00 BMatC= 3.33D-08 BMatP= 7.34D-08
 IDIUse=1 WtCom= 1.00D+00 WtEn= 0.00D+00
 Coeff-Com: -0.767D-05-0.838D-04-0.547D-03-0.995D-03 0.955D-02 0.124D-01
 Coeff-Com: -0.735D-01-0.174D-01 0.212D+00 0.155D+00-0.309D+00-0.973D+00
 Coeff-Com: -0.191D+00 0.218D+01
 Coeff:     -0.767D-05-0.838D-04-0.547D-03-0.995D-03 0.955D-02 0.124D-01
 Coeff:     -0.735D-01-0.174D-01 0.212D+00 0.155D+00-0.309D+00-0.973D+00
 Coeff:     -0.191D+00 0.218D+01
 Gap=     0.230 Goal=   None    Shift=    0.500
 RMSDP=4.30D-06 MaxDP=1.44D-04 DE=-3.72D-07 OVMax= 2.32D-04

 Cycle  15  Pass 1  IDiag  1:
 E= -1258.97148432169     Delta-E=       -0.000000163273 Rises=F Damp=F
 DIIS: error= 1.63D-05 at cycle  15 NSaved=  15.
 NSaved=15 IEnMin=15 EnMin= -1258.97148432169     IErMin=15 ErrMin= 1.63D-05
 ErrMax= 1.63D-05  0.00D+00 EMaxC= 1.00D+00 BMatC= 1.44D-08 BMatP= 3.33D-08
 IDIUse=1 WtCom= 1.00D+00 WtEn= 0.00D+00
 Coeff-Com: -0.197D-04 0.334D-04 0.484D-03-0.295D-02 0.407D-02 0.968D-02
 Coeff-Com:  0.132D-03-0.611D-01-0.230D-01 0.170D+00 0.305D+00-0.474D+00
 Coeff-Com: -0.103D+01 0.897D-01 0.201D+01
 Coeff:     -0.197D-04 0.334D-04 0.484D-03-0.295D-02 0.407D-02 0.968D-02
 Coeff:      0.132D-03-0.611D-01-0.230D-01 0.170D+00 0.305D+00-0.474D+00
 Coeff:     -0.103D+01 0.897D-01 0.201D+01
 Gap=     0.230 Goal=   None    Shift=    0.500
 RMSDP=2.98D-06 MaxDP=9.40D-05 DE=-1.63D-07 OVMax= 1.72D-04

 Cycle  16  Pass 1  IDiag  1:
 E= -1258.97148439356     Delta-E=       -0.000000071869 Rises=F Damp=F
 DIIS: error= 1.01D-05 at cycle  16 NSaved=  16.
 NSaved=16 IEnMin=16 EnMin= -1258.97148439356     IErMin=16 ErrMin= 1.01D-05
 ErrMax= 1.01D-05  0.00D+00 EMaxC= 1.00D+00 BMatC= 6.70D-09 BMatP= 1.44D-08
 IDIUse=1 WtCom= 1.00D+00 WtEn= 0.00D+00
 Coeff-Com: -0.299D-05 0.277D-04 0.486D-03-0.115D-02-0.226D-02 0.208D-02
 Coeff-Com:  0.234D-01-0.137D-01-0.700D-01 0.536D-02 0.166D+00 0.246D+00
 Coeff-Com: -0.327D+00-0.119D+01-0.162D+00 0.232D+01
 Coeff:     -0.299D-05 0.277D-04 0.486D-03-0.115D-02-0.226D-02 0.208D-02
 Coeff:      0.234D-01-0.137D-01-0.700D-01 0.536D-02 0.166D+00 0.246D+00
 Coeff:     -0.327D+00-0.119D+01-0.162D+00 0.232D+01
 Gap=     0.230 Goal=   None    Shift=    0.500
 RMSDP=2.19D-06 MaxDP=7.25D-05 DE=-7.19D-08 OVMax= 1.33D-04

 Cycle  17  Pass 1  IDiag  1:
 E= -1258.97148442789     Delta-E=       -0.000000034332 Rises=F Damp=F
 DIIS: error= 5.90D-06 at cycle  17 NSaved=  17.
 NSaved=17 IEnMin=17 EnMin= -1258.97148442789     IErMin=17 ErrMin= 5.90D-06
 ErrMax= 5.90D-06  0.00D+00 EMaxC= 1.00D+00 BMatC= 2.94D-09 BMatP= 6.70D-09
 IDIUse=1 WtCom= 1.00D+00 WtEn= 0.00D+00
 Coeff-Com:  0.397D-05-0.692D-05 0.159D-05 0.804D-03-0.283D-02-0.234D-02
 Coeff-Com:  0.853D-02 0.201D-01-0.188D-01-0.648D-01-0.451D-01 0.309D+00
 Coeff-Com:  0.231D+00-0.658D+00-0.103D+01 0.185D+00 0.207D+01
 Coeff:      0.397D-05-0.692D-05 0.159D-05 0.804D-03-0.283D-02-0.234D-02
 Coeff:      0.853D-02 0.201D-01-0.188D-01-0.648D-01-0.451D-01 0.309D+00
 Coeff:      0.231D+00-0.658D+00-0.103D+01 0.185D+00 0.207D+01
 Gap=     0.230 Goal=   None    Shift=    0.500
 RMSDP=1.50D-06 MaxDP=5.12D-05 DE=-3.43D-08 OVMax= 9.81D-05

 Cycle  18  Pass 1  IDiag  1:
 E= -1258.97148444369     Delta-E=       -0.000000015801 Rises=F Damp=F
 DIIS: error= 4.02D-06 at cycle  18 NSaved=  18.
 NSaved=18 IEnMin=18 EnMin= -1258.97148444369     IErMin=18 ErrMin= 4.02D-06
 ErrMax= 4.02D-06  0.00D+00 EMaxC= 1.00D+00 BMatC= 1.31D-09 BMatP= 2.94D-09
 IDIUse=1 WtCom= 1.00D+00 WtEn= 0.00D+00
 Coeff-Com:  0.133D-05-0.169D-04-0.209D-03 0.965D-03-0.501D-03-0.212D-02
 Coeff-Com: -0.534D-02 0.170D-01 0.184D-01-0.365D-01-0.839D-01 0.673D-01
 Coeff-Com:  0.242D+00 0.988D-01-0.608D+00-0.904D+00 0.436D+00 0.176D+01
 Coeff:      0.133D-05-0.169D-04-0.209D-03 0.965D-03-0.501D-03-0.212D-02
 Coeff:     -0.534D-02 0.170D-01 0.184D-01-0.365D-01-0.839D-01 0.673D-01
 Coeff:      0.242D+00 0.988D-01-0.608D+00-0.904D+00 0.436D+00 0.176D+01
 Gap=     0.230 Goal=   None    Shift=    0.500
 RMSDP=1.04D-06 MaxDP=3.49D-05 DE=-1.58D-08 OVMax= 6.83D-05

 Cycle  19  Pass 1  IDiag  1:
 E= -1258.97148445093     Delta-E=       -0.000000007241 Rises=F Damp=F
 DIIS: error= 2.84D-06 at cycle  19 NSaved=  19.
 NSaved=19 IEnMin=19 EnMin= -1258.97148445093     IErMin=19 ErrMin= 2.84D-06
 ErrMax= 2.84D-06  0.00D+00 EMaxC= 1.00D+00 BMatC= 6.06D-10 BMatP= 1.31D-09
 IDIUse=1 WtCom= 1.00D+00 WtEn= 0.00D+00
 Coeff-Com: -0.211D-05-0.648D-05-0.868D-04 0.119D-03 0.945D-03-0.952D-04
 Coeff-Com: -0.561D-02-0.352D-03 0.152D-01 0.111D-01-0.140D-01-0.893D-01
 Coeff-Com:  0.174D-01 0.285D+00 0.669D-01-0.494D+00-0.814D+00-0.510D-01
 Coeff-Com:  0.207D+01
 Coeff:     -0.211D-05-0.648D-05-0.868D-04 0.119D-03 0.945D-03-0.952D-04
 Coeff:     -0.561D-02-0.352D-03 0.152D-01 0.111D-01-0.140D-01-0.893D-01
 Coeff:      0.174D-01 0.285D+00 0.669D-01-0.494D+00-0.814D+00-0.510D-01
 Coeff:      0.207D+01
 Gap=     0.230 Goal=   None    Shift=    0.500
 RMSDP=7.29D-07 MaxDP=2.48D-05 DE=-7.24D-09 OVMax= 4.88D-05

 SCF Done:  E(RLC-wHPBE) =  -1258.97148445     A.U. after   19 cycles
            NFock= 19  Conv=0.73D-06     -V/T= 2.0033
 KE= 1.254789172456D+03 PE=-5.047238939781D+03 EE= 1.492836214554D+03
 Leave Link  502 at Tue Jan 26 00:01:06 2021, MaxMem=  4026531840 cpu:            1661.2 elap:             207.9
 (Enter /opt/ohpc/pub/libs/gaussian/g16-A.03/sandybridge/g16/l508.exe)
 QCSCF skips out because SCF is already converged.
 Leave Link  508 at Tue Jan 26 00:01:06 2021, MaxMem=  4026531840 cpu:               0.2 elap:               0.1
 (Enter /opt/ohpc/pub/libs/gaussian/g16-A.03/sandybridge/g16/l601.exe)
 Copying SCF densities to generalized density rwf, IOpCl= 0 IROHF=0.

 **********************************************************************

            Population analysis using the SCF density.

 **********************************************************************

 Orbital symmetries:
       Occupied  (A) (A) (A) (A) (A) (A) (A) (A) (A) (A) (A) (A)
                 (A) (A) (A) (A) (A) (A) (A) (A) (A) (A) (A) (A)
                 (A) (A) (A) (A) (A) (A) (A) (A) (A) (A) (A) (A)
                 (A) (A) (A) (A) (A) (A) (A) (A) (A) (A) (A) (A)
                 (A) (A) (A) (A) (A) (A) (A) (A) (A)
       Virtual   (A) (A) (A) (A) (A) (A) (A) (A) (A) (A) (A) (A)
                 (A) (A) (A) (A) (A) (A) (A) (A) (A) (A) (A) (A)
                 (A) (A) (A) (A) (A) (A) (A) (A) (A) (A) (A) (A)
                 (A) (A) (A) (A) (A) (A) (A) (A) (A) (A) (A) (A)
                 (A) (A) (A) (A) (A) (A) (A) (A) (A) (A) (A) (A)
                 (A) (A) (A) (A) (A) (A) (A) (A) (A) (A) (A) (A)
                 (A) (A) (A) (A) (A) (A) (A) (A) (A) (A) (A) (A)
                 (A) (A) (A) (A) (A) (A) (A) (A) (A) (A) (A) (A)
                 (A) (A) (A) (A) (A) (A) (A) (A) (A) (A) (A) (A)
                 (A) (A) (A) (A) (A) (A) (A) (A) (A) (A) (A) (A)
                 (A) (A) (A) (A) (A) (A) (A) (A) (A) (A) (A) (A)
                 (A) (A) (A) (A) (A) (A) (A) (A) (A) (A) (A) (A)
                 (A) (A) (A) (A) (A) (A) (A) (A) (A) (A) (A) (A)
                 (A) (A) (A) (A) (A) (A) (A) (A) (A) (A) (A) (A)
                 (A) (A) (A) (A) (A) (A) (A) (A) (A) (A) (A) (A)
                 (A) (A) (A) (A) (A) (A) (A) (A) (A) (A) (A) (A)
                 (A) (A) (A) (A) (A) (A) (A) (A) (A) (A) (A) (A)
                 (A) (A) (A) (A) (A) (A) (A) (A) (A) (A) (A) (A)
                 (A) (A) (A) (A) (A) (A) (A) (A) (A) (A) (A) (A)
                 (A) (A) (A) (A) (A) (A) (A) (A) (A) (A) (A) (A)
                 (A) (A) (A) (A) (A) (A) (A) (A) (A) (A) (A) (A)
                 (A) (A) (A) (A) (A) (A) (A) (A) (A) (A) (A) (A)
                 (A) (A) (A) (A) (A) (A) (A) (A) (A) (A) (A)
 The electronic state is 1-A.
 Alpha  occ. eigenvalues --  -88.31198 -88.22125 -10.08034 -10.07841 -10.04590
 Alpha  occ. eigenvalues --  -10.03741 -10.03643 -10.03503 -10.02506 -10.00390
 Alpha  occ. eigenvalues --   -9.99207  -9.98565  -9.97479  -9.93770  -7.90237
 Alpha  occ. eigenvalues --   -7.81362  -5.92200  -5.92036  -5.91338  -5.83549
 Alpha  occ. eigenvalues --   -5.83063  -5.82265  -0.96954  -0.92605  -0.88108
 Alpha  occ. eigenvalues --   -0.86884  -0.82791  -0.78786  -0.77711  -0.76089
 Alpha  occ. eigenvalues --   -0.70170  -0.68347  -0.65101  -0.63092  -0.60724
 Alpha  occ. eigenvalues --   -0.57763  -0.56970  -0.55140  -0.53423  -0.51684
 Alpha  occ. eigenvalues --   -0.51271  -0.49334  -0.49255  -0.47095  -0.46145
 Alpha  occ. eigenvalues --   -0.45892  -0.44749  -0.43394  -0.41954  -0.40446
 Alpha  occ. eigenvalues --   -0.37621  -0.37549  -0.36308  -0.32112  -0.29578
 Alpha  occ. eigenvalues --   -0.29501  -0.22654
 Alpha virt. eigenvalues --    0.00351   0.01643   0.03741   0.05065   0.07319
 Alpha virt. eigenvalues --    0.08505   0.09145   0.10182   0.11496   0.12504
 Alpha virt. eigenvalues --    0.13794   0.14317   0.16369   0.16624   0.16953
 Alpha virt. eigenvalues --    0.18484   0.18710   0.19792   0.20839   0.21324
 Alpha virt. eigenvalues --    0.23480   0.24047   0.24471   0.25487   0.26067
 Alpha virt. eigenvalues --    0.27057   0.27180   0.28367   0.28673   0.29361
 Alpha virt. eigenvalues --    0.29713   0.30123   0.31365   0.31855   0.32191
 Alpha virt. eigenvalues --    0.32822   0.33528   0.33737   0.34146   0.35073
 Alpha virt. eigenvalues --    0.35800   0.36218   0.37397   0.38167   0.39045
 Alpha virt. eigenvalues --    0.39843   0.40472   0.41088   0.41426   0.43093
 Alpha virt. eigenvalues --    0.43518   0.44139   0.44471   0.44864   0.44926
 Alpha virt. eigenvalues --    0.46117   0.46824   0.47554   0.48312   0.48700
 Alpha virt. eigenvalues --    0.49013   0.49883   0.50300   0.51336   0.51483
 Alpha virt. eigenvalues --    0.52552   0.52978   0.54283   0.54816   0.55721
 Alpha virt. eigenvalues --    0.55954   0.56461   0.58077   0.58615   0.59067
 Alpha virt. eigenvalues --    0.59632   0.60848   0.62376   0.62898   0.64414
 Alpha virt. eigenvalues --    0.65737   0.66063   0.68418   0.69886   0.71590
 Alpha virt. eigenvalues --    0.73473   0.74588   0.75184   0.76109   0.77255
 Alpha virt. eigenvalues --    0.77601   0.79331   0.79868   0.81241   0.82986
 Alpha virt. eigenvalues --    0.85671   0.89651   0.90906   0.91672   0.92116
 Alpha virt. eigenvalues --    0.94048   0.94982   0.97287   0.98534   0.99616
 Alpha virt. eigenvalues --    1.07623   1.10469   1.19626   1.22434   1.25545
 Alpha virt. eigenvalues --    1.27142   1.28211   1.29131   1.29147   1.30467
 Alpha virt. eigenvalues --    1.31141   1.32258   1.33065   1.33838   1.34208
 Alpha virt. eigenvalues --    1.35507   1.37717   1.38027   1.38290   1.38954
 Alpha virt. eigenvalues --    1.42346   1.43251   1.43500   1.44421   1.45953
 Alpha virt. eigenvalues --    1.46772   1.47261   1.47422   1.48433   1.50596
 Alpha virt. eigenvalues --    1.51153   1.51353   1.51853   1.52253   1.53112
 Alpha virt. eigenvalues --    1.53817   1.54803   1.55530   1.55981   1.57038
 Alpha virt. eigenvalues --    1.57750   1.58439   1.58701   1.58925   1.61178
 Alpha virt. eigenvalues --    1.62254   1.64020   1.64479   1.65366   1.67047
 Alpha virt. eigenvalues --    1.68006   1.68354   1.71717   1.72097   1.72659
 Alpha virt. eigenvalues --    1.75224   1.75967   1.78719   1.79779   1.80130
 Alpha virt. eigenvalues --    1.81997   1.82264   1.82717   1.84068   1.84397
 Alpha virt. eigenvalues --    1.85895   1.86752   1.89222   1.90165   1.90436
 Alpha virt. eigenvalues --    1.91529   1.92911   1.93410   1.93861   1.94427
 Alpha virt. eigenvalues --    1.95163   1.96833   1.97286   1.99163   2.00188
 Alpha virt. eigenvalues --    2.02188   2.02868   2.04003   2.04207   2.06727
 Alpha virt. eigenvalues --    2.07805   2.09976   2.11180   2.14674   2.16834
 Alpha virt. eigenvalues --    2.18741   2.22404   2.27300   2.28034   2.30038
 Alpha virt. eigenvalues --    2.31370   2.31743   2.32441   2.33273   2.35163
 Alpha virt. eigenvalues --    2.36023   2.36466   2.37971   2.38443   2.38803
 Alpha virt. eigenvalues --    2.40232   2.41667   2.44152   2.46297   2.49019
 Alpha virt. eigenvalues --    2.50301   2.51229   2.53509   2.53701   2.56451
 Alpha virt. eigenvalues --    2.57706   2.59470   2.59898   2.62791   2.64329
 Alpha virt. eigenvalues --    2.64902   2.66211   2.66438   2.67826   2.69584
 Alpha virt. eigenvalues --    2.71256   2.72135   2.73125   2.73854   2.75595
 Alpha virt. eigenvalues --    2.81273   2.83382   2.83866   2.87827   2.96300
 Alpha virt. eigenvalues --    2.99388   3.03419   3.07219   3.10721   3.12581
 Alpha virt. eigenvalues --    3.13188   3.13773   3.15363   3.17570   3.18815
 Alpha virt. eigenvalues --    3.20318   3.22954   3.29072   3.30351   3.36477
 Alpha virt. eigenvalues --    3.38399   3.40274   3.54909   3.57977   3.72518
 Alpha virt. eigenvalues --    3.73823  18.95932  19.06476  21.06109  21.34102
 Alpha virt. eigenvalues --   21.61311  21.69530  21.71458  21.74562  21.91228
 Alpha virt. eigenvalues --   21.93031  21.95506  22.00858  22.09588  22.13924
          Condensed to atoms (all electrons):
               1          2          3          4          5          6
     1  C    6.356515  -0.394361  -0.106875   0.351873  -0.006199  -0.028496
     2  C   -0.394361   6.456355   0.459552  -0.464944  -0.029535   0.030546
     3  S   -0.106875   0.459552  15.479625  -0.161918   0.011791  -0.056945
     4  C    0.351873  -0.464944  -0.161918   6.570859  -0.040951  -0.022959
     5  C   -0.006199  -0.029535   0.011791  -0.040951   7.092609  -0.054100
     6  C   -0.028496   0.030546  -0.056945  -0.022959  -0.054100   5.906511
     7  C   -0.405606   0.369577   0.059285  -0.345850   0.002793   0.006193
     8  C   -0.445223   0.130638   0.029584  -0.256729   0.020537   0.000850
     9  H   -0.003274   0.016361   0.005241  -0.024976  -0.063293   0.013204
    10  C   -0.005706   0.031721  -0.016655  -0.024599  -0.732342   0.177111
    11  C    0.001982   0.002872   0.019112  -0.004631   0.109513   0.364034
    12  C   -0.000781   0.001277  -0.010842  -0.002715  -0.448996   0.124821
    13  C    0.000423  -0.000653   0.016802   0.002201   0.246420  -0.114815
    14  H    0.000026   0.000337  -0.000686  -0.000392  -0.069227   0.003127
    15  H    0.000163  -0.000154  -0.000495   0.000159   0.038717  -0.084675
    16  H    0.000004  -0.000059  -0.000432   0.000042   0.004736   0.013522
    17  H    0.000000   0.000014   0.000194  -0.000002   0.025682  -0.000167
    18  C    0.357641  -0.346088  -0.011189   0.271259  -0.005304  -0.007555
    19  H    0.464553  -0.115904  -0.012801   0.035759   0.000100  -0.000680
    20  H   -0.051320  -0.006152   0.302713   0.006639   0.000530   0.004946
    21  H   -0.062405   0.024130  -0.000060  -0.004870   0.000008   0.000031
    22  H   -0.005900   0.035110   0.000059  -0.082575   0.002141   0.000524
    23  H    0.024464  -0.004827  -0.000051   0.028207  -0.000029  -0.000040
    24  S    0.029697  -0.213618  -0.008954   0.375973   0.244302  -0.100742
               7          8          9         10         11         12
     1  C   -0.405606  -0.445223  -0.003274  -0.005706   0.001982  -0.000781
     2  C    0.369577   0.130638   0.016361   0.031721   0.002872   0.001277
     3  S    0.059285   0.029584   0.005241  -0.016655   0.019112  -0.010842
     4  C   -0.345850  -0.256729  -0.024976  -0.024599  -0.004631  -0.002715
     5  C    0.002793   0.020537  -0.063293  -0.732342   0.109513  -0.448996
     6  C    0.006193   0.000850   0.013204   0.177111   0.364034   0.124821
     7  C    5.687378   0.314416   0.000981   0.000853  -0.000537   0.000110
     8  C    0.314416   5.914260  -0.013572  -0.006876  -0.002265  -0.000077
     9  H    0.000981  -0.013572   0.640708   0.045056  -0.001072   0.001261
    10  C    0.000853  -0.006876   0.045056   6.467909  -0.370648   0.360120
    11  C   -0.000537  -0.002265  -0.001072  -0.370648   5.325515   0.101988
    12  C    0.000110  -0.000077   0.001261   0.360120   0.101988   5.589245
    13  C   -0.000075   0.000417  -0.000053   0.066184   0.187101   0.162771
    14  H   -0.000004  -0.000169  -0.000681   0.374799  -0.000313   0.009552
    15  H   -0.000022  -0.000055  -0.000023  -0.008675   0.448206  -0.143631
    16  H    0.000000   0.000001  -0.000013   0.009441  -0.041289   0.393332
    17  H   -0.000000  -0.000001  -0.000030  -0.069799   0.012716  -0.056034
    18  C    0.098693   0.047709  -0.004263  -0.001117   0.000420  -0.000070
    19  H   -0.066294  -0.007281  -0.000040  -0.000081   0.000048  -0.000030
    20  H    0.006065   0.002456   0.000268   0.001071  -0.000531   0.000611
    21  H    0.426019   0.022883   0.000007   0.000002  -0.000001   0.000000
    22  H    0.015889   0.396612   0.000875   0.000314  -0.000035   0.000006
    23  H   -0.072507  -0.081129  -0.000019  -0.000003   0.000001  -0.000000
    24  S   -0.004675  -0.003114   0.275575  -0.319091   0.025320  -0.015254
              13         14         15         16         17         18
     1  C    0.000423   0.000026   0.000163   0.000004   0.000000   0.357641
     2  C   -0.000653   0.000337  -0.000154  -0.000059   0.000014  -0.346088
     3  S    0.016802  -0.000686  -0.000495  -0.000432   0.000194  -0.011189
     4  C    0.002201  -0.000392   0.000159   0.000042  -0.000002   0.271259
     5  C    0.246420  -0.069227   0.038717   0.004736   0.025682  -0.005304
     6  C   -0.114815   0.003127  -0.084675   0.013522  -0.000167  -0.007555
     7  C   -0.000075  -0.000004  -0.000022   0.000000  -0.000000   0.098693
     8  C    0.000417  -0.000169  -0.000055   0.000001  -0.000001   0.047709
     9  H   -0.000053  -0.000681  -0.000023  -0.000013  -0.000030  -0.004263
    10  C    0.066184   0.374799  -0.008675   0.009441  -0.069799  -0.001117
    11  C    0.187101  -0.000313   0.448206  -0.041289   0.012716   0.000420
    12  C    0.162771   0.009552  -0.143631   0.393332  -0.056034  -0.000070
    13  C    5.205958  -0.004608   0.022960  -0.059010   0.416428   0.000051
    14  H   -0.004608   0.594308   0.000144  -0.000209  -0.008211   0.000024
    15  H    0.022960   0.000144   0.642189  -0.006895  -0.000294   0.000017
    16  H   -0.059010  -0.000209  -0.006895   0.597618  -0.006943   0.000000
    17  H    0.416428  -0.008211  -0.000294  -0.006943   0.586066   0.000000
    18  C    0.000051   0.000024   0.000017   0.000000   0.000000   5.354714
    19  H    0.000014   0.000000   0.000007   0.000000  -0.000000   0.021450
    20  H   -0.000751  -0.000074  -0.000058  -0.000005   0.000002  -0.001910
    21  H   -0.000000  -0.000000  -0.000000  -0.000000  -0.000000  -0.069352
    22  H   -0.000002  -0.000005  -0.000001  -0.000000  -0.000000  -0.040510
    23  H    0.000000   0.000000   0.000000   0.000000   0.000000   0.441504
    24  S    0.040157  -0.003964  -0.000107   0.000151  -0.000241   0.009911
              19         20         21         22         23         24
     1  C    0.464553  -0.051320  -0.062405  -0.005900   0.024464   0.029697
     2  C   -0.115904  -0.006152   0.024130   0.035110  -0.004827  -0.213618
     3  S   -0.012801   0.302713  -0.000060   0.000059  -0.000051  -0.008954
     4  C    0.035759   0.006639  -0.004870  -0.082575   0.028207   0.375973
     5  C    0.000100   0.000530   0.000008   0.002141  -0.000029   0.244302
     6  C   -0.000680   0.004946   0.000031   0.000524  -0.000040  -0.100742
     7  C   -0.066294   0.006065   0.426019   0.015889  -0.072507  -0.004675
     8  C   -0.007281   0.002456   0.022883   0.396612  -0.081129  -0.003114
     9  H   -0.000040   0.000268   0.000007   0.000875  -0.000019   0.275575
    10  C   -0.000081   0.001071   0.000002   0.000314  -0.000003  -0.319091
    11  C    0.000048  -0.000531  -0.000001  -0.000035   0.000001   0.025320
    12  C   -0.000030   0.000611   0.000000   0.000006  -0.000000  -0.015254
    13  C    0.000014  -0.000751  -0.000000  -0.000002   0.000000   0.040157
    14  H    0.000000  -0.000074  -0.000000  -0.000005   0.000000  -0.003964
    15  H    0.000007  -0.000058  -0.000000  -0.000001   0.000000  -0.000107
    16  H    0.000000  -0.000005  -0.000000  -0.000000   0.000000   0.000151
    17  H   -0.000000   0.000002  -0.000000  -0.000000   0.000000  -0.000241
    18  C    0.021450  -0.001910  -0.069352  -0.040510   0.441504   0.009911
    19  H    0.554512  -0.004174  -0.008537  -0.000065  -0.000167   0.000096
    20  H   -0.004174   0.655008   0.000065   0.000021  -0.000010  -0.000754
    21  H   -0.008537   0.000065   0.557259  -0.000164  -0.008314   0.000035
    22  H   -0.000065   0.000021  -0.000164   0.533413  -0.007735   0.004083
    23  H   -0.000167  -0.000010  -0.008314  -0.007735   0.559402  -0.000624
    24  S    0.000096  -0.000754   0.000035   0.004083  -0.000624  15.328810
 Mulliken charges:
               1
     1  C   -0.071193
     2  C    0.017803
     3  S    0.003945
     4  C   -0.204858
     5  C   -0.349904
     6  C   -0.174244
     7  C   -0.092682
     8  C   -0.063871
     9  H    0.111772
    10  C    0.021012
    11  C   -0.177506
    12  C   -0.066664
    13  C   -0.187919
    14  H    0.106225
    15  H    0.092521
    16  H    0.096008
    17  H    0.100619
    18  C   -0.116036
    19  H    0.139515
    20  H    0.085341
    21  H    0.123265
    22  H    0.147946
    23  H    0.121878
    24  S    0.337026
 Sum of Mulliken charges =  -0.00000
 Mulliken charges with hydrogens summed into heavy atoms:
               1
     1  C    0.068322
     2  C    0.017803
     3  S    0.089287
     4  C   -0.204858
     5  C   -0.349904
     6  C   -0.174244
     7  C    0.030582
     8  C    0.084075
    10  C    0.127236
    11  C   -0.084984
    12  C    0.029344
    13  C   -0.087300
    18  C    0.005842
    24  S    0.448798
 Electronic spatial extent (au):  <R**2>=           3318.0425
 Charge=             -0.0000 electrons
 Dipole moment (field-independent basis, Debye):
    X=              4.6178    Y=             -0.9159    Z=             -4.4713  Tot=              6.4927
 Quadrupole moment (field-independent basis, Debye-Ang):
   XX=            -86.1887   YY=            -87.0688   ZZ=           -101.0240
   XY=             -1.1421   XZ=              5.4172   YZ=              2.5359
 Traceless Quadrupole moment (field-independent basis, Debye-Ang):
   XX=              5.2385   YY=              4.3584   ZZ=             -9.5968
   XY=             -1.1421   XZ=              5.4172   YZ=              2.5359
 Octapole moment (field-independent basis, Debye-Ang**2):
  XXX=             54.4685  YYY=              1.5161  ZZZ=            -25.1568  XYY=             21.6271
  XXY=             14.4966  XXZ=              0.7505  XZZ=             -1.9890  YZZ=              0.4267
  YYZ=            -14.5905  XYZ=            -10.1611
 Hexadecapole moment (field-independent basis, Debye-Ang**3):
 XXXX=          -3064.4635 YYYY=           -867.3672 ZZZZ=           -432.4066 XXXY=            -48.7623
 XXXZ=             91.4860 YYYX=              4.8051 YYYZ=            -13.6726 ZZZX=             16.1071
 ZZZY=             19.0481 XXYY=           -674.6715 XXZZ=           -646.5169 YYZZ=           -206.8699
 XXYZ=             10.2902 YYXZ=              5.0389 ZZXY=             -5.8582
 N-N= 1.040642068320D+03 E-N=-5.047238966653D+03  KE= 1.254789172456D+03
 No NMR shielding tensors so no spin-rotation constants.
 Leave Link  601 at Tue Jan 26 00:01:07 2021, MaxMem=  4026531840 cpu:               1.6 elap:               0.2
 (Enter /opt/ohpc/pub/libs/gaussian/g16-A.03/sandybridge/g16/l9999.exe)

 Test job not archived.
 1\1\GINC-CNODE146\SP\RLC-wHPBE\TZVP\C12H10S2\RDU230\26-Jan-2021\0\\#P 
 LC-wHPBE/TZVP iop(3/107=0220000000, 3/108=0220000000) scf=(conver=6,fe
 rmi,ndamp=35,noincfock,novaracc,vshift=500,xqc)\\H10 C12 S2\\0,1\C,0,-
 2.574063,-1.434391,-0.049117\C,0,-1.368901,-0.745264,-0.216328\S,0,0.0
 93606,-1.678504,-0.585022\C,0,-1.397687,0.626896,-0.046009\C,0,1.50039
 5,0.811934,0.077279\C,0,1.478004,0.220423,1.307027\C,0,-3.746915,-0.78
 3096,0.229547\C,0,-2.584351,1.293751,0.256604\H,0,-0.039943,1.860892,-
 1.547006\C,0,2.473105,0.786527,-0.925649\C,0,2.645316,-0.559969,1.4924
 38\C,0,3.655495,-0.649979,0.563531\C,0,3.583956,0.035098,-0.656753\H,0
 ,2.357645,1.302286,-1.874829\H,0,2.763398,-1.119309,2.419207\H,0,4.527
 775,-1.262476,0.773175\H,0,4.391412,-0.038194,-1.378729\C,0,-3.759914,
 0.597536,0.384558\H,0,-2.557315,-2.514169,-0.13851\H,0,-0.525974,-2.52
 8359,-1.4318\H,0,-4.665467,-1.345208,0.349638\H,0,-2.558102,2.368477,0
 .406674\H,0,-4.681894,1.115025,0.619767\S,0,0.004008,1.738768,-0.20875
 \\Version=EM64L-G16RevA.03\State=1-A\HF=-1258.9714845\RMSD=7.294e-07\D
 ipole=-1.8167664,0.3603605,-1.7591341\Quadrupole=3.8946681,3.2403495,-
 7.1350175,-0.8491414,-4.0275188,-1.8853839\PG=C01 [X(C12H10S2)]\\@


 NOBODY LOSES ALL THE TIME
 I HAD AN UNCLE NAMED
 SOL WHO WAS A BORN FAILURE AND
 NEARLY EVERYBODY SAID HE SHOULD HAVE GONE
 INTO VAUDEVILLE PERHAPS BECAUSE MY UNCLE SOL COULD
 SING MCCANN HE WAS A DIVER ON XMAS EVE LIKE HELL ITSELF WHICH
 MAY OR MAY NOT ACCOUNT FOR THE FACT THAT MY UNCLE
 SOL INDULGED IN THAT POSSIBLY MOST INEXCUSABLE
 OF ALL TO USE A HIGHFALOOTIN PHRASE
 LUXURIES THAT IS OR TO
 WIT FARMING AND BE
 IT NEEDLESSLY
 ADDED
 MY UNCLE SOL'S FARM     
 FAILED BECAUSE THE CHICKENS
 ATE THE VEGETABLES SO
 MY UNCLE SOL HAD A
 CHICKEN FARM TILL THE
 SKUNKS ATE THE CHICKENS WHEN 
 MY UNCLE SOL
 HAD A SKUNK FARM BUT
 THE SKUNKS CAUGHT COLD AND
 DIED AND SO
 MY UNCLE SOL IMITATED THE
 SKUNKS IN A SUBTLE MANNER
 OR BY DROWNING HIMSELF IN THE WATERTANK
 BUT SOMEBODY WHO'D GIVEN MY UNCLE SOL A VICTOR     
 VICTROLA AND RECORDS WHILE HE LIVED PRESENTED TO
 HIM UPON THE AUSPICIOUS OCCASION OF HIS DECEASE A
 SCRUMPTIOUS NOT TO MENTION SPLENDIFEROUS FUNERAL WITH
 TALL BOYS IN BLACK GLOVES AND FLOWERS AND EVERYTHING AND
 I REMEMBER WE ALL CRIED LIKE THE MISSOURI
 WHEN MY UNCLE SOL'S COFFIN LURCHED BECAUSE     
 SOMEBODY PRESSED A BUTTON
 (AND DOWN WENT
 MY UNCLE
 SOL
 AND STARTED A WORM FARM)
           E. E. CUMMINGS
 Job cpu time:       0 days  0 hours 28 minutes  9.4 seconds.
 Elapsed time:       0 days  0 hours  3 minutes 31.7 seconds.
 File lengths (MBytes):  RWF=     92 Int=      0 D2E=      0 Chk=     12 Scr=      8
 Normal termination of Gaussian 16 at Tue Jan 26 00:01:07 2021.
