 Entering Gaussian System, Link 0=g16
 Input=mol_ta_NN_frag_tune_n6.gjf
 Output=mol_ta_NN_frag_tune_n6.log
 Initial command:
 /opt/ohpc/pub/libs/gaussian/g16-A.03/sandybridge/g16/l1.exe "/mnt/gpfs2_4m/scratch/rdu230/ondemand/projects/init_structures/gaussian/wtuning/mol_ta_NN_frag/tuning_mol_ta_NN_frag_ocycle0/Gau-25806.inp" -scrdir="/mnt/gpfs2_4m/scratch/rdu230/ondemand/projects/init_structures/gaussian/wtuning/mol_ta_NN_frag/tuning_mol_ta_NN_frag_ocycle0/"
 Entering Link 1 = /opt/ohpc/pub/libs/gaussian/g16-A.03/sandybridge/g16/l1.exe PID=     25807.
  
 Copyright (c) 1988,1990,1992,1993,1995,1998,2003,2009,2016,
            Gaussian, Inc.  All Rights Reserved.
  
 This is part of the Gaussian(R) 16 program.  It is based on
 the Gaussian(R) 09 system (copyright 2009, Gaussian, Inc.),
 the Gaussian(R) 03 system (copyright 2003, Gaussian, Inc.),
 the Gaussian(R) 98 system (copyright 1998, Gaussian, Inc.),
 the Gaussian(R) 94 system (copyright 1995, Gaussian, Inc.),
 the Gaussian 92(TM) system (copyright 1992, Gaussian, Inc.),
 the Gaussian 90(TM) system (copyright 1990, Gaussian, Inc.),
 the Gaussian 88(TM) system (copyright 1988, Gaussian, Inc.),
 the Gaussian 86(TM) system (copyright 1986, Carnegie Mellon
 University), and the Gaussian 82(TM) system (copyright 1983,
 Carnegie Mellon University). Gaussian is a federally registered
 trademark of Gaussian, Inc.
  
 This software contains proprietary and confidential information,
 including trade secrets, belonging to Gaussian, Inc.
  
 This software is provided under written license and may be
 used, copied, transmitted, or stored only in accord with that
 written license.
  
 The following legend is applicable only to US Government
 contracts under FAR:
  
                    RESTRICTED RIGHTS LEGEND
  
 Use, reproduction and disclosure by the US Government is
 subject to restrictions as set forth in subparagraphs (a)
 and (c) of the Commercial Computer Software - Restricted
 Rights clause in FAR 52.227-19.
  
 Gaussian, Inc.
 340 Quinnipiac St., Bldg. 40, Wallingford CT 06492
  
  
 ---------------------------------------------------------------
 Warning -- This program may not be used in any manner that
 competes with the business of Gaussian, Inc. or will provide
 assistance to any competitor of Gaussian, Inc.  The licensee
 of this program is prohibited from giving any competitor of
 Gaussian, Inc. access to this program.  By using this program,
 the user acknowledges that Gaussian, Inc. is engaged in the
 business of creating and licensing software in the field of
 computational chemistry and represents and warrants to the
 licensee that it is not a competitor of Gaussian, Inc. and that
 it will not use this program in any manner prohibited above.
 ---------------------------------------------------------------
  

 Cite this work as:
 Gaussian 16, Revision A.03,
 M. J. Frisch, G. W. Trucks, H. B. Schlegel, G. E. Scuseria, 
 M. A. Robb, J. R. Cheeseman, G. Scalmani, V. Barone, 
 G. A. Petersson, H. Nakatsuji, X. Li, M. Caricato, A. V. Marenich, 
 J. Bloino, B. G. Janesko, R. Gomperts, B. Mennucci, H. P. Hratchian, 
 J. V. Ortiz, A. F. Izmaylov, J. L. Sonnenberg, D. Williams-Young, 
 F. Ding, F. Lipparini, F. Egidi, J. Goings, B. Peng, A. Petrone, 
 T. Henderson, D. Ranasinghe, V. G. Zakrzewski, J. Gao, N. Rega, 
 G. Zheng, W. Liang, M. Hada, M. Ehara, K. Toyota, R. Fukuda, 
 J. Hasegawa, M. Ishida, T. Nakajima, Y. Honda, O. Kitao, H. Nakai, 
 T. Vreven, K. Throssell, J. A. Montgomery, Jr., J. E. Peralta, 
 F. Ogliaro, M. J. Bearpark, J. J. Heyd, E. N. Brothers, K. N. Kudin, 
 V. N. Staroverov, T. A. Keith, R. Kobayashi, J. Normand, 
 K. Raghavachari, A. P. Rendell, J. C. Burant, S. S. Iyengar, 
 J. Tomasi, M. Cossi, J. M. Millam, M. Klene, C. Adamo, R. Cammi, 
 J. W. Ochterski, R. L. Martin, K. Morokuma, O. Farkas, 
 J. B. Foresman, and D. J. Fox, Gaussian, Inc., Wallingford CT, 2016.
 
 ******************************************
 Gaussian 16:  EM64L-G16RevA.03 25-Dec-2016
                25-Jan-2021 
 ******************************************
 %mem=30GB
 %nproc=8
 Will use up to    8 processors via shared memory.
 ----------------------------------------------------------------------
 #P LC-wHPBE/TZVP iop(3/107=0218100000, 3/108=0218100000) scf=(conver=6
 ,fermi,ndamp=35,noincfock,novaracc,vshift=500,xqc)
 ----------------------------------------------------------------------
 1/38=1,172=1/1;
 2/12=2,17=6,18=5,40=1/2;
 3/5=19,7=101,11=2,25=1,30=1,74=-71,107=218100000,108=218100000/1,2,3;
 4//1;
 5/5=100002,6=6,8=3,10=500,13=1,18=-1,22=13,38=1,93=35/2,8;
 6/7=2,8=2,9=2,10=2,28=1/1;
 99/5=1,9=1/99;
 Leave Link    1 at Mon Jan 25 23:42:54 2021, MaxMem=  4026531840 cpu:               1.0 elap:               0.2
 (Enter /opt/ohpc/pub/libs/gaussian/g16-A.03/sandybridge/g16/l101.exe)
 ----------
 H10 C12 S2
 ----------
 Symbolic Z-matrix:
 Charge =  0 Multiplicity = 1
 C                    -2.57406  -1.43439  -0.04912 
 C                    -1.3689   -0.74526  -0.21633 
 S                     0.09361  -1.6785   -0.58502 
 C                    -1.39769   0.6269   -0.04601 
 C                     1.5004    0.81193   0.07728 
 C                     1.478     0.22042   1.30703 
 C                    -3.74692  -0.7831    0.22955 
 C                    -2.58435   1.29375   0.2566 
 H                    -0.03994   1.86089  -1.54701 
 C                     2.47311   0.78653  -0.92565 
 C                     2.64532  -0.55997   1.49244 
 C                     3.6555   -0.64998   0.56353 
 C                     3.58396   0.0351   -0.65675 
 H                     2.35765   1.30229  -1.87483 
 H                     2.7634   -1.11931   2.41921 
 H                     4.52778  -1.26248   0.77318 
 H                     4.39141  -0.03819  -1.37873 
 C                    -3.75991   0.59754   0.38456 
 H                    -2.55732  -2.51417  -0.13851 
 H                    -0.52597  -2.52836  -1.4318 
 H                    -4.66547  -1.34521   0.34964 
 H                    -2.5581    2.36848   0.40667 
 H                    -4.68189   1.11503   0.61977 
 S                     0.00401   1.73877  -0.20875 
 
 ITRead=  0  0  0  0  0  0  0  0  0  0  0  0  0  0  0  0  0  0  0  0
 ITRead=  0  0  0  0
 MicOpt= -1 -1 -1 -1 -1 -1 -1 -1 -1 -1 -1 -1 -1 -1 -1 -1 -1 -1 -1 -1
 MicOpt= -1 -1 -1 -1
 NAtoms=     24 NQM=       24 NQMF=       0 NMMI=      0 NMMIF=      0
                NMic=       0 NMicF=      0.
                    Isotopes and Nuclear Properties:
 (Nuclear quadrupole moments (NQMom) in fm**2, nuclear magnetic moments (NMagM)
  in nuclear magnetons)

  Atom         1           2           3           4           5           6           7           8           9          10
 IAtWgt=          12          12          32          12          12          12          12          12           1          12
 AtmWgt=  12.0000000  12.0000000  31.9720718  12.0000000  12.0000000  12.0000000  12.0000000  12.0000000   1.0078250  12.0000000
 NucSpn=           0           0           0           0           0           0           0           0           1           0
 AtZEff=  -0.0000000  -0.0000000  -0.0000000  -0.0000000  -0.0000000  -0.0000000  -0.0000000  -0.0000000  -0.0000000  -0.0000000
 NQMom=    0.0000000   0.0000000   0.0000000   0.0000000   0.0000000   0.0000000   0.0000000   0.0000000   0.0000000   0.0000000
 NMagM=    0.0000000   0.0000000   0.0000000   0.0000000   0.0000000   0.0000000   0.0000000   0.0000000   2.7928460   0.0000000
 AtZNuc=   6.0000000   6.0000000  16.0000000   6.0000000   6.0000000   6.0000000   6.0000000   6.0000000   1.0000000   6.0000000

  Atom        11          12          13          14          15          16          17          18          19          20
 IAtWgt=          12          12          12           1           1           1           1          12           1           1
 AtmWgt=  12.0000000  12.0000000  12.0000000   1.0078250   1.0078250   1.0078250   1.0078250  12.0000000   1.0078250   1.0078250
 NucSpn=           0           0           0           1           1           1           1           0           1           1
 AtZEff=  -0.0000000  -0.0000000  -0.0000000  -0.0000000  -0.0000000  -0.0000000  -0.0000000  -0.0000000  -0.0000000  -0.0000000
 NQMom=    0.0000000   0.0000000   0.0000000   0.0000000   0.0000000   0.0000000   0.0000000   0.0000000   0.0000000   0.0000000
 NMagM=    0.0000000   0.0000000   0.0000000   2.7928460   2.7928460   2.7928460   2.7928460   0.0000000   2.7928460   2.7928460
 AtZNuc=   6.0000000   6.0000000   6.0000000   1.0000000   1.0000000   1.0000000   1.0000000   6.0000000   1.0000000   1.0000000

  Atom        21          22          23          24
 IAtWgt=           1           1           1          32
 AtmWgt=   1.0078250   1.0078250   1.0078250  31.9720718
 NucSpn=           1           1           1           0
 AtZEff=  -0.0000000  -0.0000000  -0.0000000  -0.0000000
 NQMom=    0.0000000   0.0000000   0.0000000   0.0000000
 NMagM=    2.7928460   2.7928460   2.7928460   0.0000000
 AtZNuc=   1.0000000   1.0000000   1.0000000  16.0000000
 Leave Link  101 at Mon Jan 25 23:42:54 2021, MaxMem=  4026531840 cpu:               0.8 elap:               0.1
 (Enter /opt/ohpc/pub/libs/gaussian/g16-A.03/sandybridge/g16/l202.exe)
                          Input orientation:                          
 ---------------------------------------------------------------------
 Center     Atomic      Atomic             Coordinates (Angstroms)
 Number     Number       Type             X           Y           Z
 ---------------------------------------------------------------------
      1          6           0       -2.574063   -1.434391   -0.049117
      2          6           0       -1.368901   -0.745264   -0.216328
      3         16           0        0.093606   -1.678504   -0.585022
      4          6           0       -1.397687    0.626896   -0.046009
      5          6           0        1.500395    0.811934    0.077279
      6          6           0        1.478004    0.220423    1.307027
      7          6           0       -3.746915   -0.783096    0.229547
      8          6           0       -2.584351    1.293751    0.256604
      9          1           0       -0.039943    1.860892   -1.547006
     10          6           0        2.473105    0.786527   -0.925649
     11          6           0        2.645316   -0.559969    1.492438
     12          6           0        3.655495   -0.649979    0.563531
     13          6           0        3.583956    0.035098   -0.656753
     14          1           0        2.357645    1.302286   -1.874829
     15          1           0        2.763398   -1.119309    2.419207
     16          1           0        4.527775   -1.262476    0.773175
     17          1           0        4.391412   -0.038194   -1.378729
     18          6           0       -3.759914    0.597536    0.384558
     19          1           0       -2.557315   -2.514169   -0.138510
     20          1           0       -0.525974   -2.528359   -1.431800
     21          1           0       -4.665467   -1.345208    0.349638
     22          1           0       -2.558102    2.368477    0.406674
     23          1           0       -4.681894    1.115025    0.619767
     24         16           0        0.004008    1.738768   -0.208750
 ---------------------------------------------------------------------
                    Distance matrix (angstroms):
                    1          2          3          4          5
     1  C    0.000000
     2  C    1.398310   0.000000
     3  S    2.731894   1.773640   0.000000
     4  C    2.373347   1.382990   2.798099   0.000000
     5  C    4.654370   3.277793   2.935980   2.906599   0.000000
     6  C    4.582225   3.370168   3.017007   3.203986   1.364796
     7  C    1.370190   2.419749   4.026770   2.753703   5.486490
     8  C    2.745238   2.420447   4.088287   1.394432   4.116972
     9  H    4.418634   3.213858   3.670228   2.370487   2.472095
    10  C    5.583430   4.196490   3.443025   3.972692   1.397381
    11  C    5.512071   4.366710   3.475368   4.485682   2.279394
    12  C    6.308568   5.085451   3.881249   5.247532   2.649167
    13  C    6.360017   5.033263   3.888974   5.053712   2.341688
    14  H    5.928269   4.564015   3.959114   4.231224   2.187704
    15  H    5.889006   4.915470   4.057817   5.142096   3.287781
    16  H    7.151351   6.001451   4.656139   6.273108   3.735302
    17  H    7.227384   5.918812   4.668161   5.977638   3.346738
    18  C    2.392288   2.807333   4.579308   2.401326   5.273636
    19  H    1.083601   2.132465   2.815154   3.349565   5.251146
    20  H    2.702452   2.316749   1.350247   3.554706   4.188203
    21  H    2.130946   3.398176   4.861425   3.837202   6.537989
    22  H    3.830118   3.390828   4.938934   2.141165   4.359212
    23  H    3.374890   3.890457   5.662219   3.386376   6.213441
    24  S    4.091561   2.838195   3.439092   1.796522   1.783258
                    6          7          8          9         10
     6  C    0.000000
     7  C    5.428424   0.000000
     8  C    4.331068   2.380248   0.000000
     9  H    3.625025   4.887582   3.169964   0.000000
    10  C    2.509092   6.518193   5.218511   2.802812   0.000000
    11  C    1.416335   6.519609   5.684451   4.723283   2.773058
    12  C    2.460051   7.411136   6.542780   4.941164   2.383118
    13  C    2.885448   7.429444   6.361324   4.154361   1.367823
    14  H    3.473961   6.785490   5.382045   2.483533   1.086407
    15  H    2.164270   6.876905   6.252850   5.698348   3.860640
    16  H    3.432942   8.306373   7.575188   6.000226   3.362452
    17  H    3.970908   8.329093   7.287638   4.824080   2.136667
    18  C    5.331880   1.389368   1.372238   4.377807   6.372039
    19  H    5.084424   2.132423   3.828459   5.240437   6.067892
    20  H    4.367254   4.022496   4.657912   4.417581   4.498792
    21  H    6.411710   1.083573   3.362113   5.939007   7.558430
    22  H    4.659927   3.372990   1.085470   3.227326   5.439733
    23  H    6.262346   2.151586   2.136239   5.176768   7.327362
    24  S    2.603001   4.541071   2.667245   1.344535   2.741742
                   11         12         13         14         15
    11  C    0.000000
    12  C    1.375293   0.000000
    13  C    2.419540   1.401264   0.000000
    14  H    3.858657   3.382507   2.143202   0.000000
    15  H    1.088901   2.111786   3.386370   4.946464   0.000000
    16  H    2.134129   1.086267   2.149229   4.277779   2.417218
    17  H    3.400691   2.165232   1.085636   2.485802   4.271248
    18  C    6.602589   7.521743   7.438622   6.559423   7.045634
    19  H    5.791913   6.524345   6.669524   6.460415   6.066097
    20  H    4.741604   4.999434   4.905460   4.815119   5.256962
    21  H    7.441111   8.352694   8.424432   7.828255   7.715062
    22  H    6.068792   6.909737   6.655855   5.523277   6.673328
    23  H    7.566714   8.522350   8.433269   7.470822   7.978885
    24  S    3.892909   4.431240   3.989890   2.916495   4.763297
                   16         17         18         19         20
    16  H    0.000000
    17  H    2.479547   0.000000
    18  C    8.502732   8.364057   0.000000
    19  H    7.252338   7.480201   3.376767   0.000000
    20  H    5.657274   5.512207   4.850644   2.408142   0.000000
    21  H    9.203365   9.312497   2.143712   2.459484   4.659267
    22  H    7.970433   7.568056   2.140344   4.912989   5.611464
    23  H    9.512836   9.362093   1.083128   4.273157   5.895324
    24  S    5.516893   4.876039   3.977629   4.965157   4.470470
                   21         22         23         24
    21  H    0.000000
    22  H    4.270327   0.000000
    23  H    2.475073   2.475286   0.000000
    24  S    5.623762   2.709186   4.799289   0.000000
 Stoichiometry    C12H10S2
 Framework group  C1[X(C12H10S2)]
 Deg. of freedom    66
 Full point group                 C1      NOp   1
 Largest Abelian subgroup         C1      NOp   1
 Largest concise Abelian subgroup C1      NOp   1
                         Standard orientation:                         
 ---------------------------------------------------------------------
 Center     Atomic      Atomic             Coordinates (Angstroms)
 Number     Number       Type             X           Y           Z
 ---------------------------------------------------------------------
      1          6           0        2.574063    1.434391   -0.049117
      2          6           0        1.368901    0.745264   -0.216328
      3         16           0       -0.093606    1.678504   -0.585022
      4          6           0        1.397687   -0.626896   -0.046009
      5          6           0       -1.500395   -0.811934    0.077279
      6          6           0       -1.478004   -0.220423    1.307027
      7          6           0        3.746915    0.783096    0.229547
      8          6           0        2.584351   -1.293751    0.256604
      9          1           0        0.039943   -1.860892   -1.547006
     10          6           0       -2.473105   -0.786527   -0.925649
     11          6           0       -2.645316    0.559969    1.492438
     12          6           0       -3.655495    0.649979    0.563531
     13          6           0       -3.583956   -0.035098   -0.656753
     14          1           0       -2.357645   -1.302286   -1.874829
     15          1           0       -2.763398    1.119309    2.419207
     16          1           0       -4.527775    1.262476    0.773175
     17          1           0       -4.391412    0.038194   -1.378729
     18          6           0        3.759914   -0.597536    0.384558
     19          1           0        2.557315    2.514169   -0.138510
     20          1           0        0.525974    2.528359   -1.431800
     21          1           0        4.665467    1.345208    0.349638
     22          1           0        2.558102   -2.368477    0.406674
     23          1           0        4.681894   -1.115025    0.619767
     24         16           0       -0.004008   -1.738768   -0.208750
 ---------------------------------------------------------------------
 Rotational constants (GHZ):           1.2365549           0.3949099           0.3394237
 Leave Link  202 at Mon Jan 25 23:42:54 2021, MaxMem=  4026531840 cpu:               0.3 elap:               0.1
 (Enter /opt/ohpc/pub/libs/gaussian/g16-A.03/sandybridge/g16/l301.exe)
 Standard basis: TZVP (5D, 7F)
 Ernie: Thresh=  0.10000D-02 Tol=  0.10000D-05 Strict=F.
 There are   346 symmetry adapted cartesian basis functions of A   symmetry.
 There are   332 symmetry adapted basis functions of A   symmetry.
   332 basis functions,   594 primitive gaussians,   346 cartesian basis functions
    57 alpha electrons       57 beta electrons
       nuclear repulsion energy      1040.6420683200 Hartrees.
 IExCor=33909 DFT=T Ex+Corr=LC-wHPBE ExCW=0 ScaHFX=  1.000000
 ScaDFX=  1.000000  1.000000  1.000000  1.000000 ScalE2=  1.000000  1.000000
 IRadAn=      5 IRanWt=     -1 IRanGd=            0 ICorTp=0 IEmpDi=  4
 HFx  wShort=  0.000000 wLong=  0.218100 cFull=  0.000000 cShort=  0.000000 cLong=  1.000000
 DFx  wShort=  0.000000 wLong=  0.218100 cFull=  0.000000 cShort=  1.000000 cLong=  0.000000
 NAtoms=   24 NActive=   24 NUniq=   24 SFac= 1.00D+00 NAtFMM=   60 NAOKFM=F Big=F
 Integral buffers will be    131072 words long.
 Raffenetti 2 integral format.
 Two-electron integral symmetry is turned on.
 Leave Link  301 at Mon Jan 25 23:42:54 2021, MaxMem=  4026531840 cpu:               0.4 elap:               0.1
 (Enter /opt/ohpc/pub/libs/gaussian/g16-A.03/sandybridge/g16/l302.exe)
 NPDir=0 NMtPBC=     1 NCelOv=     1 NCel=       1 NClECP=     1 NCelD=      1
         NCelK=      1 NCelE2=     1 NClLst=     1 CellRange=     0.0.
 One-electron integrals computed using PRISM.
 One-electron integral symmetry used in STVInt
 NBasis=   332 RedAO= T EigKep=  8.19D-06  NBF=   332
 NBsUse=   332 1.00D-06 EigRej= -1.00D+00 NBFU=   332
 Precomputing XC quadrature grid using
 IXCGrd= 4 IRadAn=           5 IRanWt=          -1 IRanGd=           0 AccXCQ= 0.00D+00.
 Generated NRdTot=       0 NPtTot=           0 NUsed=           0 NTot=          32
 NSgBfM=   338   338   338   338   338 MxSgAt=    24 MxSgA2=    24.
 Leave Link  302 at Mon Jan 25 23:42:55 2021, MaxMem=  4026531840 cpu:               3.2 elap:               0.4
 (Enter /opt/ohpc/pub/libs/gaussian/g16-A.03/sandybridge/g16/l303.exe)
 DipDrv:  MaxL=1.
 Leave Link  303 at Mon Jan 25 23:42:55 2021, MaxMem=  4026531840 cpu:               0.5 elap:               0.1
 (Enter /opt/ohpc/pub/libs/gaussian/g16-A.03/sandybridge/g16/l401.exe)
 ExpMin= 9.52D-02 ExpMax= 6.07D+04 ExpMxC= 2.07D+03 IAcc=3 IRadAn=         5 AccDes= 0.00D+00
 Harris functional with IExCor=33909 and IRadAn=       5 diagonalized for initial guess.
 HarFok:  IExCor=33909 AccDes= 0.00D+00 IRadAn=         5 IDoV= 1 UseB2=F ITyADJ=14
 ICtDFT=  3500011 ScaDFX=  1.000000  1.000000  1.000000  1.000000
 FoFCou: FMM=F IPFlag=           0 FMFlag=      100000 FMFlg1=           0
         NFxFlg=           0 DoJE=T BraDBF=F KetDBF=T FulRan=T
         wScrn=  0.000000 ICntrl=       500 IOpCl=  0 I1Cent=   200000004 NGrid=           0
         NMat0=    1 NMatS0=      1 NMatT0=    0 NMatD0=    1 NMtDS0=    0 NMtDT0=    0
 Petite list used in FoFCou.
 Harris En= -1245.76286551900    
 JPrj=0 DoOrth=F DoCkMO=F.
 Leave Link  401 at Mon Jan 25 23:42:57 2021, MaxMem=  4026531840 cpu:              19.5 elap:               2.5
 (Enter /opt/ohpc/pub/libs/gaussian/g16-A.03/sandybridge/g16/l502.exe)
 Integral symmetry usage will be decided dynamically.
 Closed shell SCF:
 Using DIIS extrapolation, IDIIS=    10.
 NGot=  4026531840 LenX=  4026286196 LenY=  4026166039
 Requested convergence on RMS density matrix=1.00D-06 within  32 cycles.
 Requested convergence on MAX density matrix=1.00D-04.
 Requested convergence on             energy=1.00D-04.
 Virtual orbitals will be shifted by   0.500 hartree.
 No special actions if energy rises.
 Dynamic level shift is on during FON iterations.

 Cycle   1  Pass 1  IDiag  1:
 FoFJK:  IHMeth= 1 ICntrl=       0 DoSepK=T KAlg= 0 I1Cent=           0 FoldK=F
 IRaf=         1 NMat=       1 IRICut=       1 DoRegI=T DoRafI=F ISym2E= 0 IDoP0=0 IntGTp=1.
 FoFCou: FMM=F IPFlag=           0 FMFlag=      100000 FMFlg1=           0
         NFxFlg=           0 DoJE=T BraDBF=F KetDBF=F FulRan=T
         wScrn=  0.000000 ICntrl=       500 IOpCl=  0 I1Cent=           0 NGrid=           0
         NMat0=    1 NMatS0=      1 NMatT0=    0 NMatD0=    1 NMtDS0=    0 NMtDT0=    0
 Symmetry not used in FoFCou.
 E= -1258.56665067932    
 DIIS: error= 2.21D-02 at cycle   1 NSaved=   1.
 NSaved= 1 IEnMin= 1 EnMin= -1258.56665067932     IErMin= 1 ErrMin= 2.21D-02
 ErrMax= 2.21D-02  0.00D+00 EMaxC= 1.00D+00 BMatC= 3.78D-01 BMatP= 3.78D-01
 IDIUse=1 WtCom= 1.00D+00 WtEn= 0.00D+00
 Coeff-Com:  0.100D+01
 Coeff:      0.100D+01
 Gap=     0.461 Goal=   None    Shift=    0.500
 T= 1312. Gap= 0.490 NK=0 IS=   58 IE=  332 IFin=   57
          NO(<0.9)=   0  NV(>0.1)=   0     57.00e < EF      0.00e >EF  Err=0.0D+00
 GapD=    0.461 DampG=2.000 DampE=0.500 DampFc=1.0000 IDamp=-1.
 RMSDP=6.36D-03 MaxDP=4.15D-01              OVMax= 1.25D-01

 Cycle   2  Pass 1  IDiag  1:
 E= -1258.93184317556     Delta-E=       -0.365192496243 Rises=F Damp=F
 DIIS: error= 6.37D-03 at cycle   2 NSaved=   2.
 NSaved= 2 IEnMin= 2 EnMin= -1258.93184317556     IErMin= 2 ErrMin= 6.37D-03
 ErrMax= 6.37D-03  0.00D+00 EMaxC= 1.00D+00 BMatC= 4.68D-02 BMatP= 3.78D-01
 IDIUse=1 WtCom= 1.00D+00 WtEn= 0.00D+00
 Coeff-Com:  0.236D+00 0.764D+00
 Coeff:      0.236D+00 0.764D+00
 Gap=     0.240 Goal=   None    Shift=    0.500
 T= 1150. Gap= 0.705 NK=0 IS=   58 IE=  332 IFin=   57
          NO(<0.9)=   0  NV(>0.1)=   0     57.00e < EF      0.00e >EF  Err=0.0D+00
 GapD=    0.240 DampG=1.000 DampE=1.000 DampFc=1.0000 IDamp=-1.
 RMSDP=1.26D-03 MaxDP=5.94D-02 DE=-3.65D-01 OVMax= 1.72D-02

 Cycle   3  Pass 1  IDiag  1:
 E= -1258.96323643154     Delta-E=       -0.031393255977 Rises=F Damp=F
 DIIS: error= 2.24D-03 at cycle   3 NSaved=   3.
 NSaved= 3 IEnMin= 3 EnMin= -1258.96323643154     IErMin= 3 ErrMin= 2.24D-03
 ErrMax= 2.24D-03  0.00D+00 EMaxC= 1.00D+00 BMatC= 5.09D-03 BMatP= 4.68D-02
 IDIUse=1 WtCom= 1.00D+00 WtEn= 0.00D+00
 Coeff-Com:  0.728D-01-0.106D+00 0.103D+01
 Coeff:      0.728D-01-0.106D+00 0.103D+01
 Gap=     0.224 Goal=   None    Shift=    0.500
 T=  851. Gap= 0.723 NK=0 IS=   58 IE=  332 IFin=   57
          NO(<0.9)=   0  NV(>0.1)=   0     57.00e < EF      0.00e >EF  Err=0.0D+00
 GapD=    0.224 DampG=1.000 DampE=1.000 DampFc=1.0000 IDamp=-1.
 RMSDP=9.95D-04 MaxDP=6.70D-02 DE=-3.14D-02 OVMax= 9.93D-03

 Cycle   4  Pass 1  IDiag  1:
 E= -1258.96851552625     Delta-E=       -0.005279094706 Rises=F Damp=F
 DIIS: error= 1.34D-03 at cycle   4 NSaved=   4.
 NSaved= 4 IEnMin= 4 EnMin= -1258.96851552625     IErMin= 4 ErrMin= 1.34D-03
 ErrMax= 1.34D-03  0.00D+00 EMaxC= 1.00D+00 BMatC= 6.11D-04 BMatP= 5.09D-03
 IDIUse=1 WtCom= 1.00D+00 WtEn= 0.00D+00
 Coeff-Com:  0.268D-02-0.256D-01-0.309D+00 0.133D+01
 Coeff:      0.268D-02-0.256D-01-0.309D+00 0.133D+01
 Gap=     0.227 Goal=   None    Shift=    0.500
 T=  175. Gap= 0.727 NK=0 IS=   58 IE=  332 IFin=   57
          NO(<0.9)=   0  NV(>0.1)=   0     57.00e < EF      0.00e >EF  Err=0.0D+00
 GapD=    0.227 DampG=1.000 DampE=1.000 DampFc=1.0000 IDamp=-1.
 RMSDP=6.17D-04 MaxDP=4.72D-02 DE=-5.28D-03 OVMax= 7.17D-03

 Cycle   5  Pass 1  IDiag  1:
 E= -1258.96951603345     Delta-E=       -0.001000507206 Rises=F Damp=F
 DIIS: error= 1.04D-03 at cycle   5 NSaved=   5.
 NSaved= 5 IEnMin= 5 EnMin= -1258.96951603345     IErMin= 5 ErrMin= 1.04D-03
 ErrMax= 1.04D-03  0.00D+00 EMaxC= 1.00D+00 BMatC= 1.11D-04 BMatP= 6.11D-04
 IDIUse=1 WtCom= 1.00D+00 WtEn= 0.00D+00
 Coeff-Com: -0.748D-02 0.108D-01-0.142D+00-0.259D+00 0.140D+01
 Coeff:     -0.748D-02 0.108D-01-0.142D+00-0.259D+00 0.140D+01
 Gap=     0.228 Goal=   None    Shift=    0.500
 GapD=    0.228 DampG=1.000 DampE=1.000 DampFc=1.0000 IDamp=-1.
 RMSDP=3.34D-04 MaxDP=2.56D-02 DE=-1.00D-03 OVMax= 6.14D-03

 Cycle   6  Pass 1  IDiag  1:
 E= -1258.96983715904     Delta-E=       -0.000321125583 Rises=F Damp=F
 DIIS: error= 7.80D-04 at cycle   6 NSaved=   6.
 NSaved= 6 IEnMin= 6 EnMin= -1258.96983715904     IErMin= 6 ErrMin= 7.80D-04
 ErrMax= 7.80D-04  0.00D+00 EMaxC= 1.00D+00 BMatC= 3.54D-05 BMatP= 1.11D-04
 IDIUse=1 WtCom= 1.00D+00 WtEn= 0.00D+00
 Coeff-Com: -0.520D-02 0.540D-02 0.788D-01-0.574D+00-0.122D-01 0.151D+01
 Coeff:     -0.520D-02 0.540D-02 0.788D-01-0.574D+00-0.122D-01 0.151D+01
 Gap=     0.229 Goal=   None    Shift=    0.500
 RMSDP=2.03D-04 MaxDP=1.52D-02 DE=-3.21D-04 OVMax= 4.52D-03

 Cycle   7  Pass 1  IDiag  1:
 E= -1258.96998100473     Delta-E=       -0.000143845699 Rises=F Damp=F
 DIIS: error= 5.54D-04 at cycle   7 NSaved=   7.
 NSaved= 7 IEnMin= 7 EnMin= -1258.96998100473     IErMin= 7 ErrMin= 5.54D-04
 ErrMax= 5.54D-04  0.00D+00 EMaxC= 1.00D+00 BMatC= 1.23D-05 BMatP= 3.54D-05
 IDIUse=1 WtCom= 1.00D+00 WtEn= 0.00D+00
 Coeff-Com: -0.131D-03-0.379D-02 0.478D-01 0.377D-01-0.522D+00-0.415D+00
 Coeff-Com:  0.186D+01
 Coeff:     -0.131D-03-0.379D-02 0.478D-01 0.377D-01-0.522D+00-0.415D+00
 Coeff:      0.186D+01
 Gap=     0.229 Goal=   None    Shift=    0.500
 RMSDP=1.12D-04 MaxDP=7.08D-03 DE=-1.44D-04 OVMax= 3.39D-03

 Cycle   8  Pass 1  IDiag  1:
 E= -1258.97004421655     Delta-E=       -0.000063211814 Rises=F Damp=F
 DIIS: error= 3.79D-04 at cycle   8 NSaved=   8.
 NSaved= 8 IEnMin= 8 EnMin= -1258.97004421655     IErMin= 8 ErrMin= 3.79D-04
 ErrMax= 3.79D-04  0.00D+00 EMaxC= 1.00D+00 BMatC= 5.15D-06 BMatP= 1.23D-05
 IDIUse=1 WtCom= 1.00D+00 WtEn= 0.00D+00
 Coeff-Com:  0.506D-03-0.263D-02-0.228D-01 0.228D+00-0.236D+00-0.545D+00
 Coeff-Com: -0.321D+00 0.190D+01
 Coeff:      0.506D-03-0.263D-02-0.228D-01 0.228D+00-0.236D+00-0.545D+00
 Coeff:     -0.321D+00 0.190D+01
 Gap=     0.229 Goal=   None    Shift=    0.500
 RMSDP=6.29D-05 MaxDP=2.86D-03 DE=-6.32D-05 OVMax= 2.39D-03

 Cycle   9  Pass 1  IDiag  1:
 E= -1258.97007238547     Delta-E=       -0.000028168926 Rises=F Damp=F
 DIIS: error= 2.60D-04 at cycle   9 NSaved=   9.
 NSaved= 9 IEnMin= 9 EnMin= -1258.97007238547     IErMin= 9 ErrMin= 2.60D-04
 ErrMax= 2.60D-04  0.00D+00 EMaxC= 1.00D+00 BMatC= 2.21D-06 BMatP= 5.15D-06
 IDIUse=1 WtCom= 1.00D+00 WtEn= 0.00D+00
 Coeff-Com: -0.159D-03-0.351D-03-0.169D-01 0.391D-01 0.901D-01 0.105D+00
 Coeff-Com: -0.113D+01 0.530D-01 0.186D+01
 Coeff:     -0.159D-03-0.351D-03-0.169D-01 0.391D-01 0.901D-01 0.105D+00
 Coeff:     -0.113D+01 0.530D-01 0.186D+01
 Gap=     0.229 Goal=   None    Shift=    0.500
 RMSDP=3.85D-05 MaxDP=1.31D-03 DE=-2.82D-05 OVMax= 1.67D-03

 Cycle  10  Pass 1  IDiag  1:
 E= -1258.97008471118     Delta-E=       -0.000012325702 Rises=F Damp=F
 DIIS: error= 1.67D-04 at cycle  10 NSaved=  10.
 NSaved=10 IEnMin=10 EnMin= -1258.97008471118     IErMin=10 ErrMin= 1.67D-04
 ErrMax= 1.67D-04  0.00D+00 EMaxC= 1.00D+00 BMatC= 9.31D-07 BMatP= 2.21D-06
 IDIUse=1 WtCom= 1.00D+00 WtEn= 0.00D+00
 Coeff-Com: -0.324D-03 0.310D-03 0.266D-02-0.473D-01 0.935D-01 0.237D+00
 Coeff-Com: -0.513D+00-0.497D+00-0.180D-02 0.173D+01
 Coeff:     -0.324D-03 0.310D-03 0.266D-02-0.473D-01 0.935D-01 0.237D+00
 Coeff:     -0.513D+00-0.497D+00-0.180D-02 0.173D+01
 Gap=     0.229 Goal=   None    Shift=    0.500
 RMSDP=2.39D-05 MaxDP=8.91D-04 DE=-1.23D-05 OVMax= 1.09D-03

 Cycle  11  Pass 1  IDiag  1:
 E= -1258.97008984166     Delta-E=       -0.000005130481 Rises=F Damp=F
 DIIS: error= 1.12D-04 at cycle  11 NSaved=  11.
 NSaved=11 IEnMin=11 EnMin= -1258.97008984166     IErMin=11 ErrMin= 1.12D-04
 ErrMax= 1.12D-04  0.00D+00 EMaxC= 1.00D+00 BMatC= 4.07D-07 BMatP= 9.31D-07
 IDIUse=1 WtCom= 1.00D+00 WtEn= 0.00D+00
 Coeff-Com: -0.172D-03 0.320D-03 0.529D-02-0.123D-01-0.219D-01 0.180D-01
 Coeff-Com:  0.276D+00-0.114D+00-0.109D+01-0.133D+00 0.207D+01
 Coeff:     -0.172D-03 0.320D-03 0.529D-02-0.123D-01-0.219D-01 0.180D-01
 Coeff:      0.276D+00-0.114D+00-0.109D+01-0.133D+00 0.207D+01
 Gap=     0.229 Goal=   None    Shift=    0.500
 RMSDP=1.50D-05 MaxDP=5.65D-04 DE=-5.13D-06 OVMax= 7.23D-04

 Cycle  12  Pass 1  IDiag  1:
 E= -1258.97009200903     Delta-E=       -0.000002167374 Rises=F Damp=F
 DIIS: error= 6.98D-05 at cycle  12 NSaved=  12.
 NSaved=12 IEnMin=12 EnMin= -1258.97009200903     IErMin=12 ErrMin= 6.98D-05
 ErrMax= 6.98D-05  0.00D+00 EMaxC= 1.00D+00 BMatC= 1.81D-07 BMatP= 4.07D-07
 IDIUse=1 WtCom= 1.00D+00 WtEn= 0.00D+00
 Coeff-Com: -0.389D-04 0.407D-04 0.146D-02 0.895D-02-0.369D-01-0.413D-01
 Coeff-Com:  0.232D+00 0.124D+00-0.576D+00-0.562D+00 0.344D-01 0.182D+01
 Coeff:     -0.389D-04 0.407D-04 0.146D-02 0.895D-02-0.369D-01-0.413D-01
 Coeff:      0.232D+00 0.124D+00-0.576D+00-0.562D+00 0.344D-01 0.182D+01
 Gap=     0.229 Goal=   None    Shift=    0.500
 RMSDP=9.78D-06 MaxDP=3.69D-04 DE=-2.17D-06 OVMax= 4.60D-04

 Cycle  13  Pass 1  IDiag  1:
 E= -1258.97009291993     Delta-E=       -0.000000910900 Rises=F Damp=F
 DIIS: error= 4.41D-05 at cycle  13 NSaved=  13.
 NSaved=13 IEnMin=13 EnMin= -1258.97009291993     IErMin=13 ErrMin= 4.41D-05
 ErrMax= 4.41D-05  0.00D+00 EMaxC= 1.00D+00 BMatC= 7.48D-08 BMatP= 1.81D-07
 IDIUse=1 WtCom= 1.00D+00 WtEn= 0.00D+00
 Coeff-Com:  0.542D-05-0.210D-03-0.146D-02 0.657D-02-0.221D-02-0.382D-02
 Coeff-Com: -0.784D-01 0.115D+00 0.277D+00-0.157D+00-0.111D+01-0.309D+00
 Coeff-Com:  0.227D+01
 Coeff:      0.542D-05-0.210D-03-0.146D-02 0.657D-02-0.221D-02-0.382D-02
 Coeff:     -0.784D-01 0.115D+00 0.277D+00-0.157D+00-0.111D+01-0.309D+00
 Coeff:      0.227D+01
 Gap=     0.229 Goal=   None    Shift=    0.500
 RMSDP=6.25D-06 MaxDP=2.21D-04 DE=-9.11D-07 OVMax= 3.15D-04

 Cycle  14  Pass 1  IDiag  1:
 E= -1258.97009330122     Delta-E=       -0.000000381287 Rises=F Damp=F
 DIIS: error= 2.72D-05 at cycle  14 NSaved=  14.
 NSaved=14 IEnMin=14 EnMin= -1258.97009330122     IErMin=14 ErrMin= 2.72D-05
 ErrMax= 2.72D-05  0.00D+00 EMaxC= 1.00D+00 BMatC= 3.42D-08 BMatP= 7.48D-08
 IDIUse=1 WtCom= 1.00D+00 WtEn= 0.00D+00
 Coeff-Com: -0.736D-05-0.892D-04-0.587D-03-0.841D-03 0.959D-02 0.124D-01
 Coeff-Com: -0.756D-01-0.153D-01 0.219D+00 0.153D+00-0.326D+00-0.978D+00
 Coeff-Com: -0.163D+00 0.217D+01
 Coeff:     -0.736D-05-0.892D-04-0.587D-03-0.841D-03 0.959D-02 0.124D-01
 Coeff:     -0.756D-01-0.153D-01 0.219D+00 0.153D+00-0.326D+00-0.978D+00
 Coeff:     -0.163D+00 0.217D+01
 Gap=     0.229 Goal=   None    Shift=    0.500
 RMSDP=4.38D-06 MaxDP=1.46D-04 DE=-3.81D-07 OVMax= 2.39D-04

 Cycle  15  Pass 1  IDiag  1:
 E= -1258.97009346962     Delta-E=       -0.000000168403 Rises=F Damp=F
 DIIS: error= 1.63D-05 at cycle  15 NSaved=  15.
 NSaved=15 IEnMin=15 EnMin= -1258.97009346962     IErMin=15 ErrMin= 1.63D-05
 ErrMax= 1.63D-05  0.00D+00 EMaxC= 1.00D+00 BMatC= 1.49D-08 BMatP= 3.42D-08
 IDIUse=1 WtCom= 1.00D+00 WtEn= 0.00D+00
 Coeff-Com: -0.202D-04 0.327D-04 0.477D-03-0.297D-02 0.425D-02 0.985D-02
 Coeff-Com: -0.711D-03-0.614D-01-0.223D-01 0.172D+00 0.309D+00-0.481D+00
 Coeff-Com: -0.104D+01 0.835D-01 0.203D+01
 Coeff:     -0.202D-04 0.327D-04 0.477D-03-0.297D-02 0.425D-02 0.985D-02
 Coeff:     -0.711D-03-0.614D-01-0.223D-01 0.172D+00 0.309D+00-0.481D+00
 Coeff:     -0.104D+01 0.835D-01 0.203D+01
 Gap=     0.229 Goal=   None    Shift=    0.500
 RMSDP=3.05D-06 MaxDP=9.52D-05 DE=-1.68D-07 OVMax= 1.77D-04

 Cycle  16  Pass 1  IDiag  1:
 E= -1258.97009354418     Delta-E=       -0.000000074561 Rises=F Damp=F
 DIIS: error= 1.01D-05 at cycle  16 NSaved=  16.
 NSaved=16 IEnMin=16 EnMin= -1258.97009354418     IErMin=16 ErrMin= 1.01D-05
 ErrMax= 1.01D-05  0.00D+00 EMaxC= 1.00D+00 BMatC= 6.97D-09 BMatP= 1.49D-08
 IDIUse=1 WtCom= 1.00D+00 WtEn= 0.00D+00
 Coeff-Com: -0.341D-05 0.294D-04 0.500D-03-0.122D-02-0.222D-02 0.227D-02
 Coeff-Com:  0.237D-01-0.147D-01-0.715D-01 0.752D-02 0.173D+00 0.242D+00
 Coeff-Com: -0.339D+00-0.119D+01-0.146D+00 0.232D+01
 Coeff:     -0.341D-05 0.294D-04 0.500D-03-0.122D-02-0.222D-02 0.227D-02
 Coeff:      0.237D-01-0.147D-01-0.715D-01 0.752D-02 0.173D+00 0.242D+00
 Coeff:     -0.339D+00-0.119D+01-0.146D+00 0.232D+01
 Gap=     0.229 Goal=   None    Shift=    0.500
 RMSDP=2.24D-06 MaxDP=7.43D-05 DE=-7.46D-08 OVMax= 1.38D-04

 Cycle  17  Pass 1  IDiag  1:
 E= -1258.97009358005     Delta-E=       -0.000000035862 Rises=F Damp=F
 DIIS: error= 5.88D-06 at cycle  17 NSaved=  17.
 NSaved=17 IEnMin=17 EnMin= -1258.97009358005     IErMin=17 ErrMin= 5.88D-06
 ErrMax= 5.88D-06  0.00D+00 EMaxC= 1.00D+00 BMatC= 3.08D-09 BMatP= 6.97D-09
 IDIUse=1 WtCom= 1.00D+00 WtEn= 0.00D+00
 Coeff-Com:  0.386D-05-0.694D-05 0.323D-05 0.821D-03-0.291D-02-0.239D-02
 Coeff-Com:  0.881D-02 0.204D-01-0.195D-01-0.657D-01-0.447D-01 0.309D+00
 Coeff-Com:  0.236D+00-0.657D+00-0.103D+01 0.139D+00 0.211D+01
 Coeff:      0.386D-05-0.694D-05 0.323D-05 0.821D-03-0.291D-02-0.239D-02
 Coeff:      0.881D-02 0.204D-01-0.195D-01-0.657D-01-0.447D-01 0.309D+00
 Coeff:      0.236D+00-0.657D+00-0.103D+01 0.139D+00 0.211D+01
 Gap=     0.229 Goal=   None    Shift=    0.500
 RMSDP=1.54D-06 MaxDP=5.24D-05 DE=-3.59D-08 OVMax= 1.01D-04

 Cycle  18  Pass 1  IDiag  1:
 E= -1258.97009359678     Delta-E=       -0.000000016732 Rises=F Damp=F
 DIIS: error= 4.15D-06 at cycle  18 NSaved=  18.
 NSaved=18 IEnMin=18 EnMin= -1258.97009359678     IErMin=18 ErrMin= 4.15D-06
 ErrMax= 4.15D-06  0.00D+00 EMaxC= 1.00D+00 BMatC= 1.37D-09 BMatP= 3.08D-09
 IDIUse=1 WtCom= 1.00D+00 WtEn= 0.00D+00
 Coeff-Com:  0.147D-05-0.176D-04-0.211D-03 0.100D-02-0.588D-03-0.223D-02
 Coeff-Com: -0.517D-02 0.177D-01 0.181D-01-0.382D-01-0.854D-01 0.714D-01
 Coeff-Com:  0.251D+00 0.859D-01-0.613D+00-0.918D+00 0.482D+00 0.174D+01
 Coeff:      0.147D-05-0.176D-04-0.211D-03 0.100D-02-0.588D-03-0.223D-02
 Coeff:     -0.517D-02 0.177D-01 0.181D-01-0.382D-01-0.854D-01 0.714D-01
 Coeff:      0.251D+00 0.859D-01-0.613D+00-0.918D+00 0.482D+00 0.174D+01
 Gap=     0.229 Goal=   None    Shift=    0.500
 RMSDP=1.06D-06 MaxDP=3.57D-05 DE=-1.67D-08 OVMax= 7.06D-05

 Cycle  19  Pass 1  IDiag  1:
 E= -1258.97009360434     Delta-E=       -0.000000007557 Rises=F Damp=F
 DIIS: error= 2.94D-06 at cycle  19 NSaved=  19.
 NSaved=19 IEnMin=19 EnMin= -1258.97009360434     IErMin=19 ErrMin= 2.94D-06
 ErrMax= 2.94D-06  0.00D+00 EMaxC= 1.00D+00 BMatC= 6.40D-10 BMatP= 1.37D-09
 IDIUse=1 WtCom= 1.00D+00 WtEn= 0.00D+00
 Coeff-Com: -0.215D-05-0.678D-05-0.920D-04 0.136D-03 0.960D-03-0.136D-03
 Coeff-Com: -0.580D-02-0.118D-03 0.156D-01 0.110D-01-0.147D-01-0.907D-01
 Coeff-Com:  0.198D-01 0.286D+00 0.668D-01-0.495D+00-0.817D+00-0.623D-01
 Coeff-Com:  0.209D+01
 Coeff:     -0.215D-05-0.678D-05-0.920D-04 0.136D-03 0.960D-03-0.136D-03
 Coeff:     -0.580D-02-0.118D-03 0.156D-01 0.110D-01-0.147D-01-0.907D-01
 Coeff:      0.198D-01 0.286D+00 0.668D-01-0.495D+00-0.817D+00-0.623D-01
 Coeff:      0.209D+01
 Gap=     0.229 Goal=   None    Shift=    0.500
 RMSDP=7.45D-07 MaxDP=2.52D-05 DE=-7.56D-09 OVMax= 5.04D-05

 SCF Done:  E(RLC-wHPBE) =  -1258.97009360     A.U. after   19 cycles
            NFock= 19  Conv=0.74D-06     -V/T= 2.0033
 KE= 1.254792864476D+03 PE=-5.047242038757D+03 EE= 1.492837012357D+03
 Leave Link  502 at Mon Jan 25 23:46:26 2021, MaxMem=  4026531840 cpu:            1663.8 elap:             208.2
 (Enter /opt/ohpc/pub/libs/gaussian/g16-A.03/sandybridge/g16/l508.exe)
 QCSCF skips out because SCF is already converged.
 Leave Link  508 at Mon Jan 25 23:46:26 2021, MaxMem=  4026531840 cpu:               0.1 elap:               0.0
 (Enter /opt/ohpc/pub/libs/gaussian/g16-A.03/sandybridge/g16/l601.exe)
 Copying SCF densities to generalized density rwf, IOpCl= 0 IROHF=0.

 **********************************************************************

            Population analysis using the SCF density.

 **********************************************************************

 Orbital symmetries:
       Occupied  (A) (A) (A) (A) (A) (A) (A) (A) (A) (A) (A) (A)
                 (A) (A) (A) (A) (A) (A) (A) (A) (A) (A) (A) (A)
                 (A) (A) (A) (A) (A) (A) (A) (A) (A) (A) (A) (A)
                 (A) (A) (A) (A) (A) (A) (A) (A) (A) (A) (A) (A)
                 (A) (A) (A) (A) (A) (A) (A) (A) (A)
       Virtual   (A) (A) (A) (A) (A) (A) (A) (A) (A) (A) (A) (A)
                 (A) (A) (A) (A) (A) (A) (A) (A) (A) (A) (A) (A)
                 (A) (A) (A) (A) (A) (A) (A) (A) (A) (A) (A) (A)
                 (A) (A) (A) (A) (A) (A) (A) (A) (A) (A) (A) (A)
                 (A) (A) (A) (A) (A) (A) (A) (A) (A) (A) (A) (A)
                 (A) (A) (A) (A) (A) (A) (A) (A) (A) (A) (A) (A)
                 (A) (A) (A) (A) (A) (A) (A) (A) (A) (A) (A) (A)
                 (A) (A) (A) (A) (A) (A) (A) (A) (A) (A) (A) (A)
                 (A) (A) (A) (A) (A) (A) (A) (A) (A) (A) (A) (A)
                 (A) (A) (A) (A) (A) (A) (A) (A) (A) (A) (A) (A)
                 (A) (A) (A) (A) (A) (A) (A) (A) (A) (A) (A) (A)
                 (A) (A) (A) (A) (A) (A) (A) (A) (A) (A) (A) (A)
                 (A) (A) (A) (A) (A) (A) (A) (A) (A) (A) (A) (A)
                 (A) (A) (A) (A) (A) (A) (A) (A) (A) (A) (A) (A)
                 (A) (A) (A) (A) (A) (A) (A) (A) (A) (A) (A) (A)
                 (A) (A) (A) (A) (A) (A) (A) (A) (A) (A) (A) (A)
                 (A) (A) (A) (A) (A) (A) (A) (A) (A) (A) (A) (A)
                 (A) (A) (A) (A) (A) (A) (A) (A) (A) (A) (A) (A)
                 (A) (A) (A) (A) (A) (A) (A) (A) (A) (A) (A) (A)
                 (A) (A) (A) (A) (A) (A) (A) (A) (A) (A) (A) (A)
                 (A) (A) (A) (A) (A) (A) (A) (A) (A) (A) (A) (A)
                 (A) (A) (A) (A) (A) (A) (A) (A) (A) (A) (A) (A)
                 (A) (A) (A) (A) (A) (A) (A) (A) (A) (A) (A)
 The electronic state is 1-A.
 Alpha  occ. eigenvalues --  -88.31085 -88.22023 -10.07922 -10.07730 -10.04480
 Alpha  occ. eigenvalues --  -10.03631 -10.03534 -10.03393 -10.02401 -10.00285
 Alpha  occ. eigenvalues --   -9.99105  -9.98462  -9.97379  -9.93673  -7.90122
 Alpha  occ. eigenvalues --   -7.81257  -5.92088  -5.91925  -5.91227  -5.83446
 Alpha  occ. eigenvalues --   -5.82961  -5.82163  -0.96837  -0.92491  -0.87998
 Alpha  occ. eigenvalues --   -0.86773  -0.82683  -0.78682  -0.77609  -0.75989
 Alpha  occ. eigenvalues --   -0.70072  -0.68252  -0.65010  -0.63003  -0.60636
 Alpha  occ. eigenvalues --   -0.57678  -0.56886  -0.55058  -0.53342  -0.51607
 Alpha  occ. eigenvalues --   -0.51193  -0.49257  -0.49173  -0.47020  -0.46071
 Alpha  occ. eigenvalues --   -0.45818  -0.44676  -0.43323  -0.41885  -0.40378
 Alpha  occ. eigenvalues --   -0.37558  -0.37487  -0.36252  -0.32058  -0.29527
 Alpha  occ. eigenvalues --   -0.29457  -0.22598
 Alpha virt. eigenvalues --    0.00315   0.01605   0.03697   0.05023   0.07275
 Alpha virt. eigenvalues --    0.08460   0.09097   0.10135   0.11455   0.12455
 Alpha virt. eigenvalues --    0.13755   0.14276   0.16328   0.16584   0.16913
 Alpha virt. eigenvalues --    0.18430   0.18671   0.19751   0.20795   0.21279
 Alpha virt. eigenvalues --    0.23436   0.23995   0.24425   0.25437   0.26020
 Alpha virt. eigenvalues --    0.27013   0.27135   0.28323   0.28626   0.29316
 Alpha virt. eigenvalues --    0.29667   0.30076   0.31315   0.31810   0.32143
 Alpha virt. eigenvalues --    0.32773   0.33481   0.33689   0.34094   0.35020
 Alpha virt. eigenvalues --    0.35749   0.36166   0.37345   0.38114   0.38993
 Alpha virt. eigenvalues --    0.39789   0.40416   0.41035   0.41374   0.43039
 Alpha virt. eigenvalues --    0.43465   0.44088   0.44415   0.44808   0.44873
 Alpha virt. eigenvalues --    0.46061   0.46769   0.47497   0.48257   0.48649
 Alpha virt. eigenvalues --    0.48958   0.49830   0.50243   0.51282   0.51427
 Alpha virt. eigenvalues --    0.52494   0.52923   0.54226   0.54759   0.55661
 Alpha virt. eigenvalues --    0.55895   0.56403   0.58014   0.58555   0.59003
 Alpha virt. eigenvalues --    0.59570   0.60789   0.62311   0.62836   0.64353
 Alpha virt. eigenvalues --    0.65670   0.65996   0.68351   0.69822   0.71523
 Alpha virt. eigenvalues --    0.73402   0.74524   0.75120   0.76046   0.77180
 Alpha virt. eigenvalues --    0.77527   0.79263   0.79799   0.81180   0.82919
 Alpha virt. eigenvalues --    0.85608   0.89582   0.90837   0.91599   0.92043
 Alpha virt. eigenvalues --    0.93979   0.94907   0.97212   0.98461   0.99534
 Alpha virt. eigenvalues --    1.07547   1.10393   1.19554   1.22356   1.25468
 Alpha virt. eigenvalues --    1.27060   1.28131   1.29053   1.29068   1.30388
 Alpha virt. eigenvalues --    1.31060   1.32176   1.32979   1.33756   1.34129
 Alpha virt. eigenvalues --    1.35427   1.37638   1.37941   1.38211   1.38873
 Alpha virt. eigenvalues --    1.42265   1.43170   1.43423   1.44336   1.45872
 Alpha virt. eigenvalues --    1.46687   1.47180   1.47341   1.48351   1.50511
 Alpha virt. eigenvalues --    1.51071   1.51267   1.51769   1.52167   1.53029
 Alpha virt. eigenvalues --    1.53732   1.54719   1.55447   1.55899   1.56955
 Alpha virt. eigenvalues --    1.57665   1.58355   1.58618   1.58841   1.61095
 Alpha virt. eigenvalues --    1.62172   1.63936   1.64397   1.65281   1.66964
 Alpha virt. eigenvalues --    1.67918   1.68272   1.71630   1.72011   1.72572
 Alpha virt. eigenvalues --    1.75141   1.75884   1.78637   1.79695   1.80045
 Alpha virt. eigenvalues --    1.81912   1.82180   1.82630   1.83983   1.84308
 Alpha virt. eigenvalues --    1.85809   1.86662   1.89134   1.90081   1.90349
 Alpha virt. eigenvalues --    1.91443   1.92822   1.93324   1.93776   1.94339
 Alpha virt. eigenvalues --    1.95073   1.96742   1.97200   1.99077   2.00102
 Alpha virt. eigenvalues --    2.02101   2.02781   2.03913   2.04117   2.06639
 Alpha virt. eigenvalues --    2.07713   2.09888   2.11090   2.14585   2.16743
 Alpha virt. eigenvalues --    2.18652   2.22319   2.27211   2.27944   2.29947
 Alpha virt. eigenvalues --    2.31278   2.31653   2.32349   2.33184   2.35071
 Alpha virt. eigenvalues --    2.35933   2.36376   2.37880   2.38350   2.38708
 Alpha virt. eigenvalues --    2.40142   2.41573   2.44058   2.46208   2.48922
 Alpha virt. eigenvalues --    2.50209   2.51137   2.53422   2.53612   2.56361
 Alpha virt. eigenvalues --    2.57613   2.59376   2.59809   2.62701   2.64242
 Alpha virt. eigenvalues --    2.64807   2.66121   2.66348   2.67736   2.69493
 Alpha virt. eigenvalues --    2.71168   2.72039   2.73033   2.73760   2.75505
 Alpha virt. eigenvalues --    2.81185   2.83293   2.83772   2.87733   2.96208
 Alpha virt. eigenvalues --    2.99304   3.03333   3.07127   3.10635   3.12491
 Alpha virt. eigenvalues --    3.13096   3.13685   3.15268   3.17479   3.18724
 Alpha virt. eigenvalues --    3.20229   3.22859   3.28982   3.30255   3.36380
 Alpha virt. eigenvalues --    3.38306   3.40188   3.54819   3.57879   3.72423
 Alpha virt. eigenvalues --    3.73722  18.95826  19.06378  21.06007  21.33992
 Alpha virt. eigenvalues --   21.61208  21.69426  21.71349  21.74451  21.91125
 Alpha virt. eigenvalues --   21.92926  21.95397  22.00748  22.09485  22.13814
          Condensed to atoms (all electrons):
               1          2          3          4          5          6
     1  C    6.357292  -0.395636  -0.106835   0.352870  -0.006222  -0.028468
     2  C   -0.395636   6.460579   0.459298  -0.467684  -0.029755   0.030717
     3  S   -0.106835   0.459298  15.480182  -0.162119   0.011735  -0.056678
     4  C    0.352870  -0.467684  -0.162119   6.574415  -0.040713  -0.023182
     5  C   -0.006222  -0.029755   0.011735  -0.040713   7.091963  -0.052580
     6  C   -0.028468   0.030717  -0.056678  -0.023182  -0.052580   5.904224
     7  C   -0.406209   0.369988   0.059319  -0.346489   0.002800   0.006190
     8  C   -0.445441   0.130921   0.029641  -0.258293   0.020504   0.000876
     9  H   -0.003291   0.016426   0.005261  -0.025086  -0.063423   0.013250
    10  C   -0.005712   0.031839  -0.016591  -0.024796  -0.732046   0.175995
    11  C    0.001970   0.002850   0.019054  -0.004612   0.108910   0.365056
    12  C   -0.000780   0.001299  -0.010807  -0.002737  -0.448498   0.124254
    13  C    0.000422  -0.000668   0.016786   0.002222   0.245889  -0.114610
    14  H    0.000027   0.000337  -0.000686  -0.000391  -0.069285   0.003152
    15  H    0.000163  -0.000156  -0.000499   0.000160   0.038740  -0.084727
    16  H    0.000004  -0.000059  -0.000433   0.000042   0.004770   0.013601
    17  H    0.000000   0.000014   0.000193  -0.000002   0.025741  -0.000169
    18  C    0.357913  -0.346787  -0.011185   0.272087  -0.005316  -0.007557
    19  H    0.464568  -0.116173  -0.012775   0.035840   0.000101  -0.000680
    20  H   -0.051360  -0.006098   0.302431   0.006604   0.000530   0.004947
    21  H   -0.062574   0.024215  -0.000063  -0.004886   0.000008   0.000031
    22  H   -0.005933   0.035249   0.000059  -0.082951   0.002144   0.000527
    23  H    0.024535  -0.004840  -0.000051   0.028292  -0.000029  -0.000040
    24  S    0.029705  -0.213832  -0.009003   0.376080   0.243762  -0.100303
               7          8          9         10         11         12
     1  C   -0.406209  -0.445441  -0.003291  -0.005712   0.001970  -0.000780
     2  C    0.369988   0.130921   0.016426   0.031839   0.002850   0.001299
     3  S    0.059319   0.029641   0.005261  -0.016591   0.019054  -0.010807
     4  C   -0.346489  -0.258293  -0.025086  -0.024796  -0.004612  -0.002737
     5  C    0.002800   0.020504  -0.063423  -0.732046   0.108910  -0.448498
     6  C    0.006190   0.000876   0.013250   0.175995   0.365056   0.124254
     7  C    5.688352   0.314720   0.000985   0.000854  -0.000535   0.000110
     8  C    0.314720   5.915896  -0.013582  -0.006879  -0.002265  -0.000077
     9  H    0.000985  -0.013582   0.641313   0.045292  -0.001073   0.001266
    10  C    0.000854  -0.006879   0.045292   6.468589  -0.370290   0.359507
    11  C   -0.000535  -0.002265  -0.001073  -0.370290   5.324943   0.102321
    12  C    0.000110  -0.000077   0.001266   0.359507   0.102321   5.589131
    13  C   -0.000075   0.000417  -0.000054   0.066621   0.186873   0.163355
    14  H   -0.000004  -0.000169  -0.000701   0.374653  -0.000313   0.009589
    15  H   -0.000022  -0.000055  -0.000023  -0.008635   0.448023  -0.143773
    16  H    0.000000   0.000001  -0.000013   0.009457  -0.041414   0.393205
    17  H   -0.000000  -0.000001  -0.000030  -0.069968   0.012764  -0.056195
    18  C    0.098109   0.046905  -0.004277  -0.001119   0.000419  -0.000070
    19  H   -0.066381  -0.007279  -0.000040  -0.000081   0.000048  -0.000030
    20  H    0.006081   0.002466   0.000270   0.001077  -0.000530   0.000612
    21  H    0.426088   0.022962   0.000007   0.000002  -0.000001   0.000000
    22  H    0.015980   0.396793   0.000875   0.000315  -0.000035   0.000006
    23  H   -0.072731  -0.081390  -0.000019  -0.000003   0.000001  -0.000000
    24  S   -0.004653  -0.003000   0.275046  -0.319287   0.025252  -0.015206
              13         14         15         16         17         18
     1  C    0.000422   0.000027   0.000163   0.000004   0.000000   0.357913
     2  C   -0.000668   0.000337  -0.000156  -0.000059   0.000014  -0.346787
     3  S    0.016786  -0.000686  -0.000499  -0.000433   0.000193  -0.011185
     4  C    0.002222  -0.000391   0.000160   0.000042  -0.000002   0.272087
     5  C    0.245889  -0.069285   0.038740   0.004770   0.025741  -0.005316
     6  C   -0.114610   0.003152  -0.084727   0.013601  -0.000169  -0.007557
     7  C   -0.000075  -0.000004  -0.000022   0.000000  -0.000000   0.098109
     8  C    0.000417  -0.000169  -0.000055   0.000001  -0.000001   0.046905
     9  H   -0.000054  -0.000701  -0.000023  -0.000013  -0.000030  -0.004277
    10  C    0.066621   0.374653  -0.008635   0.009457  -0.069968  -0.001119
    11  C    0.186873  -0.000313   0.448023  -0.041414   0.012764   0.000419
    12  C    0.163355   0.009589  -0.143773   0.393205  -0.056195  -0.000070
    13  C    5.205592  -0.004813   0.022955  -0.059176   0.416450   0.000051
    14  H   -0.004813   0.594894   0.000146  -0.000209  -0.008249   0.000024
    15  H    0.022955   0.000146   0.642675  -0.006903  -0.000296   0.000017
    16  H   -0.059176  -0.000209  -0.006903   0.598178  -0.006973   0.000000
    17  H    0.416450  -0.008249  -0.000296  -0.006973   0.586548   0.000000
    18  C    0.000051   0.000024   0.000017   0.000000   0.000000   5.355799
    19  H    0.000014   0.000000   0.000007   0.000000  -0.000000   0.021504
    20  H   -0.000752  -0.000074  -0.000058  -0.000005   0.000002  -0.001917
    21  H   -0.000000  -0.000000  -0.000000  -0.000000  -0.000000  -0.069589
    22  H   -0.000002  -0.000005  -0.000001  -0.000000  -0.000000  -0.040775
    23  H    0.000000   0.000000   0.000000   0.000000   0.000000   0.441660
    24  S    0.040118  -0.003909  -0.000110   0.000152  -0.000244   0.009859
              19         20         21         22         23         24
     1  C    0.464568  -0.051360  -0.062574  -0.005933   0.024535   0.029705
     2  C   -0.116173  -0.006098   0.024215   0.035249  -0.004840  -0.213832
     3  S   -0.012775   0.302431  -0.000063   0.000059  -0.000051  -0.009003
     4  C    0.035840   0.006604  -0.004886  -0.082951   0.028292   0.376080
     5  C    0.000101   0.000530   0.000008   0.002144  -0.000029   0.243762
     6  C   -0.000680   0.004947   0.000031   0.000527  -0.000040  -0.100303
     7  C   -0.066381   0.006081   0.426088   0.015980  -0.072731  -0.004653
     8  C   -0.007279   0.002466   0.022962   0.396793  -0.081390  -0.003000
     9  H   -0.000040   0.000270   0.000007   0.000875  -0.000019   0.275046
    10  C   -0.000081   0.001077   0.000002   0.000315  -0.000003  -0.319287
    11  C    0.000048  -0.000530  -0.000001  -0.000035   0.000001   0.025252
    12  C   -0.000030   0.000612   0.000000   0.000006  -0.000000  -0.015206
    13  C    0.000014  -0.000752  -0.000000  -0.000002   0.000000   0.040118
    14  H    0.000000  -0.000074  -0.000000  -0.000005   0.000000  -0.003909
    15  H    0.000007  -0.000058  -0.000000  -0.000001   0.000000  -0.000110
    16  H    0.000000  -0.000005  -0.000000  -0.000000   0.000000   0.000152
    17  H   -0.000000   0.000002  -0.000000  -0.000000   0.000000  -0.000244
    18  C    0.021504  -0.001917  -0.069589  -0.040775   0.441660   0.009859
    19  H    0.554980  -0.004170  -0.008574  -0.000065  -0.000169   0.000095
    20  H   -0.004170   0.655315   0.000065   0.000021  -0.000010  -0.000756
    21  H   -0.008574   0.000065   0.557772  -0.000165  -0.008350   0.000035
    22  H   -0.000065   0.000021  -0.000165   0.533944  -0.007777   0.004125
    23  H   -0.000169  -0.000010  -0.008350  -0.007777   0.559913  -0.000628
    24  S    0.000095  -0.000756   0.000035   0.004125  -0.000628  15.330036
 Mulliken charges:
               1
     1  C   -0.071007
     2  C    0.017956
     3  S    0.003764
     4  C   -0.204670
     5  C   -0.349731
     6  C   -0.173825
     7  C   -0.092479
     8  C   -0.063672
     9  H    0.111621
    10  C    0.021206
    11  C   -0.177415
    12  C   -0.066481
    13  C   -0.187616
    14  H    0.105985
    15  H    0.092373
    16  H    0.095775
    17  H    0.100414
    18  C   -0.115756
    19  H    0.139262
    20  H    0.085307
    21  H    0.123018
    22  H    0.147671
    23  H    0.121636
    24  S    0.336665
 Sum of Mulliken charges =  -0.00000
 Mulliken charges with hydrogens summed into heavy atoms:
               1
     1  C    0.068255
     2  C    0.017956
     3  S    0.089071
     4  C   -0.204670
     5  C   -0.349731
     6  C   -0.173825
     7  C    0.030539
     8  C    0.083999
    10  C    0.127191
    11  C   -0.085042
    12  C    0.029294
    13  C   -0.087202
    18  C    0.005880
    24  S    0.448286
 Electronic spatial extent (au):  <R**2>=           3318.0597
 Charge=             -0.0000 electrons
 Dipole moment (field-independent basis, Debye):
    X=              4.6121    Y=             -0.9138    Z=             -4.4673  Tot=              6.4856
 Quadrupole moment (field-independent basis, Debye-Ang):
   XX=            -86.1965   YY=            -87.0813   ZZ=           -101.0268
   XY=             -1.1417   XZ=              5.4140   YZ=              2.5320
 Traceless Quadrupole moment (field-independent basis, Debye-Ang):
   XX=              5.2383   YY=              4.3536   ZZ=             -9.5919
   XY=             -1.1417   XZ=              5.4140   YZ=              2.5320
 Octapole moment (field-independent basis, Debye-Ang**2):
  XXX=             54.4104  YYY=              1.5237  ZZZ=            -25.1361  XYY=             21.6110
  XXY=             14.4860  XXZ=              0.7484  XZZ=             -1.9945  YZZ=              0.4309
  YYZ=            -14.5786  XYZ=            -10.1545
 Hexadecapole moment (field-independent basis, Debye-Ang**3):
 XXXX=          -3064.8458 YYYY=           -867.4963 ZZZZ=           -432.4437 XXXY=            -48.7344
 XXXZ=             91.4532 YYYX=              4.8008 YYYZ=            -13.6799 ZZZX=             16.0974
 ZZZY=             19.0221 XXYY=           -674.7520 XXZZ=           -646.5532 YYZZ=           -206.9089
 XXYZ=             10.2796 YYXZ=              5.0378 ZZXY=             -5.8556
 N-N= 1.040642068320D+03 E-N=-5.047242064694D+03  KE= 1.254792864476D+03
 No NMR shielding tensors so no spin-rotation constants.
 Leave Link  601 at Mon Jan 25 23:46:26 2021, MaxMem=  4026531840 cpu:               1.7 elap:               0.2
 (Enter /opt/ohpc/pub/libs/gaussian/g16-A.03/sandybridge/g16/l9999.exe)

 Test job not archived.
 1\1\GINC-CNODE146\SP\RLC-wHPBE\TZVP\C12H10S2\RDU230\25-Jan-2021\0\\#P 
 LC-wHPBE/TZVP iop(3/107=0218100000, 3/108=0218100000) scf=(conver=6,fe
 rmi,ndamp=35,noincfock,novaracc,vshift=500,xqc)\\H10 C12 S2\\0,1\C,0,-
 2.574063,-1.434391,-0.049117\C,0,-1.368901,-0.745264,-0.216328\S,0,0.0
 93606,-1.678504,-0.585022\C,0,-1.397687,0.626896,-0.046009\C,0,1.50039
 5,0.811934,0.077279\C,0,1.478004,0.220423,1.307027\C,0,-3.746915,-0.78
 3096,0.229547\C,0,-2.584351,1.293751,0.256604\H,0,-0.039943,1.860892,-
 1.547006\C,0,2.473105,0.786527,-0.925649\C,0,2.645316,-0.559969,1.4924
 38\C,0,3.655495,-0.649979,0.563531\C,0,3.583956,0.035098,-0.656753\H,0
 ,2.357645,1.302286,-1.874829\H,0,2.763398,-1.119309,2.419207\H,0,4.527
 775,-1.262476,0.773175\H,0,4.391412,-0.038194,-1.378729\C,0,-3.759914,
 0.597536,0.384558\H,0,-2.557315,-2.514169,-0.13851\H,0,-0.525974,-2.52
 8359,-1.4318\H,0,-4.665467,-1.345208,0.349638\H,0,-2.558102,2.368477,0
 .406674\H,0,-4.681894,1.115025,0.619767\S,0,0.004008,1.738768,-0.20875
 \\Version=EM64L-G16RevA.03\State=1-A\HF=-1258.9700936\RMSD=7.450e-07\D
 ipole=-1.8145408,0.3595001,-1.7575655\Quadrupole=3.8945778,3.2367689,-
 7.1313467,-0.8488008,-4.0251801,-1.8824842\PG=C01 [X(C12H10S2)]\\@


 THE REASON MAN'S BEST FRIEND IS A DOG IS BECAUSE
 HE WAGS HIS TAIL INSTEAD OF HIS TONGUE.
 Job cpu time:       0 days  0 hours 28 minutes 11.7 seconds.
 Elapsed time:       0 days  0 hours  3 minutes 32.0 seconds.
 File lengths (MBytes):  RWF=     92 Int=      0 D2E=      0 Chk=     12 Scr=      8
 Normal termination of Gaussian 16 at Mon Jan 25 23:46:26 2021.
